Title
82271
    1SAPS     N    1   3.232   1.547  11.268  0.1025  0.0494 -0.5082
    1SAPS   HN1    2   3.212   1.590  11.361  0.7774 -1.5265  0.3894
    1SAPS   HN2    3   3.146   1.544  11.210 -1.3940  0.3012  1.6177
    1SAPS   HN3    4   3.264   1.449  11.284 -1.1215 -0.4794 -1.2263
    1SAPS   C12    5   3.344   1.620  11.194  0.5582 -0.4857 -1.0956
    1SAPS  H12A    6   3.319   1.724  11.209  0.7152 -0.0493 -3.6199
    1SAPS   C13    7   3.488   1.596  11.247 -0.2923 -0.1931  0.4920
    1SAPS  O13A    8   3.503   1.492  11.317  0.3333 -0.5439 -0.2528
    1SAPS  O13B    9   3.579   1.664  11.196  0.5881 -0.3080 -0.2816
    1SAPS   C11   10   3.337   1.600  11.040 -0.1777  0.6524 -0.2949
    1SAPS  H11A   11   3.360   1.492  11.030 -0.0245  0.4587  1.8632
    1SAPS  H11B   12   3.415   1.665  10.996  1.3359 -0.9362 -0.0398
    1SAPS     P   13   3.151   1.757  10.936 -0.0687  0.1334 -0.0646
    1SAPS   O13   14   3.006   1.757  10.963 -0.3155  0.4579 -0.3927
    1SAPS   O14   15   3.223   1.864  11.002  0.5968  0.0722  0.1546
    1SAPS   O12   16   3.203   1.616  10.986  0.0127  0.3137 -0.1716
    1SAPS   O11   17   3.179   1.758  10.778 -0.3123 -0.1779 -0.5987
    1SAPS    C1   18   3.077   1.780  10.683  0.4327 -0.1540  0.0568
    1SAPS    HA   19   3.003   1.861  10.702  0.1790 -0.6969  1.4358
    1SAPS    HB   20   3.133   1.807  10.591 -0.6545 -0.1286 -0.6100
    1SAPS    C2   21   2.996   1.646  10.667 -0.3819  0.6076 -0.0538
    1SAPS    HS   22   2.963   1.608  10.766 -3.1060 -1.8025 -1.7889
    1SAPS   O21   23   3.083   1.553  10.596 -0.0678  0.3376  0.5402
    1SAPS   C21   24   3.043   1.429  10.578  0.2283  0.4648 -0.4866
    1SAPS   O22   25   2.935   1.376  10.617 -0.2015  0.1584 -0.2357
    1SAPS   C22   26   3.150   1.354  10.508 -0.1314 -0.0493  0.2701
    1SAPS   H2R   27   3.248   1.404  10.526  0.5987 -0.4755 -2.3065
    1SAPS   H2S   28   3.155   1.254  10.555 -0.7146 -0.1303  0.1701
    1SAPS    C3   29   2.861   1.667  10.586  0.7624 -0.1329  0.6087
    1SAPS    HX   30   2.797   1.740  10.639 -0.4946  0.3612 -1.5447
    1SAPS    HY   31   2.799   1.576  10.581  0.1633  0.3174 -0.2874
    1SAPS   O31   32   2.882   1.710  10.448 -0.1990  0.0300 -0.1360
    1SAPS   C31   33   2.849   1.830  10.413  0.2802  0.2322 -0.5167
    1SAPS   O32   34   2.782   1.908  10.482  0.2357  0.5475 -0.2796
    1SAPS   C32   35   2.889   1.865  10.275 -0.4148  0.3288 -0.3759
    1SAPS   H2X   36   2.931   1.771  10.234 -1.1423  0.7979 -2.2207
    1SAPS   H2Y   37   2.963   1.947  10.284  0.1593 -0.4964  3.7519
    1SAPS   C23   38   3.126   1.337  10.359 -0.0915  0.0356  0.1794
    1SAPS   H3R   39   3.033   1.276  10.348  0.3215 -0.4743 -0.4821
    1SAPS   H3S   40   3.206   1.278  10.310  0.2792 -0.6216  1.5637
    1SAPS   C24   41   3.101   1.472  10.284 -0.1643 -0.0502 -0.1518
    1SAPS   H4R   42   3.198   1.524  10.297 -0.9006  1.2781  0.0535
    1SAPS   H4S   43   3.022   1.529  10.336 -1.4062 -0.1715 -1.8634
    1SAPS   C25   44   3.067   1.455  10.140  0.5257 -0.5451  0.2067
    1SAPS   H5R   45   3.019   1.366  10.096 -0.1524  0.7687 -1.7300
    1SAPS   C26   46   3.124   1.534  10.046  0.4410  0.9095 -0.3707
    1SAPS   H6R   47   3.106   1.500   9.943 -0.3374 -2.7286  0.8669
    1SAPS   C27   48   3.212   1.652  10.083 -0.0745 -0.3084 -0.7764
    1SAPS   H7R   49   3.205   1.688  10.188  0.0731 -3.3185  0.3170
    1SAPS   H7S   50   3.159   1.738  10.037  1.8717  1.2368 -0.1708
    1SAPS   C28   51   3.353   1.615  10.049 -0.1174  0.5654 -0.5205
    1SAPS   H8R   52   3.407   1.544  10.114 -0.5916 -1.2958 -2.1007
    1SAPS   C29   53   3.414   1.655   9.937 -0.9342  0.1933 -0.1461
    1SAPS   H9R   54   3.509   1.608   9.906 -1.0739 -0.2223  0.0493
    1SAPS  C210   55   3.351   1.744   9.836 -0.3990 -0.2856  0.6136
    1SAPS  H10R   56   3.268   1.806   9.875  0.1449  0.5655  0.4416
    1SAPS  H10S   57   3.308   1.678   9.758  0.5176 -0.1444 -0.0241
    1SAPS  C211   58   3.448   1.836   9.761 -0.3690 -0.6558 -0.0127
    1SAPS  H11R   59   3.554   1.808   9.768  0.2612  2.1928  3.2611
    1SAPS  C212   60   3.434   1.948   9.687  0.1934 -0.2407  0.4252
    1SAPS  H12R   61   3.517   1.996   9.633 -0.9007  1.2112 -0.0034
    1SAPS  C213   62   3.304   2.006   9.662 -0.3029  0.1613  0.0551
    1SAPS  H13R   63   3.221   1.972   9.728  0.0415 -0.1262  0.3406
    1SAPS  H13S   64   3.271   1.979   9.560  1.8474  0.3323 -0.7113
    1SAPS  C214   65   3.311   2.157   9.668  0.5413 -0.4353 -0.3437
    1SAPS  H14R   66   3.312   2.191   9.773 -0.3594 -0.1603 -0.4216
    1SAPS  C215   67   3.318   2.243   9.568  0.3724 -0.3320 -0.3669
    1SAPS  H15R   68   3.322   2.352   9.586 -1.3550  0.6263 -4.9681
    1SAPS  C216   69   3.332   2.206   9.424  0.1971  0.1226  0.3147
    1SAPS  H16R   70   3.341   2.098   9.399  4.1496  0.3083  0.6213
    1SAPS  H16S   71   3.417   2.259   9.377  1.3005 -1.1706  0.8379
    1SAPS  C217   72   3.210   2.264   9.355  0.3732  0.0142 -0.6188
    1SAPS  H17R   73   3.209   2.376   9.353  0.5090  0.0459  0.5281
    1SAPS  H17S   74   3.115   2.222   9.393 -0.3024 -0.8747 -3.2449
    1SAPS  C218   75   3.212   2.211   9.208  0.6167 -0.0153  0.2892
    1SAPS  H18R   76   3.311   2.204   9.159  1.0260 -2.1262  1.3658
    1SAPS  H18S   77   3.163   2.297   9.156 -0.6333 -1.1433 -0.4384
    1SAPS  C219   78   3.138   2.070   9.192 -0.9934  0.0859  0.6033
    1SAPS  H19R   79   3.037   2.063   9.238 -0.3689 -1.5006  1.7535
    1SAPS  H19S   80   3.207   1.990   9.226  1.2176  0.7149 -2.2222
    1SAPS  C220   81   3.125   2.030   9.040 -0.1157 -0.1741  0.7242
    1SAPS  H20R   82   3.032   2.074   8.999 -0.5394 -1.3353  0.4255
    1SAPS  H20S   83   3.120   1.920   9.023  1.4813 -0.2453  0.6207
    1SAPS  H20T   84   3.201   2.077   8.974 -1.5449  0.3263 -0.5746
    1SAPS   C33   85   2.773   1.903  10.184 -0.8898  0.1712 -0.1285
    1SAPS   H3X   86   2.734   2.000  10.222  1.0441  1.1474 -0.6062
    1SAPS   H3Y   87   2.682   1.838  10.184 -0.3348 -0.6288  1.3019
    1SAPS   C34   88   2.796   1.917  10.035  0.2591  0.2495 -0.7309
    1SAPS   H4X   89   2.864   2.004  10.020 -1.5064  1.2035 -3.4293
    1SAPS   H4Y   90   2.702   1.943   9.983 -0.2863 -2.1050 -0.9609
    1SAPS   C35   91   2.857   1.797   9.962 -0.1451 -0.0064 -0.0573
    1SAPS   H5X   92   2.783   1.716   9.979 -1.3550  1.2155  0.6079
    1SAPS   H5Y   93   2.960   1.771   9.995 -0.6791 -1.5494  0.4410
    1SAPS   C36   94   2.873   1.812   9.807  0.5553  0.0770  0.0934
    1SAPS   H6X   95   2.947   1.891   9.784  0.2261 -0.1040 -1.6947
    1SAPS   H6Y   96   2.777   1.845   9.761  0.9703  2.3381  0.8045
    1SAPS   C37   97   2.937   1.682   9.740  0.0759 -0.1905 -0.7381
    1SAPS   H7X   98   2.877   1.600   9.786 -0.4974  0.3230 -0.5578
    1SAPS   H7Y   99   3.038   1.674   9.786 -0.6507  1.1311  1.1927
    1SAPS   C38  100   2.948   1.676   9.591  0.8647  0.0570  0.1126
    1SAPS   H8X  101   2.856   1.707   9.537 -1.8664 -2.4397  3.1171
    1SAPS   H8Y  102   2.951   1.568   9.562  0.7606  0.0686  0.0573
    1SAPS   C39  103   3.066   1.763   9.543  0.1673 -0.2572 -0.2072
    1SAPS   H9X  104   3.160   1.740   9.596  0.3199  2.3366  0.7176
    1SAPS   H9Y  105   3.028   1.863   9.574  3.5984  1.6799 -2.0074
    1SAPS  C310  106   3.090   1.753   9.396 -0.1055  0.3671 -0.7628
    1SAPS  H10X  107   3.172   1.825   9.376 -0.5948  0.4412 -2.5644
    1SAPS  H10Y  108   3.011   1.798   9.332  0.4403  1.6354 -0.5454
    1SAPS  C311  109   3.106   1.604   9.345 -0.4752  0.1419  0.2142
    1SAPS  H11X  110   3.008   1.553   9.343 -0.9927  1.1527 -1.0180
    1SAPS  H11Y  111   3.173   1.550   9.415 -0.3888 -0.0237  0.0041
    1SAPS  C312  112   3.153   1.587   9.200 -0.8562 -0.0751 -0.2023
    1SAPS  H12X  113   3.258   1.622   9.192 -1.2457  1.0363 -0.5229
    1SAPS  H12Y  114   3.088   1.650   9.136  0.4944  0.2476 -1.2776
    1SAPS  C313  115   3.134   1.446   9.147 -0.5889 -0.2890 -0.5662
    1SAPS  H13X  116   3.024   1.430   9.137 -0.5042 -0.5654 -1.1149
    1SAPS  H13Y  117   3.177   1.382   9.226  0.1033 -1.7517 -2.0839
    1SAPS  C314  118   3.205   1.426   9.010  0.6230 -0.7672 -0.6740
    1SAPS  H14X  119   3.314   1.408   9.025  0.9460  0.0779 -1.8942
    1SAPS  H14Y  120   3.195   1.511   8.939  1.3822 -1.3857 -1.5429
    1SAPS  C315  121   3.166   1.296   8.947  0.1692 -0.6083  0.1361
    1SAPS  H15X  122   3.056   1.283   8.942  0.0599  0.9067 -2.6444
    1SAPS  H15Y  123   3.196   1.206   9.005  1.2370  0.6290  1.5424
    1SAPS  C316  124   3.225   1.266   8.803 -0.5362  0.0319 -0.0015
    1SAPS  H16X  125   3.336   1.262   8.804 -0.4918  0.8814 -1.1327
    1SAPS  H16Y  126   3.196   1.357   8.748 -2.5752  0.8066  2.2646
    1SAPS  C317  127   3.188   1.132   8.739 -0.4076  0.0888  1.0553
    1SAPS  H17X  128   3.079   1.141   8.719  0.0608 -1.5020 -2.5387
    1SAPS  H17Y  129   3.200   1.056   8.819  0.2159  2.2638  3.0880
    1SAPS  C318  130   3.257   1.098   8.604 -0.1967 -0.4571  0.3495
    1SAPS  H18X  131   3.241   1.174   8.525 -3.0797 -0.0141  1.2880
    1SAPS  H18Y  132   3.231   0.996   8.566  0.2133  0.0213 -1.2644
    1SAPS  H18Z  133   3.366   1.099   8.627  0.0373 -1.6793 -0.6203
    2SAPS     N  134   0.999   2.046  10.893  0.4748 -0.0295 -0.9588
    2SAPS   HN1  135   0.954   1.953  10.882  0.8021 -0.2851 -0.1186
    2SAPS   HN2  136   0.986   2.083  10.989 -1.7892 -0.5362 -1.0308
    2SAPS   HN3  137   0.951   2.108  10.824 -0.3204  0.1087 -0.3017
    2SAPS   C12  138   1.153   2.042  10.861  0.7619 -0.3386 -0.4187
    2SAPS  H12A  139   1.174   2.085  10.765  3.1199 -0.0988  0.1875
    2SAPS   C13  140   1.237   2.130  10.946 -0.0680 -0.0384 -0.2747
    2SAPS  O13A  141   1.186   2.176  11.050 -0.0327  0.5065  0.0589
    2SAPS  O13B  142   1.358   2.142  10.926  0.0065  0.2225 -0.0160
    2SAPS   C11  143   1.190   1.892  10.874  1.2180 -0.0107  0.5816
    2SAPS  H11A  144   1.209   1.853  10.976 -1.5928 -3.0574 -0.0085
    2SAPS  H11B  145   1.288   1.894  10.821  1.0582  1.6869  0.3251
    2SAPS     P  146   1.049   1.672  10.835 -0.2471 -0.3956  0.5117
    2SAPS   O13  147   1.056   1.651  10.984  0.2876  0.4372 -0.7731
    2SAPS   O14  148   0.914   1.653  10.778 -0.0071  0.0398 -0.3875
    2SAPS   O12  149   1.095   1.819  10.801 -0.4974  0.4337 -0.1196
    2SAPS   O11  150   1.155   1.589  10.763  0.7686 -0.5409  0.2234
    2SAPS    C1  151   1.249   1.636  10.667 -0.1887 -0.2147  0.7542
    2SAPS    HA  152   1.279   1.743  10.673  0.5396 -0.2975 -1.0362
    2SAPS    HB  153   1.344   1.579  10.674 -0.8909 -1.5324 -0.2180
    2SAPS    C2  154   1.198   1.605  10.525 -0.0889 -0.0645 -0.0637
    2SAPS    HS  155   1.280   1.625  10.453 -0.0366  0.3067  0.0953
    2SAPS   O21  156   1.074   1.678  10.493 -0.1423 -0.0040  0.0338
    2SAPS   C21  157   1.093   1.800  10.461  0.1738 -0.6849  0.1774
    2SAPS   O22  158   1.194   1.868  10.468 -0.2470 -0.2655  0.2752
    2SAPS   C22  159   0.963   1.857  10.397 -0.0706 -0.5754 -0.0448
    2SAPS   H2R  160   0.882   1.859  10.473  0.3003 -2.3316  0.4147
    2SAPS   H2S  161   0.982   1.960  10.361 -3.5958  1.1626  2.7213
    2SAPS    C3  162   1.159   1.454  10.509  0.0343 -0.1582  0.0910
    2SAPS    HX  163   1.063   1.438  10.562 -0.4934  1.7863 -0.2480
    2SAPS    HY  164   1.239   1.389  10.551  1.8228  2.6862  1.2249
    2SAPS   O31  165   1.122   1.423  10.371 -0.8575  0.5154 -0.1292
    2SAPS   C31  166   1.220   1.409  10.288 -0.2762  0.2147 -0.2201
    2SAPS   O32  167   1.344   1.414  10.313  0.0613  0.2965  0.2058
    2SAPS   C32  168   1.159   1.381  10.148  0.1125  0.1897  0.1014
    2SAPS   H2X  169   1.094   1.471  10.134 -0.3943 -0.3056 -0.7858
    2SAPS   H2Y  170   1.086   1.297  10.152 -3.1265  2.8153 -0.9058
    2SAPS   C23  171   0.911   1.773  10.286  0.3640  0.0672 -0.1162
    2SAPS   H3R  172   0.819   1.820  10.245 -0.1756 -1.6215 -0.8809
    2SAPS   H3S  173   0.879   1.673  10.323  0.1702  0.1638 -0.0253
    2SAPS   C24  174   1.015   1.738  10.178  0.3392  0.5770  0.1406
    2SAPS   H4R  175   0.973   1.646  10.132  3.0655 -1.0034  0.7246
    2SAPS   H4S  176   1.116   1.704  10.209  0.0455  1.6390  2.3252
    2SAPS   C25  177   1.033   1.856  10.088  0.8435 -0.4660  0.1339
    2SAPS   H5R  178   1.016   1.956  10.130 -3.3631 -0.1428 -2.0210
    2SAPS   C26  179   1.072   1.845   9.962 -0.2992  0.0070  0.3640
    2SAPS   H6R  180   1.072   1.931   9.893  0.5047  0.6211  1.1145
    2SAPS   C27  181   1.104   1.721   9.883 -0.8764  0.0423  0.3743
    2SAPS   H7R  182   1.029   1.718   9.801 -0.9667  0.2997  0.4477
    2SAPS   H7S  183   1.082   1.637   9.952 -0.2206  1.1733  2.0038
    2SAPS   C28  184   1.244   1.706   9.826  0.3702 -0.0238  0.2621
    2SAPS   H8R  185   1.326   1.661   9.884  0.3588 -0.2670  0.0868
    2SAPS   C29  186   1.281   1.722   9.694  0.3880  0.2215  0.9250
    2SAPS   H9R  187   1.390   1.720   9.680  0.1576 -2.1845 -0.7551
    2SAPS  C210  188   1.194   1.770   9.576  0.1320 -0.0222 -0.4043
    2SAPS  H10R  189   1.117   1.840   9.615  3.1797  2.8112  0.7940
    2SAPS  H10S  190   1.139   1.682   9.536  0.4003  0.1637 -1.1816
    2SAPS  C211  191   1.264   1.849   9.465 -0.0215  0.3117 -0.5587
    2SAPS  H11R  192   1.318   1.937   9.501 -0.5088  1.4282 -2.5109
    2SAPS  C212  193   1.262   1.818   9.330 -0.0652 -0.1980  0.4035
    2SAPS  H12R  194   1.309   1.884   9.256 -1.1955 -1.5828 -1.6194
    2SAPS  C213  195   1.180   1.703   9.269  0.3397 -0.7602 -0.5632
    2SAPS  H13R  196   1.150   1.625   9.342 -1.8724  1.4208  0.8834
    2SAPS  H13S  197   1.239   1.645   9.194  1.5108  0.2275 -0.4190
    2SAPS  C214  198   1.056   1.756   9.208 -0.3544 -0.4108 -0.2557
    2SAPS  H14R  199   0.973   1.760   9.279  0.2680  0.2501  0.4490
    2SAPS  C215  200   1.033   1.804   9.089  0.1473  0.7378 -0.3629
    2SAPS  H15R  201   0.930   1.835   9.064 -0.9677 -2.5199 -0.0843
    2SAPS  C216  202   1.135   1.814   8.982  0.5360  0.0885  0.2537
    2SAPS  H16R  203   1.239   1.809   9.021 -0.1372 -2.0564  1.8713
    2SAPS  H16S  204   1.120   1.901   8.914  1.6493  0.1093  0.0289
    2SAPS  C217  205   1.124   1.688   8.888 -0.8028  0.1954  0.0145
    2SAPS  H17R  206   1.016   1.670   8.872 -0.9405  0.2662  0.8323
    2SAPS  H17S  207   1.169   1.597   8.934 -0.5239  0.3072 -0.0322
    2SAPS  C218  208   1.183   1.712   8.741 -0.6523  0.0539 -0.6179
    2SAPS  H18R  209   1.109   1.769   8.682 -1.0443 -0.7970 -0.9632
    2SAPS  H18S  210   1.209   1.613   8.698  1.0602 -0.2166  0.9543
    2SAPS  C219  211   1.312   1.804   8.732 -0.6159  0.0084  0.0271
    2SAPS  H19R  212   1.366   1.781   8.826 -0.7268 -1.4991 -0.2590
    2SAPS  H19S  213   1.293   1.913   8.730 -0.1277  0.0772 -1.7445
    2SAPS  C220  214   1.403   1.750   8.619 -0.3190  0.4331  0.0899
    2SAPS  H20R  215   1.355   1.733   8.520  0.7479 -0.3727 -0.3016
    2SAPS  H20S  216   1.436   1.650   8.656 -1.9911 -0.5738 -1.0698
    2SAPS  H20T  217   1.493   1.812   8.606 -1.2348  1.7978  0.1913
    2SAPS   C33  218   1.263   1.366  10.035 -0.9302  0.5544 -0.2111
    2SAPS   H3X  219   1.337   1.286  10.059 -0.7258  0.5283 -0.9243
    2SAPS   H3Y  220   1.324   1.458  10.026 -0.9295  0.7389  1.5306
    2SAPS   C34  221   1.194   1.336   9.900 -0.0649 -0.4098  0.5828
    2SAPS   H4X  222   1.117   1.411   9.873  1.2156  1.1107  1.1133
    2SAPS   H4Y  223   1.143   1.237   9.894 -1.2160  0.1845  0.5074
    2SAPS   C35  224   1.290   1.343   9.775  0.3559 -0.3446 -0.8256
    2SAPS   H5X  225   1.376   1.275   9.793 -1.2788 -2.9179 -2.2897
    2SAPS   H5Y  226   1.322   1.449   9.772  3.4369 -1.2128 -0.3803
    2SAPS   C36  227   1.222   1.317   9.643  0.3461 -0.1700  0.7906
    2SAPS   H6X  228   1.133   1.382   9.627 -1.4950 -2.3992  1.6191
    2SAPS   H6Y  229   1.188   1.212   9.627 -1.0717  0.2293  1.1248
    2SAPS   C37  230   1.328   1.347   9.533  0.1931  0.7801 -0.4222
    2SAPS   H7X  231   1.415   1.282   9.554 -1.1346 -0.1771  2.3758
    2SAPS   H7Y  232   1.368   1.448   9.558 -0.8180  0.8935  0.8201
    2SAPS   C38  233   1.282   1.334   9.391  0.6411 -0.5247  0.0199
    2SAPS   H8X  234   1.190   1.394   9.375  0.8776 -0.1745 -0.0409
    2SAPS   H8Y  235   1.256   1.226   9.393 -0.8455 -0.2541 -2.3458
    2SAPS   C39  236   1.385   1.363   9.275 -0.2099 -0.5010 -0.3847
    2SAPS   H9X  237   1.481   1.312   9.297 -1.0883 -1.4039  1.4947
    2SAPS   H9Y  238   1.388   1.474   9.269  0.7515 -0.2521  3.1970
    2SAPS  C310  239   1.329   1.322   9.140  0.3242 -0.0985 -0.1105
    2SAPS  H10X  240   1.230   1.372   9.132  0.3369  0.2628  1.7859
    2SAPS  H10Y  241   1.338   1.212   9.125  1.3063 -0.1962  1.0937
    2SAPS  C311  242   1.414   1.368   9.024 -0.0566 -0.2788 -0.5146
    2SAPS  H11X  243   1.453   1.471   9.042  0.5878 -0.2269 -2.1044
    2SAPS  H11Y  244   1.343   1.381   8.940 -0.6277  0.5261  0.0863
    2SAPS  C312  245   1.537   1.273   8.998  0.4532 -0.4666  0.4673
    2SAPS  H12X  246   1.500   1.171   8.975 -0.3920  0.4418 -2.4007
    2SAPS  H12Y  247   1.592   1.266   9.095  2.2917  1.0787 -0.4262
    2SAPS  C313  248   1.627   1.335   8.889 -0.4737  0.0322 -0.4095
    2SAPS  H13X  249   1.657   1.440   8.905  0.4848 -0.4556  1.1351
    2SAPS  H13Y  250   1.573   1.342   8.793 -2.0696 -0.3891  0.4362
    2SAPS  C314  251   1.760   1.262   8.880 -0.4790  0.2562  0.5824
    2SAPS  H14X  252   1.747   1.174   8.813  2.2713  1.8630 -2.2362
    2SAPS  H14Y  253   1.794   1.223   8.978 -0.5221 -0.0756  0.4642
    2SAPS  C315  254   1.872   1.339   8.822 -0.3995 -0.3115 -0.2244
    2SAPS  H15X  255   1.954   1.265   8.827 -1.1963 -1.2578 -0.8760
    2SAPS  H15Y  256   1.898   1.432   8.876  1.2481 -2.7701  3.3629
    2SAPS  C316  257   1.851   1.384   8.674 -0.4411 -0.5456 -0.1952
    2SAPS  H16X  258   1.942   1.439   8.642  0.8183 -0.1294  3.8145
    2SAPS  H16Y  259   1.767   1.454   8.655 -0.5339 -0.3597  0.8954
    2SAPS  C317  260   1.831   1.270   8.579  0.2082  0.6247 -0.7416
    2SAPS  H17X  261   1.746   1.203   8.600  1.5821 -0.8864  0.1560
    2SAPS  H17Y  262   1.924   1.209   8.587  0.5688  1.1104 -1.1597
    2SAPS  C318  263   1.808   1.320   8.434 -0.4434  0.7198  0.3917
    2SAPS  H18X  264   1.757   1.236   8.383 -0.7460  0.3237  1.3359
    2SAPS  H18Y  265   1.907   1.351   8.394  0.2139  0.7541  2.0120
    2SAPS  H18Z  266   1.739   1.407   8.429 -1.4125 -0.1294 -1.4109
    3SAPS     N  267   1.385   2.588  10.999 -0.0542 -0.0458  0.1191
    3SAPS   HN1  268   1.320   2.532  11.059 -1.4583  0.0904 -1.2426
    3SAPS   HN2  269   1.346   2.594  10.903 -1.0488  1.9991  0.6072
    3SAPS   HN3  270   1.478   2.542  10.995 -0.3227 -0.5947  0.1950
    3SAPS   C12  271   1.392   2.726  11.045  0.3868  0.2520  0.1452
    3SAPS  H12A  272   1.290   2.753  11.068  0.1139 -2.5501  2.5240
    3SAPS   C13  273   1.461   2.765  11.172  0.7960  0.0191  0.1517
    3SAPS  O13A  274   1.499   2.678  11.254  0.3006 -0.4400  0.1385
    3SAPS  O13B  275   1.439   2.885  11.207  0.3330 -0.0527 -0.0509
    3SAPS   C11  276   1.441   2.816  10.926 -0.0681 -0.1657  0.2583
    3SAPS  H11A  277   1.456   2.919  10.965  1.5519 -0.2209 -0.1778
    3SAPS  H11B  278   1.366   2.828  10.845  1.0518  0.7500 -0.6644
    3SAPS     P  279   1.699   2.818  10.891  0.0029 -0.5948  0.0359
    3SAPS   O13  280   1.701   2.898  11.013  0.1223 -0.4308 -0.5784
    3SAPS   O14  281   1.804   2.710  10.892 -0.5137 -0.2210  0.1679
    3SAPS   O12  282   1.556   2.760  10.861  0.1347 -0.2349  0.2329
    3SAPS   O11  283   1.720   2.911  10.766 -0.1940 -0.0778 -0.0234
    3SAPS    C1  284   1.723   2.868  10.629 -0.0628 -0.2655  0.7020
    3SAPS    HA  285   1.828   2.861  10.595 -0.2513 -1.0148  0.2771
    3SAPS    HB  286   1.686   2.764  10.617  2.6076 -1.1537 -0.1657
    3SAPS    C2  287   1.644   2.963  10.538  0.2367  0.2982  0.2451
    3SAPS    HS  288   1.664   2.937  10.432 -1.2385  0.2286 -0.0220
    3SAPS   O21  289   1.682   3.098  10.567  0.1463  0.0043  0.3728
    3SAPS   C21  290   1.677   3.185  10.459  0.4221 -0.7393 -0.0857
    3SAPS   O22  291   1.634   3.150  10.349  0.1347  0.2380  0.5960
    3SAPS   C22  292   1.732   3.325  10.501  0.5595  0.0950  0.5693
    3SAPS   H2R  293   1.698   3.359  10.601 -0.5793 -2.0870  0.9442
    3SAPS   H2S  294   1.843   3.320  10.508  0.7181 -0.0730 -1.5903
    3SAPS    C3  295   1.489   2.945  10.557 -0.2655  0.5980  0.0756
    3SAPS    HX  296   1.433   3.024  10.502 -1.2858 -0.3162 -0.2012
    3SAPS    HY  297   1.468   2.937  10.666 -2.4452  0.2353 -0.3608
    3SAPS   O31  298   1.435   2.822  10.505 -0.1023 -0.3888 -0.0306
    3SAPS   C31  299   1.304   2.817  10.531 -0.2428  0.1534  0.1547
    3SAPS   O32  300   1.241   2.900  10.595  0.4880 -0.2707  0.4278
    3SAPS   C32  301   1.239   2.698  10.457 -0.0248 -0.2959  0.2543
    3SAPS   H2X  302   1.135   2.679  10.492 -0.5783 -0.8311 -1.6268
    3SAPS   H2Y  303   1.298   2.609  10.486 -1.4096 -1.7690 -1.3408
    3SAPS   C23  304   1.695   3.426  10.394  0.2563  0.6157  0.1076
    3SAPS   H3R  305   1.735   3.521  10.436 -1.6493  1.3406  0.3239
    3SAPS   H3S  306   1.586   3.431  10.375 -0.2306  1.0348  2.8177
    3SAPS   C24  307   1.757   3.424  10.249  0.3956  0.0420  0.0115
    3SAPS   H4R  308   1.698   3.356  10.183  1.1767  0.3649 -1.0126
    3SAPS   H4S  309   1.861   3.389  10.262  0.7175  0.9217 -0.1855
    3SAPS   C25  310   1.785   3.554  10.176  0.5943  0.0698 -0.5744
    3SAPS   H5R  311   1.774   3.639  10.245 -0.7235 -0.9528  0.5150
    3SAPS   C26  312   1.806   3.576  10.046 -0.3597  0.7231 -0.4554
    3SAPS   H6R  313   1.801   3.683  10.021  2.0127  0.8567 -0.5503
    3SAPS   C27  314   1.813   3.477   9.931  0.5065  0.0047  0.0699
    3SAPS   H7R  315   1.804   3.373   9.970 -2.3356  0.6055  1.1651
    3SAPS   H7S  316   1.913   3.484   9.883  0.5482 -1.9732 -0.1523
    3SAPS   C28  317   1.704   3.503   9.825 -0.4530  0.1770  0.3380
    3SAPS   H8R  318   1.601   3.497   9.863  0.1138  0.7051  1.9853
    3SAPS   C29  319   1.725   3.528   9.696  0.6450  0.0432  0.2588
    3SAPS   H9R  320   1.638   3.538   9.629  1.1435 -0.5996 -0.4959
    3SAPS  C210  321   1.853   3.542   9.618 -0.3849  1.0530 -0.3827
    3SAPS  H10R  322   1.855   3.456   9.547  2.7258 -0.2359  1.1531
    3SAPS  H10S  323   1.942   3.545   9.685 -1.3871 -1.9971  1.1839
    3SAPS  C211  324   1.851   3.673   9.545 -1.0101  0.4459  0.1209
    3SAPS  H11R  325   1.855   3.755   9.619  3.7204  0.2526  0.2562
    3SAPS  C212  326   1.839   3.696   9.417  0.3440  0.3371 -0.1818
    3SAPS  H12R  327   1.862   3.793   9.368  1.7765  0.1717  0.1525
    3SAPS  C213  328   1.815   3.586   9.316  0.3702 -0.0584  0.5672
    3SAPS  H13R  329   1.749   3.506   9.356  0.8177 -0.4359  0.5661
    3SAPS  H13S  330   1.913   3.533   9.313  1.6277  2.2221  0.7209
    3SAPS  C214  331   1.769   3.624   9.172  0.3542 -0.3024  0.0559
    3SAPS  H14R  332   1.663   3.651   9.172  0.7387  1.4211  2.7356
    3SAPS  C215  333   1.848   3.636   9.061  0.3424 -0.3966  0.4691
    3SAPS  H15R  334   1.789   3.642   8.969 -0.8174 -1.4074  1.1145
    3SAPS  C216  335   1.998   3.619   9.044  0.2868  0.0740 -0.3512
    3SAPS  H16R  336   2.039   3.579   9.139 -0.9767 -1.2435 -0.3325
    3SAPS  H16S  337   2.053   3.705   9.002  0.4642  0.0432 -0.1820
    3SAPS  C217  338   2.023   3.495   8.960  0.0487 -0.1608  0.0531
    3SAPS  H17R  339   1.954   3.415   8.994 -1.7504  1.0969 -0.5730
    3SAPS  H17S  340   2.123   3.452   8.984 -0.1331  0.2068  1.5210
    3SAPS  C218  341   1.993   3.526   8.813 -0.0068 -0.5219 -0.0469
    3SAPS  H18R  342   2.062   3.610   8.788 -2.2573  0.6158 -2.7393
    3SAPS  H18S  343   1.884   3.546   8.806  0.2296  0.4259 -1.1871
    3SAPS  C219  344   2.011   3.404   8.723 -0.4571 -0.2378 -1.1632
    3SAPS  H19R  345   1.976   3.312   8.773  2.0594 -0.9578 -0.6346
    3SAPS  H19S  346   2.121   3.386   8.713 -0.3793 -0.8222  0.5727
    3SAPS  C220  347   1.937   3.409   8.590  0.3683 -0.0345 -0.7930
    3SAPS  H20R  348   1.969   3.492   8.522  1.8116 -0.9115 -1.1994
    3SAPS  H20S  349   1.830   3.418   8.618  0.5373 -2.0331  0.5735
    3SAPS  H20T  350   1.967   3.313   8.543  0.9378  0.2417 -1.0084
    3SAPS   C33  351   1.241   2.709  10.300 -0.1124 -0.2519 -0.1926
    3SAPS   H3X  352   1.187   2.621  10.258  0.4777 -0.3675 -0.7191
    3SAPS   H3Y  353   1.346   2.717  10.264  0.3449 -0.0454  1.1584
    3SAPS   C34  354   1.166   2.836  10.238  0.0900 -0.0430 -0.3074
    3SAPS   H4X  355   1.082   2.876  10.299  0.7090  1.1882 -0.2430
    3SAPS   H4Y  356   1.129   2.799  10.141  2.6829 -0.4484 -1.1905
    3SAPS   C35  357   1.251   2.953  10.228 -0.3915 -0.0757  0.7436
    3SAPS   H5X  358   1.334   2.959  10.300 -1.2470  0.3976  1.7019
    3SAPS   H5Y  359   1.198   3.051  10.224 -1.3099 -0.6422 -2.6006
    3SAPS   C36  360   1.350   2.938  10.103  0.2693  0.0101 -0.1302
    3SAPS   H6X  361   1.290   2.899  10.019 -3.9369  1.8071  1.8995
    3SAPS   H6Y  362   1.433   2.863  10.104  2.0904  1.9399 -1.3110
    3SAPS   C37  363   1.423   3.070  10.079  1.0007 -0.3725  0.2488
    3SAPS   H7X  364   1.500   3.066  10.159  0.9169 -1.6125  0.2814
    3SAPS   H7Y  365   1.357   3.157  10.100  0.2964 -0.5743 -1.0537
    3SAPS   C38  366   1.486   3.073   9.941  0.0133  0.0013  0.2463
    3SAPS   H8X  367   1.540   2.980   9.914  0.3346 -0.1356  1.3162
    3SAPS   H8Y  368   1.570   3.147   9.937 -0.7214  0.7743 -1.0942
    3SAPS   C39  369   1.386   3.124   9.838 -0.5377  0.1942 -0.2109
    3SAPS   H9X  370   1.333   3.211   9.882 -2.8375 -0.3395 -1.8500
    3SAPS   H9Y  371   1.304   3.049   9.831 -1.1774  0.9725 -1.2940
    3SAPS  C310  372   1.446   3.186   9.710  0.2315 -0.7192  0.4205
    3SAPS  H10X  373   1.498   3.282   9.729 -0.2321 -0.5530  0.8719
    3SAPS  H10Y  374   1.356   3.204   9.647  0.3747  0.1149  0.4475
    3SAPS  C311  375   1.546   3.098   9.647  0.0964  0.6748 -0.8276
    3SAPS  H11X  376   1.490   3.013   9.602 -0.7046  0.2736  0.8884
    3SAPS  H11Y  377   1.623   3.057   9.715 -0.7627 -0.9070 -0.7752
    3SAPS  C312  378   1.623   3.160   9.526 -0.0695  0.0168 -0.2078
    3SAPS  H12X  379   1.711   3.096   9.505  0.7343  0.8751  0.5161
    3SAPS  H12Y  380   1.659   3.263   9.545 -1.2518  0.7333 -1.7581
    3SAPS  C313  381   1.525   3.174   9.410 -0.6274  0.1301 -0.2309
    3SAPS  H13X  382   1.458   3.261   9.426  1.4680  1.5436  1.1343
    3SAPS  H13Y  383   1.454   3.090   9.395 -0.2105 -0.1163 -0.8751
    3SAPS  C314  384   1.612   3.192   9.287  0.1803  0.9042  0.0476
    3SAPS  H14X  385   1.655   3.091   9.270 -0.7217  0.6172 -0.5935
    3SAPS  H14Y  386   1.696   3.261   9.308  1.2835 -0.5318  0.4365
    3SAPS  C315  387   1.528   3.226   9.161 -0.3948  0.0102 -0.4203
    3SAPS  H15X  388   1.467   3.318   9.177 -1.5239 -0.3208 -2.6552
    3SAPS  H15Y  389   1.460   3.140   9.143  0.4936 -1.0794  1.3101
    3SAPS  C316  390   1.621   3.249   9.040  0.9271  0.1717 -0.4959
    3SAPS  H16X  391   1.656   3.151   9.002 -0.0488  0.1421 -1.3417
    3SAPS  H16Y  392   1.707   3.316   9.062  1.5213 -0.3407 -1.2116
    3SAPS  C317  393   1.548   3.306   8.921  0.9813 -0.2836 -0.2517
    3SAPS  H17X  394   1.486   3.394   8.948  1.6427  0.6105 -1.5820
    3SAPS  H17Y  395   1.473   3.228   8.896  0.5217 -0.5083  1.7326
    3SAPS  C318  396   1.624   3.351   8.793 -0.6725  0.6301 -0.1261
    3SAPS  H18X  397   1.689   3.435   8.822 -0.8129  0.6141  0.2333
    3SAPS  H18Y  398   1.551   3.367   8.711  0.1309 -2.9904 -1.6706
    3SAPS  H18Z  399   1.698   3.278   8.752 -1.0865  0.1901 -0.0984
    4SAPS     N  400   3.939   4.287  10.809 -0.3761 -0.2112 -0.2731
    4SAPS   HN1  401   3.951   4.381  10.766  0.9286 -0.3677 -0.2604
    4SAPS   HN2  402   3.957   4.207  10.744  0.1267 -0.0720 -0.3057
    4SAPS   HN3  403   3.840   4.280  10.841  0.6235 -0.1273  3.0076
    4SAPS   C12  404   4.035   4.263  10.932 -0.2210  0.2696  0.5806
    4SAPS  H12A  405   4.033   4.359  10.981 -1.8453 -0.4773  2.0276
    4SAPS   C13  406   4.011   4.144  11.023  0.4741  0.6216  0.0109
    4SAPS  O13A  407   3.920   4.063  10.985 -0.3093 -0.3662 -0.2839
    4SAPS  O13B  408   4.094   4.114  11.110 -0.6877  0.0735 -0.1374
    4SAPS   C11  409   4.178   4.242  10.866  0.4643 -0.4598  0.8522
    4SAPS  H11A  410   4.187   4.144  10.814  1.0489  0.7899 -1.4417
    4SAPS  H11B  411   4.251   4.246  10.950  2.6622 -0.3924 -1.0214
    4SAPS     P  412   4.361   4.377  10.746 -0.3447 -0.0936 -0.0143
    4SAPS   O13  413   4.406   4.480  10.844  0.3997  0.2197  0.0891
    4SAPS   O14  414   4.433   4.247  10.751  0.6372 -0.5745 -0.2969
    4SAPS   O12  415   4.211   4.345  10.773 -0.0277  0.3840 -0.1567
    4SAPS   O11  416   4.358   4.429  10.597  0.1243 -0.2969 -0.2752
    4SAPS    C1  417   4.240   4.482  10.533 -0.0619 -0.7756  0.1544
    4SAPS    HA  418   4.175   4.406  10.486  1.7690 -1.3702 -1.4857
    4SAPS    HB  419   4.186   4.546  10.606 -2.1627 -1.3622 -0.8502
    4SAPS    C2  420   4.266   4.570  10.410  0.2260 -0.3087 -0.3321
    4SAPS    HS  421   4.172   4.592  10.354  0.1899 -1.0438 -0.5637
    4SAPS   O21  422   4.355   4.507  10.322 -0.2510 -0.2633 -0.0803
    4SAPS   C21  423   4.300   4.418  10.240 -0.0993 -0.1641 -0.3716
    4SAPS   O22  424   4.183   4.384  10.238 -0.3617 -0.7453  0.1029
    4SAPS   C22  425   4.401   4.378  10.141 -0.5510  0.2018  0.2416
    4SAPS   H2R  426   4.500   4.378  10.191 -0.3886  1.6565 -0.0428
    4SAPS   H2S  427   4.377   4.276  10.105 -0.8463  0.5424 -0.5378
    4SAPS    C3  428   4.314   4.706  10.460 -0.1184 -0.2005  0.7043
    4SAPS    HX  429   4.411   4.694  10.512  1.0809  2.7533 -0.7375
    4SAPS    HY  430   4.230   4.733  10.528 -0.4262  0.2165  0.1616
    4SAPS   O31  431   4.320   4.799  10.346  0.0446 -0.1554 -0.2262
    4SAPS   C31  432   4.215   4.878  10.326  0.5873 -0.1222  0.8658
    4SAPS   O32  433   4.101   4.866  10.378 -0.0299  0.6263  0.1088
    4SAPS   C32  434   4.232   4.974  10.205  0.0513  0.3232 -0.0415
    4SAPS   H2X  435   4.342   4.986  10.192 -0.3161  2.1314 -1.6319
    4SAPS   H2Y  436   4.190   5.073  10.231 -2.2086 -0.2671 -1.2617
    4SAPS   C23  437   4.416   4.482  10.028  0.1060 -0.1133 -0.5283
    4SAPS   H3R  438   4.512   4.456   9.978  0.4772 -0.5792  0.4200
    4SAPS   H3S  439   4.428   4.583  10.072  0.2890 -0.5587  0.4415
    4SAPS   C24  440   4.306   4.461   9.922  0.8063 -0.0913  0.4323
    4SAPS   H4R  441   4.311   4.546   9.850 -0.4353  0.1210  0.5820
    4SAPS   H4S  442   4.206   4.454   9.970  0.3921  1.7963 -0.1267
    4SAPS   C25  443   4.330   4.332   9.852 -0.8070  0.1700 -0.5130
    4SAPS   H5R  444   4.429   4.326   9.804 -2.3405  1.3169 -3.9018
    4SAPS   C26  445   4.258   4.217   9.854 -0.4214 -0.2542 -0.2021
    4SAPS   H6R  446   4.299   4.129   9.803 -1.3574  0.1003 -1.5743
    4SAPS   C27  447   4.124   4.201   9.922  0.0916  0.0561 -0.0387
    4SAPS   H7R  448   4.129   4.256  10.019  1.2789  1.5715 -0.9284
    4SAPS   H7S  449   4.103   4.098   9.956  2.1348 -1.6097 -3.5969
    4SAPS   C28  450   4.019   4.249   9.827  0.5550  0.1261 -0.5152
    4SAPS   H8R  451   4.046   4.328   9.756  0.9439 -2.4564 -3.3195
    4SAPS   C29  452   3.893   4.205   9.831  0.5132  0.7520  0.7479
    4SAPS   H9R  453   3.816   4.250   9.767  0.5908 -1.1184 -0.7309
    4SAPS  C210  454   3.842   4.100   9.926  0.2223 -0.1689 -0.6239
    4SAPS  H10R  455   3.736   4.118   9.951 -0.3765 -0.0445 -3.1558
    4SAPS  H10S  456   3.878   4.128  10.027  0.2575  1.7621 -1.1465
    4SAPS  C211  457   3.859   3.953   9.901 -0.0235  1.2392  0.2354
    4SAPS  H11R  458   3.953   3.900   9.921 -0.2464  0.3191 -1.0866
    4SAPS  C212  459   3.766   3.863   9.849 -0.1644 -0.1526 -0.4322
    4SAPS  H12R  460   3.791   3.756   9.851  0.0991 -0.0802  2.6124
    4SAPS  C213  461   3.623   3.891   9.809  0.1541  0.6125  0.2943
    4SAPS  H13R  462   3.624   3.918   9.701  0.2732  0.8396  0.3517
    4SAPS  H13S  463   3.593   3.985   9.860 -0.2479  0.9330 -0.5100
    4SAPS  C214  464   3.537   3.772   9.856  0.0586 -0.0904  0.3044
    4SAPS  H14R  465   3.494   3.790   9.956 -1.1297  2.7970 -0.6746
    4SAPS  C215  466   3.501   3.663   9.783  0.3723  0.2422 -0.0466
    4SAPS  H15R  467   3.458   3.571   9.826 -1.2477  0.5548 -0.9490
    4SAPS  C216  468   3.538   3.632   9.639  0.1825  0.8116  0.0946
    4SAPS  H16R  469   3.639   3.586   9.636 -0.2937 -0.3148  1.0647
    4SAPS  H16S  470   3.567   3.729   9.593  3.0466  0.4157  0.9865
    4SAPS  C217  471   3.437   3.561   9.549 -0.4490  0.1745  0.4037
    4SAPS  H17R  472   3.342   3.618   9.551 -2.2531 -2.7157  0.8839
    4SAPS  H17S  473   3.400   3.464   9.589 -0.1389  0.5841  1.7109
    4SAPS  C218  474   3.499   3.529   9.414  0.4256  0.5687  0.5153
    4SAPS  H18R  475   3.532   3.423   9.410 -0.8583  0.1698 -0.1111
    4SAPS  H18S  476   3.586   3.598   9.411  2.3331 -1.8054 -2.3710
    4SAPS  C219  477   3.386   3.554   9.308  0.3762  0.1053  0.5624
    4SAPS  H19R  478   3.348   3.657   9.328 -0.4713 -0.4192  1.7383
    4SAPS  H19S  479   3.299   3.490   9.337  0.3217  0.3174  0.8693
    4SAPS  C220  480   3.415   3.530   9.156 -0.2825  0.2768  0.0013
    4SAPS  H20R  481   3.421   3.420   9.139  0.8035  0.3916 -0.4136
    4SAPS  H20S  482   3.512   3.575   9.126 -0.5770 -1.1652 -3.4017
    4SAPS  H20T  483   3.335   3.578   9.094 -0.6383  0.0558  0.2841
    4SAPS   C33  484   4.176   4.912  10.070 -0.5821  0.0262  0.1694
    4SAPS   H3X  485   4.138   4.990  10.000 -0.6422 -0.9737 -0.9450
    4SAPS   H3Y  486   4.084   4.855  10.097 -0.6276 -0.4525 -0.9532
    4SAPS   C34  487   4.265   4.805  10.003  0.1921  0.1709 -0.3659
    4SAPS   H4X  488   4.209   4.753   9.922  0.5784 -0.3137 -0.3224
    4SAPS   H4Y  489   4.291   4.728  10.079 -0.7379  0.1231 -0.1015
    4SAPS   C35  490   4.397   4.865   9.944  0.2392 -0.3439  0.2119
    4SAPS   H5X  491   4.452   4.781   9.898  0.0850  1.0101 -2.5303
    4SAPS   H5Y  492   4.457   4.900  10.031  0.7778 -2.4791  0.7105
    4SAPS   C36  493   4.376   4.982   9.843  0.6649 -0.3253  0.7032
    4SAPS   H6X  494   4.385   5.079   9.897 -0.4341 -0.3810  0.9945
    4SAPS   H6Y  495   4.271   4.986   9.807  0.1556 -0.1456  2.1766
    4SAPS   C37  496   4.452   4.970   9.710 -0.3975 -0.4034 -0.4987
    4SAPS   H7X  497   4.448   4.867   9.668  0.1351  0.2363 -2.1641
    4SAPS   H7Y  498   4.560   4.985   9.731 -0.7524  1.0592  0.3322
    4SAPS   C38  499   4.409   5.079   9.615 -0.4668 -0.2268 -0.2124
    4SAPS   H8X  500   4.421   5.176   9.669 -0.2099  0.0818 -0.8135
    4SAPS   H8Y  501   4.300   5.064   9.597 -0.1997 -2.1931 -0.2736
    4SAPS   C39  502   4.496   5.076   9.488 -0.2785  0.3290  0.5039
    4SAPS   H9X  503   4.604   5.071   9.511 -0.4778  2.5060  2.0739
    4SAPS   H9Y  504   4.496   5.172   9.430 -0.7143  0.9042  1.4514
    4SAPS  C310  505   4.455   4.969   9.387 -0.5031  0.3499 -0.2400
    4SAPS  H10X  506   4.344   4.970   9.385 -0.5943 -2.5772  0.7806
    4SAPS  H10Y  507   4.483   4.870   9.431  0.1182  0.5023 -0.2876
    4SAPS  C311  508   4.539   4.980   9.257 -0.2307  0.0968 -0.8626
    4SAPS  H11X  509   4.642   4.946   9.282 -0.1288  2.3748  2.2921
    4SAPS  H11Y  510   4.518   5.087   9.233 -2.2406  0.4052  1.9705
    4SAPS  C312  511   4.480   4.892   9.160  0.5637 -0.2825  0.1561
    4SAPS  H12X  512   4.381   4.925   9.123  0.6449 -0.8893 -0.6146
    4SAPS  H12Y  513   4.476   4.785   9.190 -0.2141 -0.6171 -1.0960
    4SAPS  C313  514   4.557   4.896   9.028 -1.0425  0.7104  0.2782
    4SAPS  H13X  515   4.660   4.860   9.044 -1.4697 -0.2600  0.8899
    4SAPS  H13Y  516   4.548   5.005   9.005 -1.9528  0.4437 -0.6876
    4SAPS  C314  517   4.483   4.813   8.919 -0.8427 -0.2696  0.5801
    4SAPS  H14X  518   4.376   4.842   8.913 -1.3021 -1.1313  3.4248
    4SAPS  H14Y  519   4.489   4.706   8.948 -2.0158  0.0905  2.2969
    4SAPS  C315  520   4.555   4.833   8.782 -0.3282  0.2838 -0.0064
    4SAPS  H15X  521   4.653   4.781   8.771 -0.8640 -0.2311 -2.9024
    4SAPS  H15Y  522   4.585   4.939   8.762 -0.6203  0.3425 -0.1235
    4SAPS  C316  523   4.467   4.779   8.669 -0.3420  0.1602 -0.1688
    4SAPS  H16X  524   4.480   4.848   8.583  3.1782  1.4966  1.3533
    4SAPS  H16Y  525   4.357   4.770   8.683 -0.4198  0.6155 -0.4839
    4SAPS  C317  526   4.526   4.642   8.627  0.7213  0.0494  0.0394
    4SAPS  H17X  527   4.520   4.570   8.712  0.6876 -1.1045 -0.9264
    4SAPS  H17Y  528   4.635   4.637   8.609  0.7580 -1.2768  0.5149
    4SAPS  C318  529   4.459   4.580   8.510  0.4973 -0.0400  0.0791
    4SAPS  H18X  530   4.479   4.471   8.495  1.0290  0.4034 -2.6436
    4SAPS  H18Y  531   4.481   4.634   8.415 -1.8148 -2.7074 -2.0818
    4SAPS  H18Z  532   4.349   4.592   8.525  0.4813  1.7015 -1.2462
    5SAPS     N  533   1.205   3.039  11.227  0.0611  0.4354  0.3555
    5SAPS   HN1  534   1.304   3.008  11.217 -0.2993 -0.3542 -0.8690
    5SAPS   HN2  535   1.188   3.000  11.322  3.7590 -0.6426  0.6540
    5SAPS   HN3  536   1.146   2.981  11.164  1.1588 -1.2677  0.8509
    5SAPS   C12  537   1.173   3.185  11.237  0.3184  0.1710  0.1142
    5SAPS  H12A  538   1.076   3.195  11.284  1.3869  0.8751  2.2224
    5SAPS   C13  539   1.262   3.266  11.339 -0.4860  0.5317  0.2304
    5SAPS  O13A  540   1.335   3.207  11.426 -0.1138 -0.1383 -0.4767
    5SAPS  O13B  541   1.242   3.390  11.351  0.3504  0.6344 -0.2246
    5SAPS   C11  542   1.181   3.240  11.092 -0.0360 -0.2796 -0.2579
    5SAPS  H11A  543   1.285   3.237  11.053 -0.3353 -1.9819 -0.9668
    5SAPS  H11B  544   1.148   3.346  11.096  0.1258 -0.2103 -0.7676
    5SAPS     P  545   1.028   3.238  10.878  0.0853  0.2115 -0.1488
    5SAPS   O13  546   0.987   3.145  10.770 -0.0805 -0.4061 -0.3448
    5SAPS   O14  547   0.912   3.321  10.930 -0.4163 -0.7164 -0.3773
    5SAPS   O12  548   1.097   3.162  11.000 -0.0861  0.1459  0.1381
    5SAPS   O11  549   1.146   3.337  10.819  0.0971 -0.1309 -0.3011
    5SAPS    C1  550   1.271   3.277  10.776  0.3477  0.5322 -0.2486
    5SAPS    HA  551   1.347   3.312  10.849  1.0680 -0.3944 -0.5319
    5SAPS    HB  552   1.266   3.167  10.757 -1.6567  0.4793  0.4174
    5SAPS    C2  553   1.318   3.334  10.635  0.2577 -0.0399  0.4221
    5SAPS    HS  554   1.420   3.296  10.617 -0.6397 -1.3654 -2.1504
    5SAPS   O21  555   1.308   3.476  10.620 -0.3730 -0.1505 -0.1014
    5SAPS   C21  556   1.378   3.542  10.706 -0.5094  0.2423  0.1127
    5SAPS   O22  557   1.480   3.507  10.761 -0.0457  0.1346 -0.3179
    5SAPS   C22  558   1.331   3.688  10.709  0.0620  0.4709 -0.0007
    5SAPS   H2R  559   1.240   3.715  10.768  0.4666  2.8952 -0.4284
    5SAPS   H2S  560   1.408   3.735  10.774  1.9847 -0.9211 -1.2372
    5SAPS    C3  561   1.248   3.267  10.514 -0.3469  0.4856  0.0002
    5SAPS    HX  562   1.139   3.277  10.531 -0.6791  0.4033 -1.9492
    5SAPS    HY  563   1.265   3.157  10.521 -1.5993  0.1584 -1.7515
    5SAPS   O31  564   1.291   3.329  10.386 -0.1009  0.0018 -0.1046
    5SAPS   C31  565   1.233   3.450  10.353 -0.0543 -0.7475 -0.3796
    5SAPS   O32  566   1.140   3.499  10.408  0.0422 -0.1934 -0.4271
    5SAPS   C32  567   1.307   3.510  10.226  0.0964  0.3234 -0.6059
    5SAPS   H2X  568   1.267   3.448  10.143  2.7826 -0.7321 -1.1622
    5SAPS   H2Y  569   1.413   3.478  10.234 -0.2639 -0.9317 -0.7368
    5SAPS   C23  570   1.335   3.766  10.580  0.1430  0.1187  0.1752
    5SAPS   H3R  571   1.292   3.695  10.507 -0.7337 -0.1642  0.9655
    5SAPS   H3S  572   1.440   3.788  10.548  0.1433 -1.5158 -1.0110
    5SAPS   C24  573   1.243   3.889  10.588  0.1438  0.5088  0.2335
    5SAPS   H4R  574   1.285   3.960  10.514 -1.5558  0.6358 -0.6426
    5SAPS   H4S  575   1.242   3.939  10.688  1.8919  3.1087 -0.9912
    5SAPS   C25  576   1.102   3.861  10.548 -0.1363 -0.0615  0.0620
    5SAPS   H5R  577   1.048   3.806  10.626 -1.9933  1.9605  0.2436
    5SAPS   C26  578   1.032   3.906  10.442 -0.7699 -0.2122 -0.2578
    5SAPS   H6R  579   0.931   3.866  10.423 -1.6261  1.7560  0.0151
    5SAPS   C27  580   1.090   4.006  10.336  0.2462 -0.1282 -0.0267
    5SAPS   H7R  581   1.165   3.965  10.265 -0.5495 -1.6758  0.0203
    5SAPS   H7S  582   1.141   4.087  10.393  0.0838 -0.2927  0.3517
    5SAPS   C28  583   0.972   4.068  10.259 -0.1529  0.0796  0.0266
    5SAPS   H8R  584   0.883   4.094  10.319  0.0252  0.5277  0.0940
    5SAPS   C29  585   0.963   4.095  10.119 -1.1091 -0.2064 -0.1733
    5SAPS   H9R  586   0.871   4.146  10.087 -0.7106 -0.0700 -1.1210
    5SAPS  C210  587   1.076   4.084  10.015 -0.6007 -0.0878  0.5022
    5SAPS  H10R  588   1.154   4.013  10.049  0.9562  1.6513  0.6394
    5SAPS  H10S  589   1.125   4.183  10.018  2.7146 -1.6013 -1.0302
    5SAPS  C211  590   1.035   4.039   9.884  1.0418 -0.0861 -0.8150
    5SAPS  H11R  591   0.972   3.949   9.885  0.3509  0.3997  1.1149
    5SAPS  C212  592   1.082   4.094   9.768  0.0935  0.7117 -0.1662
    5SAPS  H12R  593   1.042   4.055   9.672 -1.6460 -0.2067  0.8918
    5SAPS  C213  594   1.169   4.212   9.752  0.2432  0.5221 -0.6605
    5SAPS  H13R  595   1.272   4.176   9.731 -0.3982 -3.2417  2.1801
    5SAPS  H13S  596   1.174   4.280   9.840 -2.4060 -1.0505  0.7795
    5SAPS  C214  597   1.127   4.297   9.633 -0.1667  0.3178 -0.8446
    5SAPS  H14R  598   1.058   4.382   9.646  0.4201  0.5692  0.6674
    5SAPS  C215  599   1.189   4.302   9.509  0.9481 -0.3855 -0.0417
    5SAPS  H15R  600   1.144   4.352   9.422  1.9554  0.5876 -0.0181
    5SAPS  C216  601   1.293   4.209   9.468  0.2565 -0.8414 -0.3057
    5SAPS  H16R  602   1.329   4.147   9.553  1.5561 -0.1131 -0.3161
    5SAPS  H16S  603   1.376   4.275   9.437 -0.0903 -0.4296 -0.3596
    5SAPS  C217  604   1.251   4.116   9.354 -0.2677  0.0883 -0.2665
    5SAPS  H17R  605   1.166   4.050   9.381 -2.2281  1.8602 -1.9680
    5SAPS  H17S  606   1.341   4.051   9.344 -1.9172 -2.0410 -1.8222
    5SAPS  C218  607   1.225   4.190   9.219  0.1735  0.0814 -0.1588
    5SAPS  H18R  608   1.188   4.108   9.154 -1.3238 -0.9634  1.9823
    5SAPS  H18S  609   1.144   4.266   9.229  0.0700 -0.3220  2.5016
    5SAPS  C219  610   1.335   4.271   9.148 -0.1840  0.0243  0.0828
    5SAPS  H19R  611   1.405   4.313   9.223  1.3738 -0.5281 -1.0296
    5SAPS  H19S  612   1.299   4.354   9.083  0.7698 -0.7048 -1.4277
    5SAPS  C220  613   1.430   4.186   9.051  0.1964 -0.4832 -0.4643
    5SAPS  H20R  614   1.484   4.108   9.108  0.0490 -1.4627 -1.6592
    5SAPS  H20S  615   1.501   4.257   9.003 -0.1391  0.8139  0.9343
    5SAPS  H20T  616   1.373   4.132   8.973 -2.0424  1.2639 -0.0918
    5SAPS   C33  617   1.291   3.666  10.209  0.0164 -0.5412  0.8604
    5SAPS   H3X  618   1.319   3.722  10.302  0.4446  2.0046 -0.7524
    5SAPS   H3Y  619   1.186   3.699  10.192  0.0808 -1.2923 -1.0025
    5SAPS   C34  620   1.355   3.728  10.085 -0.4372  0.0871  0.1727
    5SAPS   H4X  621   1.463   3.713  10.066 -0.9859  0.2664 -3.6124
    5SAPS   H4Y  622   1.353   3.838  10.099  0.3842  0.6906 -3.8852
    5SAPS   C35  623   1.275   3.702   9.954 -0.4797  0.0633 -0.1835
    5SAPS   H5X  624   1.174   3.747   9.972  0.3894  1.8161  0.3999
    5SAPS   H5Y  625   1.250   3.595   9.936 -2.2347 -0.1681  3.1513
    5SAPS   C36  626   1.323   3.783   9.836  0.6277  0.1453 -0.1325
    5SAPS   H6X  627   1.351   3.886   9.865  0.4002  0.1415  0.0995
    5SAPS   H6Y  628   1.235   3.794   9.769  0.6012 -3.2091 -0.7713
    5SAPS   C37  629   1.440   3.727   9.754  0.2767 -0.3100  0.0511
    5SAPS   H7X  630   1.423   3.619   9.738  1.1368 -0.3704 -0.5490
    5SAPS   H7Y  631   1.533   3.725   9.814  0.7881  1.1649 -0.6537
    5SAPS   C38  632   1.477   3.807   9.628 -0.1210 -0.4193 -0.4083
    5SAPS   H8X  633   1.582   3.777   9.610  0.1897  0.4670 -0.0770
    5SAPS   H8Y  634   1.478   3.917   9.642  0.2359 -0.5642  0.7930
    5SAPS   C39  635   1.380   3.777   9.509  0.3865 -0.0232  0.2448
    5SAPS   H9X  636   1.434   3.835   9.431  0.6342 -0.4549  0.0991
    5SAPS   H9Y  637   1.279   3.817   9.534 -0.1739 -0.7284 -0.8662
    5SAPS  C310  638   1.373   3.636   9.456  0.2126  0.3537 -0.2131
    5SAPS  H10X  639   1.337   3.577   9.543 -3.8099  2.4799 -0.3170
    5SAPS  H10Y  640   1.478   3.605   9.435  0.8760  1.1017  1.7407
    5SAPS  C311  641   1.275   3.611   9.346  0.3315 -0.7332  0.1909
    5SAPS  H11X  642   1.168   3.623   9.373  0.2968  2.3439 -1.1534
    5SAPS  H11Y  643   1.298   3.505   9.322 -0.1292 -0.5065 -1.2847
    5SAPS  C312  644   1.311   3.693   9.221  0.8876  0.3207 -0.8628
    5SAPS  H12X  645   1.416   3.665   9.194 -0.0470 -2.7797 -1.5384
    5SAPS  H12Y  646   1.314   3.803   9.232 -1.4780  0.1113  2.5720
    5SAPS  C313  647   1.222   3.670   9.096  0.0332 -0.2380 -0.0206
    5SAPS  H13X  648   1.115   3.661   9.124  0.1054 -0.0168  0.3188
    5SAPS  H13Y  649   1.242   3.570   9.052 -0.2369 -0.7599  1.0469
    5SAPS  C314  650   1.251   3.761   8.972  0.1754 -0.7512 -0.3066
    5SAPS  H14X  651   1.186   3.850   8.987  1.0317 -0.6638  3.2163
    5SAPS  H14Y  652   1.201   3.712   8.885 -0.1417 -0.3922 -0.3280
    5SAPS  C315  653   1.398   3.767   8.941 -0.0941 -0.1062 -0.1637
    5SAPS  H15X  654   1.440   3.664   8.934 -2.3883 -0.9368 -2.3816
    5SAPS  H15Y  655   1.438   3.825   9.027  0.7238  1.2089 -1.3816
    5SAPS  C316  656   1.429   3.824   8.803  0.2790 -0.2795  0.2051
    5SAPS  H16X  657   1.375   3.920   8.785 -0.1786 -0.8303 -1.4287
    5SAPS  H16Y  658   1.394   3.757   8.722 -0.8536 -0.7599  1.0720
    5SAPS  C317  659   1.579   3.847   8.785 -0.1790 -0.2970  0.1975
    5SAPS  H17X  660   1.622   3.751   8.749 -0.2963  0.3022 -1.5940
    5SAPS  H17Y  661   1.630   3.877   8.880 -0.9116  0.6961  0.2839
    5SAPS  C318  662   1.606   3.947   8.671  0.4623  0.2598 -0.0486
    5SAPS  H18X  663   1.708   3.981   8.642  0.4952  0.1150 -0.0971
    5SAPS  H18Y  664   1.559   4.041   8.708 -2.6888 -1.8391  1.4640
    5SAPS  H18Z  665   1.555   3.921   8.576  1.8272 -1.4561 -0.3266
    6SAPS     N  666   0.988   2.869  10.784 -0.2337  0.2816  0.7296
    6SAPS   HN1  667   0.966   2.971  10.782  2.0576  0.8097  0.9817
    6SAPS   HN2  668   1.087   2.866  10.817 -0.5579 -2.3853  1.5422
    6SAPS   HN3  669   0.968   2.827  10.691 -1.7070 -1.7041  1.9222
    6SAPS   C12  670   0.902   2.810  10.885 -0.2674 -0.6297 -0.4871
    6SAPS  H12A  671   0.889   2.710  10.847 -0.1791  0.2657 -2.9596
    6SAPS   C13  672   0.968   2.814  11.033  0.0505 -0.4696  0.2632
    6SAPS  O13A  673   1.081   2.856  11.059 -0.0107  0.3778  0.2282
    6SAPS  O13B  674   0.895   2.779  11.123 -0.2400 -0.3983  0.5504
    6SAPS   C11  675   0.766   2.893  10.893 -0.0675 -0.1477 -0.2248
    6SAPS  H11A  676   0.796   2.994  10.928 -1.3455 -0.1754  1.0043
    6SAPS  H11B  677   0.698   2.859  10.974 -0.6922  0.1192 -0.6295
    6SAPS     P  678   0.550   2.959  10.758  0.3129  0.2701  0.0278
    6SAPS   O13  679   0.525   3.038  10.883  0.3761 -0.1682  0.4181
    6SAPS   O14  680   0.521   3.023  10.626 -0.7578  0.5070 -0.3289
    6SAPS   O12  681   0.701   2.906  10.766  0.7108  0.4235  0.3135
    6SAPS   O11  682   0.476   2.815  10.771  0.6413 -0.1555  0.0785
    6SAPS    C1  683   0.488   2.729  10.652  0.7299  0.3423 -0.2821
    6SAPS    HA  684   0.572   2.755  10.583 -0.6485  2.0502 -1.3450
    6SAPS    HB  685   0.506   2.624  10.684  0.8461  0.6958  0.8170
    6SAPS    C2  686   0.351   2.724  10.564  0.3100  0.2710 -0.4343
    6SAPS    HS  687   0.353   2.626  10.511  1.0806  0.5294 -0.8893
    6SAPS   O21  688   0.338   2.839  10.477 -0.3780  0.5400 -0.2012
    6SAPS   C21  689   0.422   2.839  10.373  0.0461 -0.4589 -0.1905
    6SAPS   O22  690   0.510   2.758  10.347 -0.4998  0.2697  0.0807
    6SAPS   C22  691   0.376   2.956  10.286  0.3442  0.0458 -0.6745
    6SAPS   H2R  692   0.271   2.986  10.306  0.3567  0.1759 -0.8016
    6SAPS   H2S  693   0.453   3.036  10.296 -0.1091  0.4525 -0.4439
    6SAPS    C3  694   0.225   2.723  10.650 -0.4250 -0.2017 -0.0721
    6SAPS    HX  695   0.224   2.820  10.704 -0.0514  0.1164 -0.6288
    6SAPS    HY  696   0.236   2.650  10.733  0.9011  1.0658  0.8830
    6SAPS   O31  697   0.109   2.705  10.568  0.6984  0.1092 -0.0267
    6SAPS   C31  698   0.061   2.583  10.552 -0.1498  0.6280 -0.1962
    6SAPS   O32  699   0.125   2.483  10.590  0.1246  0.2544  0.9441
    6SAPS   C32  700  -0.069   2.581  10.475  0.3128  0.2531 -0.4612
    6SAPS   H2X  701  -0.061   2.652  10.390  1.2935  0.0708 -0.5229
    6SAPS   H2Y  702  -0.150   2.627  10.536 -1.3679 -2.1995 -0.7636
    6SAPS   C23  703   0.389   2.934  10.130  0.2424 -0.7549  0.5644
    6SAPS   H3R  704   0.303   2.872  10.099 -0.7320  1.0216 -0.3636
    6SAPS   H3S  705   0.487   2.883  10.122  0.4260 -0.2223 -0.6797
    6SAPS   C24  706   0.389   3.074  10.048  0.0710  0.6793 -0.5677
    6SAPS   H4R  707   0.297   3.131  10.073  0.5447  1.1737  0.0496
    6SAPS   H4S  708   0.373   3.041   9.943  0.1226 -1.6088  0.1302
    6SAPS   C25  709   0.506   3.164  10.061  0.4960  0.2963 -0.7588
    6SAPS   H5R  710   0.535   3.186  10.165 -1.8358  1.5535 -0.3477
    6SAPS   C26  711   0.577   3.212   9.959 -0.1181 -0.0305 -0.2897
    6SAPS   H6R  712   0.663   3.280   9.966 -0.3270  0.1676  0.4228
    6SAPS   C27  713   0.552   3.179   9.812 -0.3376 -0.2680 -0.4287
    6SAPS   H7R  714   0.615   3.240   9.744  1.1547 -1.3749 -0.0617
    6SAPS   H7S  715   0.447   3.199   9.784 -1.0297 -1.4308  1.2197
    6SAPS   C28  716   0.586   3.042   9.772 -0.1346  0.1861 -0.1255
    6SAPS   H8R  717   0.594   2.978   9.861 -0.2774  0.8604  0.3739
    6SAPS   C29  718   0.619   2.991   9.641  0.9718  0.4808  0.1918
    6SAPS   H9R  719   0.640   2.884   9.629  1.6389  0.6528 -0.2403
    6SAPS  C210  720   0.625   3.069   9.515  0.7825 -0.4641 -0.3911
    6SAPS  H10R  721   0.715   3.031   9.462  1.3387  0.4404 -0.1111
    6SAPS  H10S  722   0.648   3.178   9.521  1.4518 -0.5598 -1.1809
    6SAPS  C211  723   0.499   3.054   9.438  0.7470 -0.3338  0.0550
    6SAPS  H11R  724   0.409   3.054   9.501  0.7909 -1.8982  0.1402
    6SAPS  C212  725   0.496   3.072   9.305  0.5264  0.7289  0.8515
    6SAPS  H12R  726   0.401   3.032   9.267  0.4644  0.4360  1.3078
    6SAPS  C213  727   0.608   3.096   9.204  0.4295  0.5619 -0.0981
    6SAPS  H13R  728   0.635   3.002   9.151  1.9071  1.8371 -1.6390
    6SAPS  H13S  729   0.699   3.112   9.266  1.0773  1.0929 -1.1759
    6SAPS  C214  730   0.602   3.216   9.117  0.5709 -0.5937 -0.2147
    6SAPS  H14R  731   0.589   3.311   9.172 -0.8731  0.2171 -1.9243
    6SAPS  C215  732   0.610   3.223   8.987 -0.4149  0.3545 -0.1364
    6SAPS  H15R  733   0.620   3.326   8.948 -0.5867  0.3317 -0.2392
    6SAPS  C216  734   0.609   3.107   8.885  0.3056 -0.2729 -0.2562
    6SAPS  H16R  735   0.513   3.118   8.829  0.6189 -1.2996 -1.0217
    6SAPS  H16S  736   0.602   3.014   8.945 -0.6261 -0.0503 -0.0082
    6SAPS  C217  737   0.740   3.095   8.799  0.4376  1.0209  0.0453
    6SAPS  H17R  738   0.720   3.012   8.728  1.4940  2.1313 -1.5759
    6SAPS  H17S  739   0.833   3.079   8.858  1.7092 -0.9032 -2.3786
    6SAPS  C218  740   0.766   3.200   8.690  0.1048  0.1185 -0.2450
    6SAPS  H18R  741   0.870   3.193   8.652  0.0165 -2.6685 -0.0796
    6SAPS  H18S  742   0.757   3.294   8.749 -0.6656  0.2521 -0.5792
    6SAPS  C219  743   0.673   3.201   8.568  0.6247 -0.1327  0.0944
    6SAPS  H19R  744   0.594   3.124   8.582  0.9842 -0.3248  1.1486
    6SAPS  H19S  745   0.735   3.185   8.477 -1.4354  0.1862 -1.4017
    6SAPS  C220  746   0.611   3.334   8.549  0.4674  0.4168  0.0979
    6SAPS  H20R  747   0.697   3.402   8.568 -1.7327  2.9681  1.3315
    6SAPS  H20S  748   0.539   3.355   8.631  1.3478 -0.0423  0.9930
    6SAPS  H20T  749   0.571   3.349   8.447 -0.0996  1.1898  0.4258
    6SAPS   C33  750  -0.121   2.445  10.421 -0.2038  0.6797 -0.8908
    6SAPS   H3X  751  -0.050   2.398  10.350 -1.5649 -1.1129 -1.0994
    6SAPS   H3Y  752  -0.221   2.471  10.380 -0.7357  1.5094  0.8522
    6SAPS   C34  753  -0.146   2.332  10.521  0.2888  0.5179  0.2306
    6SAPS   H4X  754  -0.194   2.371  10.613 -0.8850 -0.2293 -0.0571
    6SAPS   H4Y  755  -0.046   2.295  10.552  0.2030 -0.4447 -0.6194
    6SAPS   C35  756  -0.228   2.210  10.465  0.3381  0.4057 -0.2758
    6SAPS   H5X  757  -0.338   2.222  10.478  0.1363  1.0602 -2.4886
    6SAPS   H5Y  758  -0.191   2.126  10.529 -1.8690 -0.5123 -0.1576
    6SAPS   C36  759  -0.190   2.148  10.326  0.2744 -0.1020  0.0119
    6SAPS   H6X  760  -0.194   2.228  10.249 -0.7705 -0.5411 -0.4110
    6SAPS   H6Y  761  -0.255   2.061  10.300  0.4060 -0.7477  1.7901
    6SAPS   C37  762  -0.049   2.095  10.331 -0.0770 -0.1335  0.4761
    6SAPS   H7X  763  -0.048   2.012  10.405 -0.8643 -0.5465  0.0397
    6SAPS   H7Y  764   0.023   2.165  10.378  0.0820 -1.3893  2.1539
    6SAPS   C38  765   0.017   2.052  10.198  0.8607  0.0362  0.4890
    6SAPS   H8X  766  -0.015   1.958  10.148 -1.3511  1.6594 -1.2675
    6SAPS   H8Y  767   0.119   2.029  10.235  1.0481  1.3059  0.7798
    6SAPS   C39  768   0.019   2.156  10.090  0.1267  0.2016  0.3510
    6SAPS   H9X  769   0.062   2.255  10.114  1.0385  0.2663 -1.4073
    6SAPS   H9Y  770  -0.090   2.168  10.069  0.5949  0.6166 -2.0660
    6SAPS  C310  771   0.063   2.118   9.945  0.6115 -0.1941 -0.2726
    6SAPS  H10X  772  -0.001   2.034   9.910  0.7674 -0.7425  0.7312
    6SAPS  H10Y  773   0.169   2.083   9.949  0.4449 -0.9582 -2.3898
    6SAPS  C311  774   0.044   2.233   9.851  0.5204  0.2336 -0.2206
    6SAPS  H11X  775   0.080   2.328   9.895  2.8745 -0.2651 -0.9957
    6SAPS  H11Y  776  -0.066   2.249   9.842  0.3603  0.9431  2.4562
    6SAPS  C312  777   0.104   2.201   9.711  0.9627 -0.4104 -0.0914
    6SAPS  H12X  778   0.053   2.110   9.672 -0.9125  1.8663 -3.1930
    6SAPS  H12Y  779   0.215   2.195   9.705  1.1636 -0.0725  2.7939
    6SAPS  C313  780   0.066   2.315   9.602 -0.0271  0.2603  0.6087
    6SAPS  H13X  781   0.124   2.404   9.634 -2.1747  0.8575  2.9717
    6SAPS  H13Y  782  -0.044   2.328   9.608 -0.1024 -0.4644  0.8266
    6SAPS  C314  783   0.119   2.290   9.458  0.0588  0.3493 -0.2616
    6SAPS  H14X  784   0.112   2.188   9.415 -0.2811  0.2366  0.0557
    6SAPS  H14Y  785   0.228   2.308   9.458  0.1352 -0.0755 -0.9655
    6SAPS  C315  786   0.041   2.371   9.354 -0.7682 -0.4812  0.4415
    6SAPS  H15X  787   0.022   2.475   9.387 -1.8037 -1.5473  3.4320
    6SAPS  H15Y  788  -0.054   2.317   9.337  0.9067 -3.2497 -0.4151
    6SAPS  C316  789   0.110   2.367   9.218  0.5771 -0.3964 -0.6788
    6SAPS  H16X  790   0.219   2.374   9.236  0.2583  0.9251  0.8532
    6SAPS  H16Y  791   0.082   2.452   9.151 -0.4845 -2.6628 -3.1978
    6SAPS  C317  792   0.096   2.237   9.154 -0.0990  0.0811 -0.1972
    6SAPS  H17X  793  -0.009   2.202   9.146 -0.5240  1.2871 -0.0675
    6SAPS  H17Y  794   0.153   2.160   9.210  1.6355 -0.4305 -2.5799
    6SAPS  C318  795   0.160   2.224   9.019  0.1762 -0.0609 -0.1634
    6SAPS  H18X  796   0.178   2.118   8.991 -0.9837 -0.2771 -0.1104
    6SAPS  H18Y  797   0.253   2.282   9.000  0.6465 -0.7227  0.0870
    6SAPS  H18Z  798   0.082   2.252   8.946  0.3093 -1.7961 -0.9950
    7SAPS     N  799   2.960   3.823  10.769 -0.4490 -0.3091 -0.0038
    7SAPS   HN1  800   3.031   3.751  10.795 -0.3660 -0.3322 -0.2871
    7SAPS   HN2  801   2.873   3.773  10.742 -1.8991  0.2414  3.4817
    7SAPS   HN3  802   3.008   3.865  10.687  0.1794  1.2794  1.1450
    7SAPS   C12  803   2.953   3.929  10.874 -0.2239 -0.0298 -0.4563
    7SAPS  H12A  804   2.873   3.906  10.943  0.8667  0.2338  0.9061
    7SAPS   C13  805   3.081   3.921  10.960  0.8219 -0.4284 -0.8222
    7SAPS  O13A  806   3.146   3.815  10.957  0.4033 -0.4587 -0.3155
    7SAPS  O13B  807   3.099   4.008  11.044  0.2521 -0.4952 -0.0055
    7SAPS   C11  808   2.927   4.074  10.822 -0.9186 -0.4012  0.0595
    7SAPS  H11A  809   3.022   4.088  10.766 -0.5024 -2.2137  0.2806
    7SAPS  H11B  810   2.921   4.159  10.893 -0.7637  1.0712 -1.6609
    7SAPS     P  811   2.698   4.143  10.737  0.0535 -0.5881 -0.4395
    7SAPS   O13  812   2.625   4.098  10.859 -0.0249  0.4136  0.6946
    7SAPS   O14  813   2.725   4.288  10.736 -0.9669 -0.2685  0.4369
    7SAPS   O12  814   2.831   4.072  10.723 -0.7779  0.0705  0.6425
    7SAPS   O11  815   2.626   4.092  10.596  0.0507  0.5056 -0.0212
    7SAPS    C1  816   2.622   3.950  10.559 -0.0603 -0.2770  0.1918
    7SAPS    HA  817   2.719   3.929  10.509  0.0318  1.4648 -0.3862
    7SAPS    HB  818   2.619   3.882  10.646  2.8974 -1.1741 -0.3493
    7SAPS    C2  819   2.510   3.930  10.466 -0.3433  0.3210  0.3514
    7SAPS    HS  820   2.510   3.826  10.427  2.3999 -0.4568  2.2538
    7SAPS   O21  821   2.504   4.034  10.354  0.3250  0.4287 -1.2259
    7SAPS   C21  822   2.607   4.010  10.272  0.4251 -0.0096 -0.0847
    7SAPS   O22  823   2.666   3.904  10.267 -0.2133  0.3462 -0.2246
    7SAPS   C22  824   2.631   4.134  10.185  0.1112 -0.4302  0.2915
    7SAPS   H2R  825   2.552   4.210  10.206  0.9992  0.6683 -0.2614
    7SAPS   H2S  826   2.727   4.172  10.226  0.9087  2.0184 -3.5652
    7SAPS    C3  827   2.370   3.942  10.542  0.1078 -0.1951 -0.5233
    7SAPS    HX  828   2.360   4.046  10.578  0.9606 -0.1123 -0.5320
    7SAPS    HY  829   2.375   3.864  10.621  1.3180  0.2748 -0.1207
    7SAPS   O31  830   2.270   3.913  10.434 -0.0821 -0.4538 -0.1955
    7SAPS   C31  831   2.218   3.790  10.425  0.5023 -0.2757  0.6382
    7SAPS   O32  832   2.237   3.691  10.489  0.2371 -0.1065 -0.4512
    7SAPS   C32  833   2.120   3.794  10.307 -0.0929 -0.0898 -0.0362
    7SAPS   H2X  834   2.032   3.855  10.338 -1.2353 -1.7273 -0.0198
    7SAPS   H2Y  835   2.075   3.693  10.303  0.9279 -0.5969  1.0984
    7SAPS   C23  836   2.629   4.107  10.037 -0.2688 -0.2700  0.6743
    7SAPS   H3R  837   2.681   4.011  10.017 -0.5148  0.1020 -1.9499
    7SAPS   H3S  838   2.668   4.191   9.975 -1.1830  0.6805  1.3601
    7SAPS   C24  839   2.483   4.092   9.984 -0.0681 -0.5686 -1.0656
    7SAPS   H4R  840   2.420   4.183   9.987  1.7884  0.7639 -1.7455
    7SAPS   H4S  841   2.428   4.014  10.040  2.3591 -0.5926  1.3922
    7SAPS   C25  842   2.492   4.042   9.842 -0.1649 -0.8355 -0.3569
    7SAPS   H5R  843   2.510   3.936   9.819 -0.5142 -0.6992 -1.2678
    7SAPS   C26  844   2.475   4.118   9.734 -0.5030  0.7973 -0.1938
    7SAPS   H6R  845   2.489   4.078   9.632 -0.5969 -0.8872  0.4461
    7SAPS   C27  846   2.439   4.265   9.727 -0.4329 -0.8268 -0.0661
    7SAPS   H7R  847   2.518   4.319   9.670 -1.2403  0.3487 -0.1117
    7SAPS   H7S  848   2.435   4.314   9.827 -0.0894  0.5081 -0.6916
    7SAPS   C28  849   2.308   4.281   9.662  0.3334 -0.0644 -0.2331
    7SAPS   H8R  850   2.217   4.261   9.721 -0.1532 -1.5416 -1.4395
    7SAPS   C29  851   2.285   4.306   9.532  0.3754 -0.2920 -0.3363
    7SAPS   H9R  852   2.186   4.299   9.483 -0.0969  0.7123  0.4717
    7SAPS  C210  853   2.383   4.339   9.425  0.3051  0.5118  0.0996
    7SAPS  H10R  854   2.482   4.359   9.469  0.8264 -2.6608  0.5336
    7SAPS  H10S  855   2.359   4.441   9.388 -2.4273  0.3227  1.1711
    7SAPS  C211  856   2.396   4.234   9.320 -0.8985  0.0676 -0.1017
    7SAPS  H11R  857   2.407   4.135   9.366 -1.2362  0.4348  0.7707
    7SAPS  C212  858   2.393   4.237   9.195  0.0672  0.6612 -0.4702
    7SAPS  H12R  859   2.398   4.137   9.150 -0.3567  0.0822  0.7272
    7SAPS  C213  860   2.382   4.364   9.112 -0.9917  0.3968  0.1946
    7SAPS  H13R  861   2.339   4.450   9.168 -1.9340  0.3454 -0.4340
    7SAPS  H13S  862   2.306   4.352   9.032 -0.7613  0.0267  0.0286
    7SAPS  C214  863   2.526   4.397   9.065 -0.2186  0.6335 -0.3889
    7SAPS  H14R  864   2.609   4.385   9.137 -0.9168 -1.7879  0.0548
    7SAPS  C215  865   2.562   4.426   8.939  0.0079 -0.0897 -0.6899
    7SAPS  H15R  866   2.665   4.458   8.922  0.0436  0.4418  0.5419
    7SAPS  C216  867   2.466   4.453   8.829 -0.0638  0.2583 -0.1485
    7SAPS  H16R  868   2.489   4.542   8.766 -1.1514 -0.4304 -1.5512
    7SAPS  H16S  869   2.372   4.489   8.874  1.1352  2.2459  0.8751
    7SAPS  C217  870   2.423   4.331   8.748 -0.1190  0.3851  0.9276
    7SAPS  H17R  871   2.343   4.373   8.683  0.9198  2.6268  1.0614
    7SAPS  H17S  872   2.395   4.244   8.812  1.8953 -0.3188  0.8591
    7SAPS  C218  873   2.543   4.285   8.659  0.1896  0.9611  0.2773
    7SAPS  H18R  874   2.630   4.242   8.714  1.0436  0.1230 -1.6864
    7SAPS  H18S  875   2.592   4.361   8.595  1.8465 -0.9639 -0.8167
    7SAPS  C219  876   2.490   4.179   8.567 -0.0276  0.1097  0.3702
    7SAPS  H19R  877   2.423   4.234   8.497  3.1870  3.1375 -0.4618
    7SAPS  H19S  878   2.428   4.111   8.629 -0.2890  2.3558  2.6469
    7SAPS  C220  879   2.605   4.115   8.484  0.0284 -0.4068  0.0665
    7SAPS  H20R  880   2.677   4.193   8.448 -1.4650  0.9475 -0.0285
    7SAPS  H20S  881   2.567   4.058   8.397 -3.5902  2.7775 -0.5512
    7SAPS  H20T  882   2.666   4.053   8.554 -0.6667 -0.6649  0.4480
    7SAPS   C33  883   2.178   3.840  10.169  0.5757 -0.5628 -0.2815
    7SAPS   H3X  884   2.280   3.798  10.157  0.3556 -0.1503 -4.2532
    7SAPS   H3Y  885   2.184   3.951  10.163  0.0490 -0.6044 -2.0007
    7SAPS   C34  886   2.094   3.786  10.042  0.5156 -0.3650 -0.7270
    7SAPS   H4X  887   1.993   3.833  10.039  0.3280 -0.7622 -0.6533
    7SAPS   H4Y  888   2.085   3.676  10.051  0.4055 -0.3079 -0.1101
    7SAPS   C35  889   2.166   3.807   9.913  0.4123  0.7336  0.5884
    7SAPS   H5X  890   2.270   3.768   9.914 -0.0126 -0.5513 -1.1930
    7SAPS   H5Y  891   2.170   3.917   9.899  0.8131  0.4039 -2.3469
    7SAPS   C36  892   2.087   3.742   9.801 -0.2506 -0.1468  0.0784
    7SAPS   H6X  893   1.989   3.788   9.779  0.8499  1.2475 -2.0506
    7SAPS   H6Y  894   2.068   3.636   9.828  0.8355  0.0907  1.9235
    7SAPS   C37  895   2.169   3.742   9.669  0.7191  0.0487  0.8524
    7SAPS   H7X  896   2.128   3.665   9.601 -2.2434  1.7500  0.6507
    7SAPS   H7Y  897   2.279   3.725   9.679  0.9745 -0.7089 -2.6015
    7SAPS   C38  898   2.144   3.879   9.594 -0.0254 -0.1611  0.2088
    7SAPS   H8X  899   2.167   3.958   9.669 -0.0811 -0.1154  0.1765
    7SAPS   H8Y  900   2.036   3.886   9.569 -0.0476 -1.1975 -0.0265
    7SAPS   C39  901   2.247   3.908   9.487  0.4306 -0.3060 -0.5887
    7SAPS   H9X  902   2.346   3.878   9.528  0.4448 -0.0003 -0.4036
    7SAPS   H9Y  903   2.250   4.016   9.461  2.1286  0.5404  2.9057
    7SAPS  C310  904   2.234   3.822   9.358  0.2358 -0.0481  0.0735
    7SAPS  H10X  905   2.130   3.797   9.330  0.4408 -0.5812 -0.2263
    7SAPS  H10Y  906   2.286   3.724   9.363 -0.2213 -0.3263 -0.5227
    7SAPS  C311  907   2.302   3.895   9.241 -0.2034  0.2946  0.0683
    7SAPS  H11X  908   2.402   3.928   9.277 -0.3677  0.4771  0.3524
    7SAPS  H11Y  909   2.254   3.990   9.212 -2.1204 -1.0524 -1.2785
    7SAPS  C312  910   2.333   3.813   9.113  0.1771  0.4491  0.2188
    7SAPS  H12X  911   2.241   3.826   9.051 -0.3837 -1.2783  0.6674
    7SAPS  H12Y  912   2.334   3.704   9.132  1.4053 -0.3896 -3.9522
    7SAPS  C313  913   2.457   3.860   9.034  0.6606  0.1405 -0.3994
    7SAPS  H13X  914   2.553   3.849   9.089  1.0559  0.2474 -1.0542
    7SAPS  H13Y  915   2.436   3.966   9.008  2.1749  0.3924 -0.6699
    7SAPS  C314  916   2.485   3.787   8.903  0.2106  0.2842 -0.4275
    7SAPS  H14X  917   2.383   3.783   8.860 -0.1708  0.5535  0.4279
    7SAPS  H14Y  918   2.507   3.682   8.930 -0.2763  0.4241  0.5552
    7SAPS  C315  919   2.578   3.847   8.792  0.0909  0.0069 -1.4365
    7SAPS  H15X  920   2.684   3.842   8.825 -0.4181 -0.5478  0.1673
    7SAPS  H15Y  921   2.560   3.957   8.796  1.5059  0.2679 -1.7151
    7SAPS  C316  922   2.571   3.792   8.646  0.2129 -0.8043  0.7256
    7SAPS  H16X  923   2.654   3.831   8.583 -0.2624 -0.4261  0.3414
    7SAPS  H16Y  924   2.478   3.822   8.593 -0.1523 -1.1992  1.1377
    7SAPS  C317  925   2.571   3.639   8.650 -0.6138 -1.2290 -0.4674
    7SAPS  H17X  926   2.472   3.608   8.690 -0.4187  1.1975  1.9875
    7SAPS  H17Y  927   2.646   3.612   8.727  0.1499 -0.7983 -1.0619
    7SAPS  C318  928   2.588   3.567   8.517  1.0394  0.4730 -1.0154
    7SAPS  H18X  929   2.512   3.612   8.450 -1.1670 -2.2854 -0.4740
    7SAPS  H18Y  930   2.571   3.457   8.520  0.0252  0.5801 -2.0779
    7SAPS  H18Z  931   2.691   3.591   8.483  1.5630  0.4097  0.4908
    8SAPS     N  932   6.813   5.345  11.193  0.3493 -0.3010 -0.4788
    8SAPS   HN1  933   6.772   5.297  11.110 -1.0146  1.2125 -0.7026
    8SAPS   HN2  934   6.734   5.362  11.258  1.5492  1.0329  0.6537
    8SAPS   HN3  935   6.855   5.434  11.160 -0.4278  0.5356  0.7694
    8SAPS   C12  936   6.914   5.265  11.267 -0.0094 -0.3043  0.6254
    8SAPS  H12A  937   6.957   5.320  11.349  0.4727 -2.6195  1.9790
    8SAPS   C13  938   6.858   5.128  11.322 -0.8361 -0.3453 -0.5745
    8SAPS  O13A  939   6.733   5.111  11.317  0.0349  0.2377  0.1105
    8SAPS  O13B  940   6.935   5.068  11.401  0.3715 -0.2746  0.2277
    8SAPS   C11  941   7.023   5.227  11.155  0.3251 -0.8269 -0.5204
    8SAPS  H11A  942   6.976   5.183  11.064  0.4778  0.7380 -1.3626
    8SAPS  H11B  943   7.089   5.150  11.201 -2.5580 -3.4503 -0.5359
    8SAPS     P  944   7.206   5.323  10.995 -0.4360 -0.0041  0.4477
    8SAPS   O13  945   7.279   5.450  10.973 -0.5570  0.8335  0.0477
    8SAPS   O14  946   7.294   5.209  11.037 -0.1235  0.1132  0.0025
    8SAPS   O12  947   7.096   5.351  11.109 -0.2801  0.8243 -0.0166
    8SAPS   O11  948   7.127   5.307  10.862 -0.0225 -0.2184  0.0079
    8SAPS    C1  949   7.018   5.379  10.803 -0.3763 -0.2152  0.0225
    8SAPS    HA  950   6.924   5.320  10.804 -2.0975  2.3931 -0.8573
    8SAPS    HB  951   6.987   5.470  10.859 -0.7998 -0.4200  0.1196
    8SAPS    C2  952   7.061   5.420  10.662 -0.0003 -0.4458  0.4791
    8SAPS    HS  953   6.972   5.433  10.597 -0.6238 -0.2437  1.3639
    8SAPS   O21  954   7.159   5.337  10.600  0.2791 -0.4950 -0.0569
    8SAPS   C21  955   7.102   5.217  10.569 -0.2033 -0.4579 -0.0638
    8SAPS   O22  956   6.985   5.185  10.574  0.4102 -0.3109 -0.4275
    8SAPS   C22  957   7.217   5.128  10.540 -0.0195  0.6591 -0.7120
    8SAPS   H2R  958   7.273   5.171  10.454  2.6964  0.3956  0.8517
    8SAPS   H2S  959   7.291   5.128  10.623 -1.8485 -2.1013  0.9883
    8SAPS    C3  960   7.115   5.565  10.667 -0.1596 -0.7798 -0.2136
    8SAPS    HX  961   7.190   5.580  10.747  0.3251  0.3141 -0.8657
    8SAPS    HY  962   7.034   5.632  10.705 -1.6456 -0.4559 -3.8089
    8SAPS   O31  963   7.158   5.622  10.539  0.4183  0.1745 -0.0317
    8SAPS   C31  964   7.280   5.657  10.532 -0.8649 -0.1190 -0.6907
    8SAPS   O32  965   7.373   5.618  10.608  0.1663 -0.2943 -0.4532
    8SAPS   C32  966   7.306   5.753  10.413  0.6020 -0.4311  0.2071
    8SAPS   H2X  967   7.376   5.688  10.356 -1.8511 -2.2014 -0.8894
    8SAPS   H2Y  968   7.358   5.846  10.444 -3.2239  1.7070  0.6211
    8SAPS   C23  969   7.178   4.985  10.498 -0.5495 -0.2023 -0.0815
    8SAPS   H3R  970   7.113   4.927  10.566  0.6045 -0.5129  0.7590
    8SAPS   H3S  971   7.276   4.933  10.501  0.0161  0.7442 -1.4700
    8SAPS   C24  972   7.130   4.964  10.347  0.2972 -0.2051 -0.4960
    8SAPS   H4R  973   7.027   5.000  10.324 -1.1831 -2.2653  2.5080
    8SAPS   H4S  974   7.123   4.856  10.325  3.4535 -0.5257 -0.1284
    8SAPS   C25  975   7.217   5.021  10.244 -0.6405 -0.1758 -0.8563
    8SAPS   H5R  976   7.241   5.128  10.240  2.0794 -0.6570  0.9451
    8SAPS   C26  977   7.270   4.959  10.139  0.1481 -0.5556  0.6385
    8SAPS   H6R  978   7.327   5.020  10.068 -0.6961  1.1709  1.4000
    8SAPS   C27  979   7.254   4.807  10.110  0.0416 -0.0449  0.0902
    8SAPS   H7R  980   7.263   4.793  10.000  0.2520  2.0010 -0.1726
    8SAPS   H7S  981   7.153   4.768  10.137 -0.2086 -0.8735 -1.9697
    8SAPS   C28  982   7.357   4.714  10.183  0.6341  0.7385 -0.4506
    8SAPS   H8R  983   7.356   4.702  10.293  0.5923 -2.5422 -0.7511
    8SAPS   C29  984   7.441   4.624  10.119 -0.0609  1.1486  0.3224
    8SAPS   H9R  985   7.490   4.558  10.192 -1.2879  1.1769  1.1900
    8SAPS  C210  986   7.441   4.590   9.969 -0.1429  0.0627  0.1099
    8SAPS  H10R  987   7.474   4.676   9.907 -0.8442 -0.1279 -0.5368
    8SAPS  H10S  988   7.337   4.576   9.933 -0.0922 -0.3191  0.1077
    8SAPS  C211  989   7.515   4.464   9.929  0.0483  0.0582  0.2319
    8SAPS  H11R  990   7.550   4.401  10.012 -1.1084  1.1617  1.5849
    8SAPS  C212  991   7.534   4.427   9.803 -0.7768 -0.1856  0.2010
    8SAPS  H12R  992   7.594   4.336   9.788  1.0896  1.5289 -3.3567
    8SAPS  C213  993   7.490   4.493   9.675 -0.4416  0.0251 -0.1744
    8SAPS  H13R  994   7.561   4.478   9.591 -0.3293  1.1945 -0.2899
    8SAPS  H13S  995   7.484   4.603   9.688 -1.4893  0.0548 -0.8592
    8SAPS  C214  996   7.346   4.451   9.642 -0.2469  0.0553  0.6468
    8SAPS  H14R  997   7.275   4.467   9.724 -0.4176  1.7219  0.1949
    8SAPS  C215  998   7.295   4.413   9.522 -0.0089 -0.1556 -0.7576
    8SAPS  H15R  999   7.191   4.376   9.521  0.4210 -1.3786 -0.2884
    8SAPS  C216 1000   7.365   4.391   9.391  0.2975 -0.2165  0.1391
    8SAPS  H16R 1001   7.346   4.287   9.359 -2.2537  0.8178 -1.8652
    8SAPS  H16S 1002   7.476   4.385   9.392  0.3135  0.1477  1.0610
    8SAPS  C217 1003   7.340   4.482   9.271 -0.0047  0.0117  0.6437
    8SAPS  H17R 1004   7.230   4.478   9.254  0.3289 -0.6406 -1.6378
    8SAPS  H17S 1005   7.391   4.443   9.180 -0.4731 -1.7974  1.1345
    8SAPS  C218 1006   7.389   4.626   9.293  0.2324 -0.3568 -0.0821
    8SAPS  H18R 1007   7.499   4.613   9.305  0.5444  1.0697 -1.2364
    8SAPS  H18S 1008   7.353   4.677   9.385  1.0078  1.5080 -0.7922
    8SAPS  C219 1009   7.352   4.717   9.182 -0.0578  0.1684 -0.2071
    8SAPS  H19R 1010   7.241   4.728   9.178  0.1261  2.3616  0.2213
    8SAPS  H19S 1011   7.379   4.681   9.080  0.6231  0.8707 -0.2764
    8SAPS  C220 1012   7.401   4.867   9.192 -0.3842 -0.5486  0.0598
    8SAPS  H20R 1013   7.371   4.934   9.109 -0.5188 -2.9299 -1.8526
    8SAPS  H20S 1014   7.512   4.862   9.187 -0.4902 -1.4457 -1.6599
    8SAPS  H20T 1015   7.372   4.899   9.294 -0.6745 -1.5368  0.2916
    8SAPS   C33 1016   7.184   5.782  10.326 -0.6179 -0.3383  0.6438
    8SAPS   H3X 1017   7.127   5.865  10.373  0.1855  1.0502 -0.7616
    8SAPS   H3Y 1018   7.117   5.694  10.312 -0.6911 -0.1843 -0.0354
    8SAPS   C34 1019   7.212   5.845  10.189 -0.4344  0.8642 -0.2542
    8SAPS   H4X 1020   7.267   5.941  10.202 -0.2940  0.7723 -0.1694
    8SAPS   H4Y 1021   7.113   5.873  10.147  0.0137 -0.8217 -2.5032
    8SAPS   C35 1022   7.285   5.751  10.093  0.0285  0.1866 -0.3815
    8SAPS   H5X 1023   7.225   5.658  10.089 -2.2980  1.6302 -0.2710
    8SAPS   H5Y 1024   7.387   5.727  10.129 -0.3637 -0.8290  0.0801
    8SAPS   C36 1025   7.291   5.803   9.950 -0.2215 -0.5947 -0.4981
    8SAPS   H6X 1026   7.376   5.872   9.931  0.2858 -1.0883 -0.0103
    8SAPS   H6Y 1027   7.188   5.840   9.932  0.6877  2.4775  0.4250
    8SAPS   C37 1028   7.309   5.683   9.853  0.1029 -0.1784 -0.5039
    8SAPS   H7X 1029   7.215   5.625   9.862 -0.0757  0.4232  2.0671
    8SAPS   H7Y 1030   7.383   5.613   9.899 -2.1499 -1.3197  1.5359
    8SAPS   C38 1031   7.356   5.717   9.715 -0.0709  0.6182 -0.1746
    8SAPS   H8X 1032   7.444   5.782   9.701  0.0055  0.1137 -2.1813
    8SAPS   H8Y 1033   7.274   5.752   9.648  0.1616 -0.4030 -1.0131
    8SAPS   C39 1034   7.403   5.586   9.650 -0.2922 -0.1283 -0.2877
    8SAPS   H9X 1035   7.335   5.501   9.673 -1.8336  0.6105 -1.9971
    8SAPS   H9Y 1036   7.497   5.550   9.697 -3.1127 -3.8584  2.8773
    8SAPS  C310 1037   7.438   5.596   9.503 -0.2644  0.5822 -0.5064
    8SAPS  H10X 1038   7.504   5.508   9.485 -2.3014 -0.9341 -0.7338
    8SAPS  H10Y 1039   7.492   5.692   9.486  1.0350 -0.0225  0.1467
    8SAPS  C311 1040   7.313   5.577   9.411  0.3775  0.2053 -0.1322
    8SAPS  H11X 1041   7.233   5.650   9.435  0.7630  0.6067 -0.0689
    8SAPS  H11Y 1042   7.267   5.478   9.431 -0.8368  0.6491 -0.6951
    8SAPS  C312 1043   7.356   5.581   9.262 -1.0398 -0.0240 -0.1895
    8SAPS  H12X 1044   7.459   5.540   9.258 -1.0550  0.1611 -3.1992
    8SAPS  H12Y 1045   7.364   5.687   9.228 -0.8959 -0.3561 -1.2133
    8SAPS  C313 1046   7.260   5.498   9.174 -0.7975  0.2380 -0.3104
    8SAPS  H13X 1047   7.155   5.530   9.194 -0.7901 -0.5622  1.0566
    8SAPS  H13Y 1048   7.272   5.391   9.199  1.6430  0.3807 -0.8158
    8SAPS  C314 1049   7.281   5.529   9.020 -0.6826  0.1340 -0.3132
    8SAPS  H14X 1050   7.271   5.635   8.991  0.8445  0.3424 -0.1326
    8SAPS  H14Y 1051   7.210   5.479   8.951  1.2335 -1.8159 -0.9556
    8SAPS  C315 1052   7.422   5.486   8.988 -0.2168 -0.1508  0.4087
    8SAPS  H15X 1053   7.505   5.518   9.054  0.9913  0.7504 -1.5197
    8SAPS  H15Y 1054   7.447   5.526   8.888  0.3438  0.7469  0.9080
    8SAPS  C316 1055   7.431   5.337   8.954  0.1772  0.7693  0.1915
    8SAPS  H16X 1056   7.368   5.327   8.863  1.8256  2.3620 -1.1804
    8SAPS  H16Y 1057   7.396   5.269   9.035  0.3448 -0.2985 -0.6138
    8SAPS  C317 1058   7.574   5.291   8.909 -0.0337 -0.1984 -0.1610
    8SAPS  H17X 1059   7.644   5.325   8.987 -3.0130  0.0772  2.5144
    8SAPS  H17Y 1060   7.600   5.344   8.815  2.5467  1.9939  1.7315
    8SAPS  C318 1061   7.582   5.138   8.892 -0.5046  0.1090  0.2841
    8SAPS  H18X 1062   7.546   5.096   8.988 -1.0954  0.5387  0.2515
    8SAPS  H18Y 1063   7.681   5.098   8.862  0.3791  0.6599  2.3798
    8SAPS  H18Z 1064   7.508   5.101   8.818  0.9564  0.1077 -1.1955
    9SAPS     N 1065   2.790   1.650   6.659  0.0065  0.0329 -0.4214
    9SAPS   HN1 1066   2.865   1.722   6.662 -0.6401  0.8010 -1.9132
    9SAPS   HN2 1067   2.702   1.687   6.617  1.0446  1.9572 -0.9344
    9SAPS   HN3 1068   2.761   1.615   6.753  2.5842  0.7717  0.6757
    9SAPS   C12 1069   2.838   1.529   6.580  0.1417  0.2674 -1.0276
    9SAPS  H12A 1070   2.922   1.485   6.632 -1.0801  0.1025  0.8649
    9SAPS   C13 1071   2.735   1.420   6.555 -0.3212  0.0424 -0.4570
    9SAPS  O13A 1072   2.613   1.430   6.591  0.4566  0.2044 -0.0059
    9SAPS  O13B 1073   2.776   1.315   6.503  0.1580  0.8242  0.0150
    9SAPS   C11 1074   2.895   1.565   6.441 -0.1459  0.2343 -0.1325
    9SAPS  H11A 1075   2.824   1.633   6.389 -1.4857 -0.0107  1.3380
    9SAPS  H11B 1076   2.913   1.476   6.377  3.6180  0.8479 -0.0436
    9SAPS     P 1077   3.066   1.765   6.392 -0.1494 -0.1543 -0.4845
    9SAPS   O13 1078   3.209   1.786   6.413  0.4259  0.1974 -0.3797
    9SAPS   O14 1079   3.012   1.782   6.255  0.2642  0.4200 -0.1600
    9SAPS   O12 1080   3.026   1.622   6.455  0.1366 -0.4722  0.9044
    9SAPS   O11 1081   2.976   1.849   6.496 -0.5045  0.4134  0.2739
    9SAPS    C1 1082   2.978   1.994   6.483 -0.0866  0.1329 -1.0504
    9SAPS    HA 1083   3.077   2.036   6.458  0.5453 -0.4911  0.3547
    9SAPS    HB 1084   2.909   2.021   6.400 -0.9844 -3.0116 -1.3729
    9SAPS    C2 1085   2.931   2.069   6.610  0.6212  0.0720 -0.4740
    9SAPS    HS 1086   2.931   2.177   6.584  0.6061  0.7637  2.1537
    9SAPS   O21 1087   3.013   2.033   6.724  0.0601  0.4812  0.0223
    9SAPS   C21 1088   3.126   2.102   6.723  0.9335  0.1811 -0.5131
    9SAPS   O22 1089   3.151   2.189   6.639  0.4062 -0.7627 -0.5402
    9SAPS   C22 1090   3.210   2.065   6.841 -0.0774  0.0752  0.1248
    9SAPS   H2R 1091   3.162   1.992   6.910  1.5096 -1.1630 -0.0507
    9SAPS   H2S 1092   3.298   2.020   6.791  1.0349 -0.3175  2.3436
    9SAPS    C3 1093   2.778   2.049   6.651 -0.5866 -0.2592  0.5063
    9SAPS    HX 1094   2.757   1.940   6.664 -0.7249 -0.3149 -0.1842
    9SAPS    HY 1095   2.713   2.087   6.569  1.3029 -0.0846 -0.9487
    9SAPS   O31 1096   2.748   2.126   6.773 -0.5105  0.2360  0.3880
    9SAPS   C31 1097   2.740   2.055   6.888  1.0458  0.4812 -0.3514
    9SAPS   O32 1098   2.743   1.934   6.896  0.1363  0.1196  0.0878
    9SAPS   C32 1099   2.708   2.144   7.013  0.5953  0.1005 -0.2191
    9SAPS   H2X 1100   2.613   2.105   7.056  1.5268  0.1117  1.9013
    9SAPS   H2Y 1101   2.678   2.244   6.975  1.1764  0.0113 -0.9145
    9SAPS   C23 1102   3.253   2.188   6.925  0.5682  0.5328  0.2580
    9SAPS   H3R 1103   3.162   2.226   6.975 -1.2474 -2.2249 -0.8241
    9SAPS   H3S 1104   3.282   2.264   6.849  1.6960  0.2906  0.4392
    9SAPS   C24 1105   3.349   2.151   7.043 -0.7372  0.1854 -0.5553
    9SAPS   H4R 1106   3.293   2.073   7.099  0.5135 -0.1925  0.1743
    9SAPS   H4S 1107   3.368   2.244   7.100  1.7541 -0.8655  0.4115
    9SAPS   C25 1108   3.483   2.099   6.981 -0.2030 -0.0606 -0.2123
    9SAPS   H5R 1109   3.474   2.017   6.908 -2.6898  0.2408 -0.2994
    9SAPS   C26 1110   3.605   2.133   7.014  0.0544 -0.6948 -0.3334
    9SAPS   H6R 1111   3.686   2.094   6.951 -0.3009 -2.2157  0.1315
    9SAPS   C27 1112   3.642   2.224   7.129 -0.6529 -0.7755 -0.0314
    9SAPS   H7R 1113   3.572   2.309   7.144 -2.4464 -2.0703 -0.9076
    9SAPS   H7S 1114   3.729   2.285   7.096 -0.0990 -0.7741  1.4170
    9SAPS   C28 1115   3.693   2.160   7.263  0.1051 -0.3647  0.0521
    9SAPS   H8R 1116   3.785   2.101   7.265 -1.1214 -2.3322 -0.5501
    9SAPS   C29 1117   3.641   2.182   7.388 -0.4445 -0.3835  0.5417
    9SAPS   H9R 1118   3.687   2.134   7.476 -1.0049 -2.0003 -0.0232
    9SAPS  C210 1119   3.521   2.260   7.419 -0.1050 -0.4620  0.1417
    9SAPS  H10R 1120   3.477   2.294   7.323  1.1515  0.1883 -0.2270
    9SAPS  H10S 1121   3.548   2.353   7.475 -1.1491  0.3111 -0.6152
    9SAPS  C211 1122   3.412   2.196   7.492 -0.0015  0.0330  0.1484
    9SAPS  H11R 1123   3.359   2.115   7.440  1.4321 -1.3088  0.7625
    9SAPS  C212 1124   3.367   2.226   7.611  0.5058 -0.2582  0.3272
    9SAPS  H12R 1125   3.277   2.177   7.649  1.2700 -1.8847  0.1056
    9SAPS  C213 1126   3.429   2.333   7.701  0.5396  0.2307 -0.6420
    9SAPS  H13R 1127   3.358   2.418   7.698  0.1040 -0.0006  1.9268
    9SAPS  H13S 1128   3.531   2.371   7.681  0.4274  1.1652  0.5182
    9SAPS  C214 1129   3.439   2.277   7.839 -0.6064  0.0447 -0.2216
    9SAPS  H14R 1130   3.490   2.180   7.850  1.5818  0.9870 -1.7439
    9SAPS  C215 1131   3.411   2.343   7.952 -0.0598 -0.4095 -0.0655
    9SAPS  H15R 1132   3.426   2.297   8.050 -0.2564  0.5597  0.4263
    9SAPS  C216 1133   3.362   2.485   7.952 -0.1547 -0.7919 -0.0682
    9SAPS  H16R 1134   3.257   2.477   7.916 -1.5215  1.4676  3.2363
    9SAPS  H16S 1135   3.415   2.556   7.885 -0.0788 -1.2147 -0.4544
    9SAPS  C217 1136   3.351   2.561   8.089  0.3990  0.3721 -0.4214
    9SAPS  H17R 1137   3.264   2.518   8.143 -0.9887  2.3700 -1.0072
    9SAPS  H17S 1138   3.340   2.670   8.068  2.1439  0.4140 -1.1923
    9SAPS  C218 1139   3.478   2.560   8.176  0.2153 -0.4797 -0.5507
    9SAPS  H18R 1140   3.568   2.610   8.135 -0.4444  0.1142 -1.2862
    9SAPS  H18S 1141   3.504   2.454   8.201 -0.2474  0.2406  3.3376
    9SAPS  C219 1142   3.449   2.610   8.320  0.1211  0.0978  0.3237
    9SAPS  H19R 1143   3.543   2.584   8.374  1.4600  3.3544 -0.2757
    9SAPS  H19S 1144   3.356   2.567   8.361 -0.8335 -2.2495 -4.0021
    9SAPS  C220 1145   3.436   2.760   8.323  0.3242 -0.1946 -0.0785
    9SAPS  H20R 1146   3.349   2.787   8.259 -0.7746 -0.4626  1.2749
    9SAPS  H20S 1147   3.532   2.809   8.296 -0.2601  0.3348 -1.2627
    9SAPS  H20T 1148   3.412   2.799   8.424 -0.2061  0.8916 -0.6049
    9SAPS   C33 1149   2.808   2.155   7.132  0.6782 -0.5066 -0.3180
    9SAPS   H3X 1150   2.773   2.227   7.209 -1.2548  0.2885 -1.9269
    9SAPS   H3Y 1151   2.902   2.202   7.096  0.9210  1.0136  2.1344
    9SAPS   C34 1152   2.840   2.027   7.214  0.7756 -0.3139 -0.3321
    9SAPS   H4X 1153   2.875   1.947   7.146  0.3917  1.0208 -2.1432
    9SAPS   H4Y 1154   2.751   1.990   7.270  0.7827 -0.7273 -0.5868
    9SAPS   C35 1155   2.943   2.044   7.320 -0.1752  0.9143  0.7729
    9SAPS   H5X 1156   3.032   2.102   7.287 -0.0271 -0.4645 -1.3128
    9SAPS   H5Y 1157   2.970   1.944   7.359 -2.6725 -0.4990 -1.0236
    9SAPS   C36 1158   2.882   2.103   7.438 -0.5086 -0.1406 -0.0374
    9SAPS   H6X 1159   2.790   2.048   7.468 -1.1936  0.4962 -0.9704
    9SAPS   H6Y 1160   2.833   2.197   7.406 -0.3324  0.8003  2.3754
    9SAPS   C37 1161   2.976   2.130   7.556  0.7327 -0.2360 -0.5098
    9SAPS   H7X 1162   3.058   2.198   7.524 -0.0554  0.1812 -1.7045
    9SAPS   H7Y 1163   3.025   2.038   7.593 -1.4970 -0.0905  2.9722
    9SAPS   C38 1164   2.897   2.195   7.674 -0.0898 -0.0607 -0.3974
    9SAPS   H8X 1165   2.831   2.119   7.722  0.1272 -0.1011 -0.1623
    9SAPS   H8Y 1166   2.846   2.280   7.625 -0.4314  0.1359  0.2966
    9SAPS   C39 1167   2.994   2.258   7.777  0.0329  0.0960 -0.0614
    9SAPS   H9X 1168   3.054   2.336   7.726  0.1268  0.2643  0.3011
    9SAPS   H9Y 1169   3.059   2.178   7.818  0.2837  0.9315  1.2088
    9SAPS  C310 1170   2.905   2.315   7.890  0.3143  0.8827 -0.1096
    9SAPS  H10X 1171   2.846   2.234   7.938  2.9621 -2.9320 -2.9489
    9SAPS  H10Y 1172   2.827   2.372   7.836 -0.0367 -0.2164 -0.7777
    9SAPS  C311 1173   2.981   2.405   7.981  0.1112 -0.2148  0.1721
    9SAPS  H11X 1174   3.040   2.476   7.918 -1.1121 -0.7243 -1.5856
    9SAPS  H11Y 1175   3.042   2.348   8.053  1.9037  1.0404 -0.3187
    9SAPS  C312 1176   2.893   2.509   8.058  0.1661  0.8310 -0.1372
    9SAPS  H12X 1177   2.836   2.457   8.138 -0.3723 -2.7021 -2.7341
    9SAPS  H12Y 1178   2.820   2.559   7.990 -1.1883 -0.2410  0.5018
    9SAPS  C313 1179   2.986   2.613   8.124  0.6678 -0.5259  0.6945
    9SAPS  H13X 1180   3.047   2.650   8.039 -1.8221  0.4734 -0.6986
    9SAPS  H13Y 1181   3.043   2.569   8.209 -0.0512 -0.0378  1.4319
    9SAPS  C314 1182   2.900   2.722   8.189 -0.1432 -1.1820  0.2951
    9SAPS  H14X 1183   2.838   2.682   8.273 -2.7827  1.0850 -0.5303
    9SAPS  H14Y 1184   2.840   2.768   8.109  1.3696  2.4294  1.1343
    9SAPS  C315 1185   3.000   2.828   8.256 -0.3929 -0.4649 -0.1452
    9SAPS  H15X 1186   3.072   2.768   8.316 -1.6230 -0.2559  1.6026
    9SAPS  H15Y 1187   2.934   2.895   8.316 -0.3824 -0.1193 -0.5171
    9SAPS  C316 1188   3.077   2.910   8.150  0.1539  0.4754  1.0016
    9SAPS  H16X 1189   3.146   2.838   8.101 -1.6027 -0.5959  0.0409
    9SAPS  H16Y 1190   3.132   2.992   8.201 -0.5856  0.3609  2.0025
    9SAPS  C317 1191   2.997   2.985   8.042  0.6889  1.0252  0.3385
    9SAPS  H17X 1192   2.937   2.912   7.984 -0.5073  1.7651  0.6458
    9SAPS  H17Y 1193   3.076   3.033   7.980  1.5319  0.9544  1.3349
    9SAPS  C318 1194   2.909   3.087   8.103 -0.5914 -0.3639 -0.0274
    9SAPS  H18X 1195   2.817   3.053   8.156 -1.2087  0.6850 -0.4170
    9SAPS  H18Y 1196   2.864   3.151   8.024 -2.2687 -0.0611  1.1431
    9SAPS  H18Z 1197   2.968   3.166   8.155 -0.2887 -0.3735 -0.3544
   10SAPS     N 1198   3.042   1.296   6.000  0.5155  0.0032 -0.1099
   10SAPS   HN1 1199   2.997   1.385   5.971  1.1093  0.6011  0.8159
   10SAPS   HN2 1200   3.036   1.231   5.918 -1.3918 -1.0734  0.8643
   10SAPS   HN3 1201   2.986   1.257   6.078  1.0268 -0.5046  0.0081
   10SAPS   C12 1202   3.179   1.325   6.042  0.1721 -0.5884 -0.1028
   10SAPS  H12A 1203   3.228   1.230   6.060  1.4577  0.1312  0.2990
   10SAPS   C13 1204   3.276   1.396   5.950  0.3980  0.2393  0.2220
   10SAPS  O13A 1205   3.240   1.457   5.846  0.5410  0.6113 -0.0138
   10SAPS  O13B 1206   3.394   1.410   5.993  0.1883  0.0340 -0.4014
   10SAPS   C11 1207   3.173   1.385   6.182 -0.2217  0.2934 -0.8822
   10SAPS  H11A 1208   3.120   1.483   6.186  1.8241  1.4410 -1.0188
   10SAPS  H11B 1209   3.278   1.412   6.206  0.3805 -1.1772 -1.7815
   10SAPS     P 1210   3.185   1.192   6.360  0.3784 -0.0858 -0.3962
   10SAPS   O13 1211   3.093   1.081   6.383 -0.0447 -0.0162 -0.2771
   10SAPS   O14 1212   3.312   1.165   6.293  0.4712  0.4581 -0.1394
   10SAPS   O12 1213   3.105   1.301   6.281 -0.7651 -0.0888 -0.4922
   10SAPS   O11 1214   3.219   1.247   6.499 -0.1078 -0.5595  0.4972
   10SAPS    C1 1215   3.233   1.381   6.540 -0.9583 -0.6518  0.0285
   10SAPS    HA 1216   3.265   1.453   6.462 -0.0657  0.5289  1.4635
   10SAPS    HB 1217   3.144   1.425   6.589 -0.2638  0.4624  0.3079
   10SAPS    C2 1218   3.343   1.402   6.645 -0.4349 -0.6887 -0.1667
   10SAPS    HS 1219   3.441   1.397   6.594 -1.5300  1.2846 -2.5715
   10SAPS   O21 1220   3.328   1.295   6.745 -0.6216 -0.1176 -0.1808
   10SAPS   C21 1221   3.437   1.239   6.793 -0.2446  0.3002  0.1897
   10SAPS   O22 1222   3.550   1.269   6.772  0.1942 -0.9258  0.1693
   10SAPS   C22 1223   3.400   1.130   6.888  0.1324  0.5214 -0.2908
   10SAPS   H2R 1224   3.302   1.088   6.859  0.3506  0.2355 -0.6243
   10SAPS   H2S 1225   3.483   1.055   6.889  0.2094  0.5626 -1.8599
   10SAPS    C3 1226   3.334   1.544   6.709  0.0059  0.1390  0.2400
   10SAPS    HX 1227   3.251   1.546   6.782 -1.9879  3.4491 -2.0262
   10SAPS    HY 1228   3.304   1.605   6.622 -1.2927 -1.8451 -0.7296
   10SAPS   O31 1229   3.467   1.576   6.766  0.0288 -0.0578 -0.0759
   10SAPS   C31 1230   3.559   1.631   6.696  0.3892  0.7740  0.2137
   10SAPS   O32 1231   3.563   1.648   6.575 -0.4637 -0.1555  0.2707
   10SAPS   C32 1232   3.671   1.675   6.785 -0.2263  0.2676  0.0488
   10SAPS   H2X 1233   3.633   1.755   6.852 -1.8306  1.5140 -2.2516
   10SAPS   H2Y 1234   3.732   1.732   6.711  0.3431 -1.3479 -0.7558
   10SAPS   C23 1235   3.386   1.181   7.033  0.3748  0.1610  0.1465
   10SAPS   H3R 1236   3.338   1.105   7.099 -1.4258  1.9701  0.9812
   10SAPS   H3S 1237   3.307   1.259   7.030 -1.1451 -1.3641 -0.8409
   10SAPS   C24 1238   3.514   1.247   7.092 -0.5173  0.0379 -0.6343
   10SAPS   H4R 1239   3.483   1.322   7.168 -2.4065  0.5525 -1.8515
   10SAPS   H4S 1240   3.571   1.307   7.018 -0.1774 -1.8715 -1.9509
   10SAPS   C25 1241   3.617   1.148   7.140  0.2289 -0.0702  0.4573
   10SAPS   H5R 1242   3.690   1.116   7.064  1.2667  2.3138  0.4158
   10SAPS   C26 1243   3.635   1.101   7.271 -0.2443  0.3084  0.9014
   10SAPS   H6R 1244   3.711   1.026   7.299 -2.1357 -3.0571 -2.4632
   10SAPS   C27 1245   3.545   1.131   7.387 -0.1224 -0.5276 -0.1513
   10SAPS   H7R 1246   3.513   1.042   7.445  1.4821 -0.2067  1.2706
   10SAPS   H7S 1247   3.448   1.174   7.354 -1.0983 -1.6617  1.1994
   10SAPS   C28 1248   3.621   1.212   7.481 -0.2504  0.0110 -0.4203
   10SAPS   H8R 1249   3.729   1.194   7.486 -0.4710 -1.2229  0.1640
   10SAPS   C29 1250   3.564   1.318   7.548 -0.2260  0.0593 -0.4743
   10SAPS   H9R 1251   3.626   1.382   7.612  0.1416  0.5738 -1.3272
   10SAPS  C210 1252   3.423   1.375   7.524  0.4639 -0.1916 -0.7146
   10SAPS  H10R 1253   3.352   1.298   7.486  2.1443 -1.3884 -1.5149
   10SAPS  H10S 1254   3.426   1.452   7.445  2.1521  1.3842  0.8320
   10SAPS  C211 1255   3.362   1.434   7.647 -0.6110 -0.6462 -1.1434
   10SAPS  H11R 1256   3.298   1.367   7.705  1.9247 -0.3377  2.1399
   10SAPS  C212 1257   3.362   1.567   7.689 -0.1640  0.9979 -0.0473
   10SAPS  H12R 1258   3.301   1.584   7.778 -1.4258  0.3160 -0.7673
   10SAPS  C213 1259   3.412   1.693   7.622  0.0873  0.3238  0.4626
   10SAPS  H13R 1260   3.405   1.683   7.511 -3.6815 -0.1629  0.7010
   10SAPS  H13S 1261   3.521   1.704   7.642  0.4194  1.6692 -1.8970
   10SAPS  C214 1262   3.336   1.819   7.663  0.3123 -1.2828 -0.5788
   10SAPS  H14R 1263   3.259   1.847   7.589 -0.7866  0.5095  1.1844
   10SAPS  C215 1264   3.371   1.898   7.768 -0.4737 -0.1825 -0.1217
   10SAPS  H15R 1265   3.305   1.982   7.795 -0.5424 -0.2565 -0.0614
   10SAPS  C216 1266   3.492   1.874   7.853 -0.0158  1.0175  0.2233
   10SAPS  H16R 1267   3.585   1.929   7.825 -0.9177  2.0176 -0.8799
   10SAPS  H16S 1268   3.509   1.765   7.854  0.4678  1.0976  1.0324
   10SAPS  C217 1269   3.456   1.897   7.999 -0.3010  0.6774  0.3138
   10SAPS  H17R 1270   3.364   1.842   8.030  0.8996 -0.7161  1.4952
   10SAPS  H17S 1271   3.441   2.007   8.002  1.7837  0.9873 -0.1621
   10SAPS  C218 1272   3.557   1.841   8.099  0.2173 -0.6606 -0.0368
   10SAPS  H18R 1273   3.663   1.844   8.065  0.0975  0.9631 -0.2779
   10SAPS  H18S 1274   3.530   1.738   8.130 -0.5502 -0.5096 -0.1798
   10SAPS  C219 1275   3.539   1.921   8.232  0.3190 -0.6597  0.1343
   10SAPS  H19R 1276   3.438   1.906   8.276  0.7545 -0.3989  1.2583
   10SAPS  H19S 1277   3.547   2.031   8.219  2.4447 -0.5613  1.9429
   10SAPS  C220 1278   3.636   1.875   8.337 -0.1392 -0.5492 -0.0626
   10SAPS  H20R 1279   3.602   1.922   8.432 -0.0127  0.4925 -0.5327
   10SAPS  H20S 1280   3.742   1.897   8.312 -0.4011  0.1730 -0.5362
   10SAPS  H20T 1281   3.621   1.766   8.353  3.6060 -1.1063  0.1695
   10SAPS   C33 1282   3.758   1.566   6.836  1.0423  0.3738 -0.1891
   10SAPS   H3X 1283   3.808   1.509   6.754 -2.0122  1.7175 -3.0955
   10SAPS   H3Y 1284   3.697   1.491   6.892  2.7539  0.0315  1.2513
   10SAPS   C34 1285   3.881   1.624   6.908  0.9953 -0.5839 -0.4081
   10SAPS   H4X 1286   3.858   1.688   6.996  1.9550  2.5335 -2.3551
   10SAPS   H4Y 1287   3.935   1.687   6.834 -0.0222  1.0256  0.1743
   10SAPS   C35 1288   3.972   1.513   6.960  0.5690 -0.2166  0.1792
   10SAPS   H5X 1289   4.062   1.564   7.002 -1.1655  1.0042  2.4912
   10SAPS   H5Y 1290   4.005   1.458   6.870  2.3522 -1.2798  1.4465
   10SAPS   C36 1291   3.907   1.431   7.071  0.0076 -0.3581  0.6476
   10SAPS   H6X 1292   3.837   1.352   7.036 -0.4319 -0.0855  0.9074
   10SAPS   H6Y 1293   3.847   1.492   7.142 -1.6319 -0.0752 -0.9772
   10SAPS   C37 1294   4.009   1.370   7.157 -0.4416 -0.7540 -0.7196
   10SAPS   H7X 1295   4.087   1.444   7.183 -1.6139  0.8941 -1.8438
   10SAPS   H7Y 1296   4.069   1.297   7.098  0.7842 -1.3957  1.2576
   10SAPS   C38 1297   3.958   1.305   7.287  0.3837  0.2835  0.0800
   10SAPS   H8X 1298   3.850   1.281   7.280  0.8395 -2.6361  2.0135
   10SAPS   H8Y 1299   3.973   1.382   7.365  1.1288  0.2852 -0.0580
   10SAPS   C39 1300   4.035   1.168   7.318  1.4008 -1.1382 -0.0134
   10SAPS   H9X 1301   4.012   1.099   7.234 -1.4435  0.5639 -0.6886
   10SAPS   H9Y 1302   3.990   1.128   7.411 -1.1409 -2.8539 -1.9143
   10SAPS  C310 1303   4.186   1.184   7.330  0.3347  0.2420 -0.6959
   10SAPS  H10X 1304   4.206   1.276   7.390  2.3865  1.0727 -2.5802
   10SAPS  H10Y 1305   4.229   1.220   7.234 -0.1423 -0.9091 -1.3393
   10SAPS  C311 1306   4.262   1.062   7.394  0.1912  0.0467  0.8912
   10SAPS  H11X 1307   4.371   1.086   7.401  0.2943 -0.8317  2.3483
   10SAPS  H11Y 1308   4.241   0.969   7.338 -1.4816  0.6787  0.4234
   10SAPS  C312 1309   4.228   1.038   7.541  0.2677 -0.5841  0.0910
   10SAPS  H12X 1310   4.294   0.956   7.575  1.1460  0.3676  0.7009
   10SAPS  H12Y 1311   4.124   1.001   7.555 -0.6974  1.8240 -0.3757
   10SAPS  C313 1312   4.248   1.154   7.637 -0.3602  0.1224 -0.9634
   10SAPS  H13X 1313   4.172   1.233   7.621 -0.0646  0.7593  0.6360
   10SAPS  H13Y 1314   4.343   1.204   7.611  1.2160 -1.1178  2.1387
   10SAPS  C314 1315   4.246   1.121   7.786 -0.5782  0.5716 -0.3609
   10SAPS  H14X 1316   4.306   1.032   7.814  0.9248  1.5778 -0.3669
   10SAPS  H14Y 1317   4.142   1.085   7.805 -1.1526  1.2315 -2.0656
   10SAPS  C315 1318   4.289   1.242   7.869 -0.3571  0.0536  0.0313
   10SAPS  H15X 1319   4.234   1.337   7.855 -0.8304 -0.1856  0.2946
   10SAPS  H15Y 1320   4.395   1.266   7.844 -0.5878  1.2273  0.1523
   10SAPS  C316 1321   4.292   1.226   8.023 -0.8047 -1.0246 -0.0428
   10SAPS  H16X 1322   4.343   1.314   8.066 -0.2789 -1.4219  0.1541
   10SAPS  H16Y 1323   4.360   1.139   8.035  0.7731 -0.3245 -3.4897
   10SAPS  C317 1324   4.155   1.217   8.079  0.3930  0.1727  0.4119
   10SAPS  H17X 1325   4.118   1.115   8.052 -1.5405  1.2273 -1.0378
   10SAPS  H17Y 1326   4.094   1.294   8.027  0.0569 -0.9859 -0.9665
   10SAPS  C318 1327   4.143   1.242   8.228  0.5892 -0.9442 -0.0482
   10SAPS  H18X 1328   4.034   1.247   8.252  0.3639 -1.3742 -0.9367
   10SAPS  H18Y 1329   4.197   1.331   8.265 -0.1955 -0.2081 -0.6392
   10SAPS  H18Z 1330   4.187   1.149   8.270 -0.0655 -1.1155  0.2736
   11SAPS     N 1331   4.749   3.983   5.738 -0.5694  0.2524 -0.1468
   11SAPS   HN1 1332   4.743   3.930   5.827 -1.9818  0.0927 -0.3166
   11SAPS   HN2 1333   4.710   3.931   5.657  1.6103 -1.2133 -0.2874
   11SAPS   HN3 1334   4.847   4.006   5.711 -1.5034  2.2926 -1.9801
   11SAPS   C12 1335   4.667   4.111   5.735 -0.8001 -0.5529 -0.4077
   11SAPS  H12A 1336   4.712   4.172   5.659 -0.1029  0.0122  0.4431
   11SAPS   C13 1337   4.517   4.085   5.712 -0.8784 -0.5976  0.4892
   11SAPS  O13A 1338   4.473   3.970   5.713  0.5424 -0.4432 -0.4528
   11SAPS  O13B 1339   4.441   4.183   5.707  0.2547  0.6857  0.2674
   11SAPS   C11 1340   4.684   4.189   5.871  0.7518  0.2680 -0.6076
   11SAPS  H11A 1341   4.646   4.130   5.957  1.0594  1.5994  0.4520
   11SAPS  H11B 1342   4.623   4.281   5.863  1.6961  0.8141 -1.6316
   11SAPS     P 1343   4.874   4.361   5.921  0.0221 -0.4266  0.2409
   11SAPS   O13 1344   5.018   4.373   5.889 -0.2145  0.1650  0.4457
   11SAPS   O14 1345   4.782   4.455   5.859 -0.3578 -0.0245  0.1434
   11SAPS   O12 1346   4.820   4.212   5.898 -0.0133 -0.0326 -0.4963
   11SAPS   O11 1347   4.872   4.385   6.075 -0.5113  0.2658 -0.0340
   11SAPS    C1 1348   4.892   4.284   6.173 -0.2952 -0.0428  0.0211
   11SAPS    HA 1349   4.899   4.185   6.124  3.7694  0.0537  0.2805
   11SAPS    HB 1350   4.972   4.309   6.245  0.3128  1.6442 -1.2118
   11SAPS    C2 1351   4.763   4.252   6.255  0.5334 -0.1092 -0.1999
   11SAPS    HS 1352   4.689   4.225   6.176  0.1705 -0.6713  0.3282
   11SAPS   O21 1353   4.716   4.371   6.323  0.0459 -0.5530 -0.1228
   11SAPS   C21 1354   4.604   4.346   6.392  0.1264  1.1078 -0.3987
   11SAPS   O22 1355   4.527   4.254   6.372 -0.4308 -0.5122 -0.0783
   11SAPS   C22 1356   4.595   4.447   6.498 -0.5023  0.2877 -0.0262
   11SAPS   H2R 1357   4.700   4.457   6.534 -0.0557 -1.7069 -0.6954
   11SAPS   H2S 1358   4.571   4.544   6.451  1.4931  1.1186  0.6046
   11SAPS    C3 1359   4.792   4.122   6.349  0.0983 -0.4391  0.3995
   11SAPS    HX 1360   4.828   4.035   6.290 -2.8056  0.3957 -2.7912
   11SAPS    HY 1361   4.701   4.092   6.405 -0.7799 -1.0825 -1.3095
   11SAPS   O31 1362   4.890   4.150   6.455  0.7798 -0.3927  0.0654
   11SAPS   C31 1363   5.013   4.100   6.438  0.5495  0.6397  0.1335
   11SAPS   O32 1364   5.052   4.052   6.331 -0.3741 -0.1478 -0.4747
   11SAPS   C32 1365   5.094   4.116   6.566 -0.6473 -0.5342  0.4466
   11SAPS   H2X 1366   5.166   4.200   6.555  1.4176 -1.9855  2.5687
   11SAPS   H2Y 1367   5.151   4.021   6.570 -1.8795 -1.4045 -1.7857
   11SAPS   C23 1368   4.499   4.415   6.617 -0.3203  0.0796 -0.1420
   11SAPS   H3R 1369   4.398   4.392   6.575 -0.6367  0.4513  0.4043
   11SAPS   H3S 1370   4.485   4.513   6.667 -1.0577  0.8616 -1.8501
   11SAPS   C24 1371   4.548   4.290   6.706  0.5610  0.3250  0.4971
   11SAPS   H4R 1372   4.575   4.199   6.649 -3.0788 -0.1946 -0.4954
   11SAPS   H4S 1373   4.457   4.263   6.764 -2.0256  2.5958 -2.3364
   11SAPS   C25 1374   4.665   4.344   6.792  0.3121  0.5748  0.2802
   11SAPS   H5R 1375   4.753   4.371   6.732 -0.1879  0.4649 -0.5140
   11SAPS   C26 1376   4.672   4.364   6.921  0.1111  0.3993  0.0888
   11SAPS   H6R 1377   4.759   4.406   6.975  1.5864 -1.3363 -0.9096
   11SAPS   C27 1378   4.554   4.321   7.013 -0.2248  0.0260  0.1399
   11SAPS   H7R 1379   4.569   4.219   7.052 -1.6847 -0.5383 -0.7202
   11SAPS   H7S 1380   4.460   4.321   6.953  0.3855  1.3212 -0.8544
   11SAPS   C28 1381   4.531   4.416   7.123 -0.5570 -0.5892 -0.8021
   11SAPS   H8R 1382   4.465   4.501   7.102 -0.1604 -0.0683  0.0770
   11SAPS   C29 1383   4.578   4.411   7.250 -0.8925 -0.0974 -0.3084
   11SAPS   H9R 1384   4.559   4.482   7.331 -2.0090 -0.2666 -0.4215
   11SAPS  C210 1385   4.667   4.293   7.306  0.0968 -0.2331 -0.5990
   11SAPS  H10R 1386   4.754   4.268   7.241  1.0641 -1.6028  1.1585
   11SAPS  H10S 1387   4.597   4.207   7.294 -1.4020  1.0989 -1.5689
   11SAPS  C211 1388   4.724   4.301   7.442  0.0432 -0.0025  0.5977
   11SAPS  H11R 1389   4.831   4.322   7.453  0.1976 -1.4084  1.9070
   11SAPS  C212 1390   4.656   4.291   7.557  0.3194  0.7170 -0.0381
   11SAPS  H12R 1391   4.717   4.291   7.648 -0.3568  0.8409  0.4223
   11SAPS  C213 1392   4.507   4.283   7.587  0.4286  0.0184  1.0142
   11SAPS  H13R 1393   4.444   4.255   7.500 -1.2020  0.7486  1.9323
   11SAPS  H13S 1394   4.462   4.378   7.623 -0.2251  0.0649  0.1014
   11SAPS  C214 1395   4.497   4.180   7.694  0.1997  0.4763 -0.1772
   11SAPS  H14R 1396   4.508   4.076   7.659 -0.4978  1.0789 -2.2418
   11SAPS  C215 1397   4.504   4.198   7.823  0.6383  0.5650  0.7087
   11SAPS  H15R 1398   4.464   4.122   7.893 -1.5936 -0.7498 -1.8898
   11SAPS  C216 1399   4.515   4.330   7.889  0.2950  0.1027  0.1934
   11SAPS  H16R 1400   4.419   4.380   7.915  1.1816  1.5717  0.7270
   11SAPS  H16S 1401   4.562   4.403   7.820  2.6572 -0.3693  1.2515
   11SAPS  C217 1402   4.614   4.331   8.000 -0.6543  0.6006  0.1923
   11SAPS  H17R 1403   4.709   4.288   7.961 -1.4367 -2.6398  1.6931
   11SAPS  H17S 1404   4.584   4.258   8.078 -0.0570 -0.0489 -0.1734
   11SAPS  C218 1405   4.644   4.465   8.057  0.1926  0.7047 -0.1738
   11SAPS  H18R 1406   4.544   4.499   8.090 -0.6488 -0.4318 -1.4719
   11SAPS  H18S 1407   4.671   4.532   7.972 -2.0819  2.9694  0.8244
   11SAPS  C219 1408   4.747   4.481   8.161 -0.1007  0.0056  0.0874
   11SAPS  H19R 1409   4.825   4.404   8.143 -0.0945 -0.5509  2.3057
   11SAPS  H19S 1410   4.696   4.460   8.258  1.6800  0.0577  1.0552
   11SAPS  C220 1411   4.809   4.614   8.177 -0.9018  0.0101  0.2183
   11SAPS  H20R 1412   4.732   4.682   8.220 -2.5460 -1.3395 -0.5616
   11SAPS  H20S 1413   4.846   4.667   8.087 -1.3772  0.2321  0.1584
   11SAPS  H20T 1414   4.895   4.603   8.248 -0.2260 -2.9764 -1.0217
   11SAPS   C33 1415   5.003   4.149   6.695 -0.1540 -0.0795  0.3333
   11SAPS   H3X 1416   4.926   4.071   6.713 -1.5489  1.0999 -0.4091
   11SAPS   H3Y 1417   4.950   4.246   6.686  0.6600  0.2362 -1.1508
   11SAPS   C34 1418   5.084   4.153   6.834 -0.0718  0.7300 -0.1591
   11SAPS   H4X 1419   5.138   4.250   6.839 -0.6344  1.0396 -0.0858
   11SAPS   H4Y 1420   5.158   4.070   6.841  1.6802  2.2183 -0.7198
   11SAPS   C35 1421   4.987   4.150   6.955  0.7621  0.1660 -0.2266
   11SAPS   H5X 1422   4.922   4.060   6.949  1.7890 -0.6382  0.4790
   11SAPS   H5Y 1423   4.926   4.242   6.947  0.9246  0.2624 -0.3620
   11SAPS   C36 1424   5.058   4.143   7.093  0.0601 -0.1617  0.2258
   11SAPS   H6X 1425   5.097   4.040   7.105 -2.4450 -0.9065  2.4474
   11SAPS   H6Y 1426   4.983   4.160   7.172 -1.1306  1.0213 -1.1237
   11SAPS   C37 1427   5.173   4.242   7.120 -0.6754  0.2519  0.0893
   11SAPS   H7X 1428   5.228   4.286   7.034 -1.3935 -0.1834 -0.5972
   11SAPS   H7Y 1429   5.255   4.180   7.162 -1.7670 -0.1626  1.6641
   11SAPS   C38 1430   5.133   4.350   7.218 -0.0006 -0.6842  0.1105
   11SAPS   H8X 1431   5.027   4.373   7.196 -0.6675 -2.1880  1.6255
   11SAPS   H8Y 1432   5.196   4.440   7.205 -0.8739 -0.1696 -0.5727
   11SAPS   C39 1433   5.154   4.319   7.364  0.4523  0.2718  0.0244
   11SAPS   H9X 1434   5.259   4.286   7.379  0.2331 -1.0905 -1.2945
   11SAPS   H9Y 1435   5.096   4.228   7.387  1.8614  0.1443  3.3135
   11SAPS  C310 1436   5.117   4.436   7.456  0.3953 -0.5200 -0.1718
   11SAPS  H10X 1437   5.007   4.445   7.446  0.5622  0.1607 -1.5033
   11SAPS  H10Y 1438   5.171   4.526   7.420  0.4970 -0.5590 -0.1188
   11SAPS  C311 1439   5.149   4.400   7.600  0.6908 -0.5799  0.0924
   11SAPS  H11X 1440   5.175   4.499   7.643  0.0215 -0.4025  0.0971
   11SAPS  H11Y 1441   5.229   4.323   7.599  1.0052 -0.2516 -0.2299
   11SAPS  C312 1442   5.023   4.339   7.671 -0.2811 -0.0763 -0.0108
   11SAPS  H12X 1443   4.989   4.262   7.599 -1.3024 -0.0341  0.4163
   11SAPS  H12Y 1444   4.940   4.413   7.676 -0.3246 -0.1935  1.1107
   11SAPS  C313 1445   5.050   4.292   7.816  0.3116  0.1737  0.7766
   11SAPS  H13X 1446   5.111   4.199   7.822  2.4164  1.3505 -1.5079
   11SAPS  H13Y 1447   4.959   4.257   7.870 -0.7615 -1.0963 -1.8074
   11SAPS  C314 1448   5.119   4.404   7.909 -0.2391 -0.6160 -0.2107
   11SAPS  H14X 1449   5.047   4.486   7.926 -2.6723 -2.2774 -2.1796
   11SAPS  H14Y 1450   5.210   4.455   7.868 -0.2360 -0.2020  0.3155
   11SAPS  C315 1451   5.160   4.339   8.045  0.3884 -0.4671 -0.1667
   11SAPS  H15X 1452   5.213   4.245   8.020 -2.5162 -2.1189 -0.2689
   11SAPS  H15Y 1453   5.069   4.315   8.104  0.5212  0.8994  0.6296
   11SAPS  C316 1454   5.248   4.424   8.132 -0.2307  0.2717 -1.0425
   11SAPS  H16X 1455   5.319   4.476   8.065  1.5223 -1.4331 -0.5228
   11SAPS  H16Y 1456   5.306   4.369   8.208 -0.0255  1.1921 -0.5323
   11SAPS  C317 1457   5.176   4.525   8.208  0.0584  0.1029 -0.0880
   11SAPS  H17X 1458   5.111   4.478   8.284  0.3839 -0.0699  0.0873
   11SAPS  H17Y 1459   5.118   4.588   8.137  0.6541  0.8692  0.0897
   11SAPS  C318 1460   5.275   4.626   8.272 -0.1676 -0.3750  0.4205
   11SAPS  H18X 1461   5.341   4.582   8.349  0.5815 -1.3016 -0.7460
   11SAPS  H18Y 1462   5.211   4.708   8.311  0.3702  0.0769  0.3680
   11SAPS  H18Z 1463   5.343   4.672   8.197 -0.3071 -0.1827  0.4102
   12SAPS     N 1464   4.651   4.686   5.915 -0.1711  0.1967  0.4152
   12SAPS   HN1 1465   4.640   4.612   5.843  2.2299 -1.3568  1.5681
   12SAPS   HN2 1466   4.677   4.628   5.998 -1.8275  0.5447  1.1965
   12SAPS   HN3 1467   4.568   4.744   5.938 -0.3305  0.6925 -1.3150
   12SAPS   C12 1468   4.761   4.778   5.887  0.1424  0.0442  0.3458
   12SAPS  H12A 1469   4.853   4.756   5.940 -0.7235 -0.1005  1.8260
   12SAPS   C13 1470   4.803   4.778   5.735 -0.1471  0.4208  0.6390
   12SAPS  O13A 1471   4.737   4.717   5.650 -0.3315  0.0323  0.1652
   12SAPS  O13B 1472   4.896   4.858   5.708 -0.3520 -0.0109  0.8536
   12SAPS   C11 1473   4.713   4.920   5.930  0.2250 -0.2405 -0.8257
   12SAPS  H11A 1474   4.623   4.968   5.885  0.4807  3.2778  2.1954
   12SAPS  H11B 1475   4.796   4.988   5.902  1.2211 -1.5182 -1.0549
   12SAPS     P 1476   4.672   5.057   6.143  0.1213  0.0146 -0.1181
   12SAPS   O13 1477   4.742   5.175   6.092  0.0424  0.0520  0.4890
   12SAPS   O14 1478   4.525   5.075   6.135  0.5152 -0.6771  0.5125
   12SAPS   O12 1479   4.711   4.927   6.069 -0.5898 -0.3537 -0.0843
   12SAPS   O11 1480   4.714   5.025   6.292  0.0161 -0.2271 -0.1184
   12SAPS    C1 1481   4.829   4.941   6.315  0.2294  0.4108  0.1489
   12SAPS    HA 1482   4.797   4.836   6.304 -2.6787  1.4557 -1.9891
   12SAPS    HB 1483   4.904   4.945   6.234 -1.6422  0.8515 -1.6150
   12SAPS    C2 1484   4.893   4.962   6.455 -0.0321  0.1276  0.4258
   12SAPS    HS 1485   4.980   4.894   6.468 -0.4147 -0.0585  2.2440
   12SAPS   O21 1486   4.800   4.939   6.560 -0.0606  0.2455  0.9186
   12SAPS   C21 1487   4.741   4.818   6.559  1.1150  0.1338  0.1835
   12SAPS   O22 1488   4.787   4.722   6.500  0.4775  0.5422  0.1827
   12SAPS   C22 1489   4.613   4.809   6.640  0.6293 -0.5632  0.5721
   12SAPS   H2R 1490   4.569   4.908   6.661  4.2350  1.1860  0.2442
   12SAPS   H2S 1491   4.534   4.761   6.578 -0.3194  1.1927  0.4025
   12SAPS    C3 1492   4.949   5.109   6.479  0.5006 -0.3780  0.3257
   12SAPS    HX 1493   4.858   5.170   6.499  0.2143 -1.0478  1.1159
   12SAPS    HY 1494   4.987   5.136   6.378 -0.1792  1.4937  0.5562
   12SAPS   O31 1495   5.050   5.108   6.584  0.0245  0.0700  0.4232
   12SAPS   C31 1496   5.009   5.154   6.701 -0.2072  0.7270  0.2835
   12SAPS   O32 1497   4.904   5.220   6.712 -0.8760 -0.2678  0.3972
   12SAPS   C32 1498   5.104   5.129   6.814 -0.1215  0.5363 -0.4620
   12SAPS   H2X 1499   5.186   5.202   6.797  1.7205 -1.6209 -1.0954
   12SAPS   H2Y 1500   5.140   5.024   6.807 -1.0405  0.2307 -0.6441
   12SAPS   C23 1501   4.615   4.734   6.770  0.3082 -0.3145  0.4171
   12SAPS   H3R 1502   4.645   4.631   6.744 -2.2861 -0.3752 -2.7838
   12SAPS   H3S 1503   4.509   4.732   6.803 -0.2953  1.5095 -1.2659
   12SAPS   C24 1504   4.708   4.793   6.885 -0.1936  0.7931 -0.0176
   12SAPS   H4R 1505   4.805   4.822   6.839  0.2153  0.0828  0.3888
   12SAPS   H4S 1506   4.724   4.715   6.962 -0.0182  0.0676 -0.7798
   12SAPS   C25 1507   4.650   4.919   6.946 -0.2017 -0.0461 -0.3681
   12SAPS   H5R 1508   4.643   5.002   6.875 -0.5258  0.6101  0.4289
   12SAPS   C26 1509   4.628   4.946   7.077 -0.1722  0.3955 -0.1508
   12SAPS   H6R 1510   4.565   5.034   7.098 -1.6235 -0.7911  0.5908
   12SAPS   C27 1511   4.639   4.845   7.190 -0.5609 -0.3020  0.4662
   12SAPS   H7R 1512   4.715   4.767   7.169 -0.8523 -0.7835  1.1583
   12SAPS   H7S 1513   4.543   4.791   7.204 -0.7082  0.4877  2.7194
   12SAPS   C28 1514   4.681   4.925   7.314 -0.4263 -0.4304  0.8263
   12SAPS   H8R 1515   4.770   4.988   7.297  0.3414 -1.4257  1.1256
   12SAPS   C29 1516   4.634   4.917   7.444 -0.4412 -0.2408 -0.2464
   12SAPS   H9R 1517   4.678   4.978   7.524  1.0912 -1.0286 -0.4776
   12SAPS  C210 1518   4.521   4.830   7.486 -0.0994  0.3737  0.5357
   12SAPS  H10R 1519   4.490   4.765   7.401 -0.6221 -0.5864  1.4391
   12SAPS  H10S 1520   4.434   4.897   7.506 -0.7663  0.0430 -1.1249
   12SAPS  C211 1521   4.567   4.749   7.604 -0.1454  0.0421 -0.7422
   12SAPS  H11R 1522   4.658   4.688   7.591 -0.8606 -1.3250  0.4958
   12SAPS  C212 1523   4.514   4.744   7.727 -0.1542  0.2196  0.1692
   12SAPS  H12R 1524   4.568   4.693   7.809  1.7736  0.2941 -1.0347
   12SAPS  C213 1525   4.396   4.832   7.760  0.1781  0.1262 -0.0062
   12SAPS  H13R 1526   4.326   4.842   7.674 -2.5742 -0.3613  2.1056
   12SAPS  H13S 1527   4.438   4.932   7.782  0.1520  0.2480 -0.5124
   12SAPS  C214 1528   4.315   4.792   7.884 -0.4126  0.1640 -0.0458
   12SAPS  H14R 1529   4.218   4.749   7.856  0.9265 -2.4637 -0.7821
   12SAPS  C215 1530   4.355   4.796   8.012 -0.0233  0.2661 -0.5946
   12SAPS  H15R 1531   4.293   4.758   8.094  0.6036 -1.4640 -0.9108
   12SAPS  C216 1532   4.488   4.833   8.052  0.6967  0.1093 -0.4354
   12SAPS  H16R 1533   4.532   4.918   7.995  0.3783  0.2322 -0.5004
   12SAPS  H16S 1534   4.555   4.747   8.033  0.2303 -0.0488 -1.4115
   12SAPS  C217 1535   4.486   4.886   8.194  0.3094  0.4003  0.4412
   12SAPS  H17R 1536   4.487   4.805   8.270  2.0853  1.3224  1.4445
   12SAPS  H17S 1537   4.394   4.948   8.205 -0.0132  0.1954 -1.0382
   12SAPS  C218 1538   4.609   4.975   8.237  0.0000  0.4733 -0.2491
   12SAPS  H18R 1539   4.572   5.079   8.238 -0.4145  0.3357 -1.1979
   12SAPS  H18S 1540   4.681   4.973   8.152 -0.0266  1.3982 -0.2905
   12SAPS  C219 1541   4.669   4.946   8.364  0.4238  0.9322 -0.5170
   12SAPS  H19R 1542   4.750   4.870   8.356 -0.2476 -0.2118  2.5982
   12SAPS  H19S 1543   4.591   4.908   8.434  1.4816 -0.5832 -0.1250
   12SAPS  C220 1544   4.730   5.070   8.423 -0.0690  0.3937  0.0612
   12SAPS  H20R 1545   4.805   5.112   8.352 -0.7977  2.6599  0.5796
   12SAPS  H20S 1546   4.787   5.048   8.515  0.7004 -1.4218 -0.8171
   12SAPS  H20T 1547   4.651   5.148   8.436 -0.4259 -0.0005  0.2527
   12SAPS   C33 1548   5.043   5.152   6.958 -0.1711 -0.3306 -0.4156
   12SAPS   H3X 1549   4.971   5.074   6.992  2.7009 -2.5778  0.6752
   12SAPS   H3Y 1550   4.996   5.252   6.949 -2.3976 -0.9432  3.1914
   12SAPS   C34 1551   5.154   5.156   7.069 -0.2618  0.5052  0.6028
   12SAPS   H4X 1552   5.237   5.224   7.038 -0.7025  0.5045 -0.6450
   12SAPS   H4Y 1553   5.196   5.054   7.067  0.5257  0.8378 -1.1513
   12SAPS   C35 1554   5.101   5.195   7.210 -0.1708 -0.0995  0.3660
   12SAPS   H5X 1555   5.030   5.124   7.257  0.6233 -1.7560 -0.8489
   12SAPS   H5Y 1556   5.043   5.289   7.199 -0.1155 -0.2595 -1.4815
   12SAPS   C36 1557   5.199   5.221   7.322  0.2940  0.3581  0.3512
   12SAPS   H6X 1558   5.274   5.298   7.293 -0.3428  0.3139 -1.5217
   12SAPS   H6Y 1559   5.254   5.130   7.354  0.1454  0.0339 -0.3070
   12SAPS   C37 1560   5.120   5.268   7.447 -0.7225 -0.3380 -0.4171
   12SAPS   H7X 1561   5.073   5.183   7.499 -2.1400  1.0550  0.6382
   12SAPS   H7Y 1562   5.051   5.351   7.418  1.6753  1.9156  0.1613
   12SAPS   C38 1563   5.219   5.334   7.548  0.2445 -0.1141 -0.4009
   12SAPS   H8X 1564   5.285   5.406   7.494  0.6641 -0.1804  0.0201
   12SAPS   H8Y 1565   5.294   5.264   7.590 -2.0694 -2.5592 -0.2282
   12SAPS   C39 1566   5.143   5.417   7.656 -0.1837 -0.0919 -0.0606
   12SAPS   H9X 1567   5.066   5.356   7.707 -0.9990  1.6123  0.7956
   12SAPS   H9Y 1568   5.086   5.493   7.598 -2.0152 -0.3486  1.3482
   12SAPS  C310 1569   5.235   5.482   7.752 -0.1582  0.7432 -0.5534
   12SAPS  H10X 1570   5.305   5.539   7.688 -0.9490 -0.5420 -2.6282
   12SAPS  H10Y 1571   5.311   5.421   7.805 -1.4588 -1.1358 -0.8026
   12SAPS  C311 1572   5.155   5.553   7.859  0.9414  0.1628  0.8001
   12SAPS  H11X 1573   5.086   5.491   7.921 -0.1309  0.2174 -0.3161
   12SAPS  H11Y 1574   5.093   5.629   7.805  1.6719  0.3714  0.2446
   12SAPS  C312 1575   5.246   5.626   7.961 -0.6517  1.0263  0.1538
   12SAPS  H12X 1576   5.311   5.693   7.901  0.6124  0.2735  0.6394
   12SAPS  H12Y 1577   5.310   5.553   8.016 -1.0506  0.5764  0.0240
   12SAPS  C313 1578   5.177   5.711   8.065 -1.2328 -0.3388  0.2757
   12SAPS  H13X 1579   5.099   5.776   8.019 -0.5082  1.6252  1.7861
   12SAPS  H13Y 1580   5.260   5.768   8.111 -0.0796 -1.3140 -0.5394
   12SAPS  C314 1581   5.098   5.639   8.178 -0.4737  0.5177  0.2272
   12SAPS  H14X 1582   5.162   5.572   8.239 -2.7424 -2.1562 -0.2679
   12SAPS  H14Y 1583   5.009   5.579   8.151  0.4319 -1.4859  1.6056
   12SAPS  C315 1584   5.037   5.744   8.274 -0.4789  0.7005 -0.3330
   12SAPS  H15X 1585   4.974   5.702   8.354  1.1506 -1.9333 -0.3998
   12SAPS  H15Y 1586   4.987   5.815   8.204 -0.5306  0.5433 -0.4541
   12SAPS  C316 1587   5.155   5.810   8.353  0.2150 -0.4279  0.6841
   12SAPS  H16X 1588   5.226   5.877   8.299 -2.0238  2.3181  0.9777
   12SAPS  H16Y 1589   5.208   5.732   8.410  1.1784 -0.9504 -0.8812
   12SAPS  C317 1590   5.101   5.905   8.464 -0.4405 -0.0972 -0.3681
   12SAPS  H17X 1591   5.191   5.945   8.515  0.1491 -0.4535 -1.1193
   12SAPS  H17Y 1592   5.057   5.847   8.548  1.2109 -2.1610 -0.8680
   12SAPS  C318 1593   5.018   6.022   8.420  0.3451  1.0783  0.0902
   12SAPS  H18X 1594   5.009   6.104   8.494  0.2810  0.4542  0.7838
   12SAPS  H18Y 1595   4.912   5.991   8.407  0.5895  0.6844 -1.0439
   12SAPS  H18Z 1596   5.046   6.059   8.319 -0.2020 -0.3120 -0.5833
   13SAPS     N 1597   5.501   2.895   5.863 -0.1826  0.0045  0.2386
   13SAPS   HN1 1598   5.493   2.871   5.762 -0.9898 -2.6831  0.8859
   13SAPS   HN2 1599   5.406   2.904   5.905 -1.1289  2.1829 -2.2541
   13SAPS   HN3 1600   5.565   2.975   5.880  0.4458 -0.9580  2.5918
   13SAPS   C12 1601   5.576   2.773   5.907  0.6504 -0.4562  0.4191
   13SAPS  H12A 1602   5.510   2.689   5.887 -1.4961  1.0527  0.9714
   13SAPS   C13 1603   5.703   2.746   5.821 -0.4806 -0.5553  0.0650
   13SAPS  O13A 1604   5.721   2.805   5.715  0.0189  0.0554 -0.1292
   13SAPS  O13B 1605   5.771   2.646   5.853  0.2230  0.5232  0.2636
   13SAPS   C11 1606   5.610   2.784   6.056  0.0362 -0.3668 -0.5072
   13SAPS  H11A 1607   5.689   2.861   6.070 -2.0672  1.5846  1.0713
   13SAPS  H11B 1608   5.661   2.689   6.083  1.8943  0.3706 -1.3590
   13SAPS     P 1609   5.508   2.829   6.283 -0.0280  0.9494 -0.1910
   13SAPS   O13 1610   5.610   2.736   6.340 -0.2774  0.1581 -0.6288
   13SAPS   O14 1611   5.526   2.973   6.312  0.1439 -0.2082 -0.9908
   13SAPS   O12 1612   5.489   2.808   6.130  0.1905 -0.1195  0.2457
   13SAPS   O11 1613   5.362   2.795   6.334 -0.4676  0.7548 -0.5844
   13SAPS    C1 1614   5.330   2.653   6.340 -0.4646  0.3332 -0.8609
   13SAPS    HA 1615   5.234   2.630   6.290 -0.2993  0.5244 -1.2611
   13SAPS    HB 1616   5.405   2.587   6.292 -0.1556  0.1099 -0.0890
   13SAPS    C2 1617   5.317   2.601   6.495  0.6873 -0.4831 -0.0522
   13SAPS    HS 1618   5.242   2.520   6.492  1.2475 -0.9787 -0.9776
   13SAPS   O21 1619   5.280   2.701   6.585  0.3920  0.5928  0.3751
   13SAPS   C21 1620   5.164   2.756   6.562 -0.2460 -0.4601  0.3301
   13SAPS   O22 1621   5.079   2.704   6.490 -0.7379 -0.1274  0.4847
   13SAPS   C22 1622   5.151   2.890   6.621 -0.3226  0.3025  0.6667
   13SAPS   H2R 1623   5.252   2.937   6.613 -0.3514  0.3209  0.4019
   13SAPS   H2S 1624   5.077   2.947   6.562 -1.2856 -1.3373  0.2591
   13SAPS    C3 1625   5.445   2.540   6.547 -0.0674 -0.2194 -0.5493
   13SAPS    HX 1626   5.524   2.618   6.547 -0.3453  0.0562 -0.7554
   13SAPS    HY 1627   5.461   2.460   6.472 -1.4861 -1.9557  0.9552
   13SAPS   O31 1628   5.443   2.481   6.678  0.2095  0.1081 -0.2009
   13SAPS   C31 1629   5.557   2.439   6.716 -0.2464 -0.0420 -0.2993
   13SAPS   O32 1630   5.665   2.453   6.654 -0.2623  0.0886 -0.1161
   13SAPS   C32 1631   5.549   2.385   6.859  0.2527 -0.9544  0.0056
   13SAPS   H2X 1632   5.571   2.276   6.856  2.9409 -0.4176 -0.6112
   13SAPS   H2Y 1633   5.449   2.410   6.901  0.3125 -1.4541  0.4593
   13SAPS   C23 1634   5.111   2.881   6.765  0.4222 -0.2535 -0.0836
   13SAPS   H3R 1635   5.185   2.819   6.821 -0.8840 -0.7256  1.1381
   13SAPS   H3S 1636   5.013   2.829   6.775  0.6170 -0.1377  3.0267
   13SAPS   C24 1637   5.107   3.020   6.830 -0.3948 -0.1245  0.5100
   13SAPS   H4R 1638   5.048   3.015   6.924 -0.1887 -0.1897  0.6362
   13SAPS   H4S 1639   5.046   3.077   6.757 -1.3825 -1.0063  0.6396
   13SAPS   C25 1640   5.235   3.087   6.857  0.1900 -0.8154  0.0804
   13SAPS   H5R 1641   5.299   3.113   6.771  1.2478 -0.3806  0.9935
   13SAPS   C26 1642   5.268   3.139   6.976  0.5798 -0.2522 -0.2727
   13SAPS   H6R 1643   5.367   3.185   6.990 -0.6958  2.6341 -0.5343
   13SAPS   C27 1644   5.195   3.123   7.108 -0.0224 -0.1420  0.1165
   13SAPS   H7R 1645   5.098   3.177   7.097 -0.6321 -1.0715  0.8103
   13SAPS   H7S 1646   5.254   3.181   7.181 -0.0113  2.1335 -1.6463
   13SAPS   C28 1647   5.189   2.983   7.163 -0.6391  0.0960 -0.0033
   13SAPS   H8R 1648   5.218   2.905   7.091 -2.2406  0.9106 -1.5822
   13SAPS   C29 1649   5.134   2.959   7.282  0.0661  0.7128 -0.4503
   13SAPS   H9R 1650   5.132   2.854   7.315  1.4940  0.9176  0.3156
   13SAPS  C210 1651   5.069   3.063   7.377 -0.0509 -0.1024  0.3536
   13SAPS  H10R 1652   5.001   3.124   7.314  1.5784  2.8452  1.3381
   13SAPS  H10S 1653   5.143   3.141   7.403  0.1788 -0.0940 -0.3153
   13SAPS  C211 1654   5.009   3.008   7.502  0.1671  0.3756 -0.3141
   13SAPS  H11R 1655   4.901   2.988   7.501  0.5391 -1.8221  0.7713
   13SAPS  C212 1656   5.077   2.985   7.614  0.3952  0.3298 -0.4984
   13SAPS  H12R 1657   5.024   2.923   7.687  1.3611  0.1192  0.0244
   13SAPS  C213 1658   5.221   3.016   7.640  0.3597 -0.1015  0.3586
   13SAPS  H13R 1659   5.283   3.018   7.547  0.0738 -2.2396  0.0951
   13SAPS  H13S 1660   5.269   2.934   7.699 -0.0316 -0.2211  0.5073
   13SAPS  C214 1661   5.238   3.154   7.707 -0.3905 -0.2224  0.2350
   13SAPS  H14R 1662   5.256   3.240   7.642 -1.8661 -0.1173 -0.0584
   13SAPS  C215 1663   5.228   3.179   7.835 -0.2875 -0.9131  0.1087
   13SAPS  H15R 1664   5.255   3.283   7.857  1.4148 -1.0623 -1.1466
   13SAPS  C216 1665   5.208   3.082   7.953  0.3061 -0.6924  0.9249
   13SAPS  H16R 1666   5.299   3.053   8.009  2.1802 -0.9988 -2.1951
   13SAPS  H16S 1667   5.152   2.994   7.917  1.5191 -1.8671  1.8781
   13SAPS  C217 1668   5.117   3.155   8.052 -0.3681 -1.1618  0.4026
   13SAPS  H17R 1669   5.077   3.092   8.134 -0.8945  0.6587  1.5720
   13SAPS  H17S 1670   5.030   3.196   7.995  1.4073 -0.3767 -1.8175
   13SAPS  C218 1671   5.184   3.268   8.133  0.6154  0.3080  0.1671
   13SAPS  H18R 1672   5.225   3.336   8.056 -0.1241  0.9906  0.3648
   13SAPS  H18S 1673   5.261   3.232   8.204 -0.0314  0.7652  1.1129
   13SAPS  C219 1674   5.090   3.355   8.214  0.4399  0.4373  0.6226
   13SAPS  H19R 1675   5.031   3.295   8.286  2.5424 -2.5427 -0.0379
   13SAPS  H19S 1676   5.027   3.415   8.145  1.3307  1.4139  0.6370
   13SAPS  C220 1677   5.171   3.466   8.277 -0.3141 -0.3344 -0.6823
   13SAPS  H20R 1678   5.189   3.552   8.210  0.1037  0.5585  0.5655
   13SAPS  H20S 1679   5.268   3.421   8.309 -1.0098 -2.0920 -0.9481
   13SAPS  H20T 1680   5.115   3.517   8.358  0.6135 -0.1647 -0.1456
   13SAPS   C33 1681   5.662   2.435   6.941  0.5544 -0.3079 -0.3493
   13SAPS   H3X 1682   5.676   2.545   6.930  2.1056 -0.2799  1.4633
   13SAPS   H3Y 1683   5.760   2.393   6.911 -0.1383 -0.7086 -2.0785
   13SAPS   C34 1684   5.636   2.392   7.085  0.6327 -0.2750 -0.2271
   13SAPS   H4X 1685   5.664   2.287   7.107  0.0373 -0.4531 -0.3247
   13SAPS   H4Y 1686   5.527   2.389   7.104  0.0947  3.9442 -2.0960
   13SAPS   C35 1687   5.726   2.470   7.179 -0.2091 -1.2832 -0.1526
   13SAPS   H5X 1688   5.722   2.580   7.163  0.6174 -1.1324  0.6094
   13SAPS   H5Y 1689   5.830   2.431   7.168 -0.2114 -0.8978 -1.7136
   13SAPS   C36 1690   5.679   2.441   7.323 -0.0784 -0.2983 -0.0713
   13SAPS   H6X 1691   5.688   2.331   7.335  0.7445 -0.1071  1.1342
   13SAPS   H6Y 1692   5.575   2.473   7.344 -0.8200 -2.1122 -0.8331
   13SAPS   C37 1693   5.774   2.486   7.434  0.0902 -0.3172 -0.0493
   13SAPS   H7X 1694   5.794   2.594   7.416 -0.6992  0.1441  1.7834
   13SAPS   H7Y 1695   5.868   2.427   7.424  0.4699  0.3027 -0.1309
   13SAPS   C38 1696   5.717   2.462   7.572 -0.8031  0.4583  0.4103
   13SAPS   H8X 1697   5.667   2.363   7.563 -1.1215  0.7404 -1.1086
   13SAPS   H8Y 1698   5.649   2.547   7.592  0.6154  1.4892  0.8955
   13SAPS   C39 1699   5.830   2.458   7.676 -0.1859  0.9342 -0.9464
   13SAPS   H9X 1700   5.879   2.557   7.672  1.8772  0.0071  0.5755
   13SAPS   H9Y 1701   5.913   2.390   7.648 -1.1427 -0.6644 -0.0316
   13SAPS  C310 1702   5.781   2.420   7.818 -0.0622 -0.3149  0.1610
   13SAPS  H10X 1703   5.874   2.379   7.862 -1.0667  0.5208  3.2109
   13SAPS  H10Y 1704   5.701   2.342   7.825  0.5527 -0.9332  0.3834
   13SAPS  C311 1705   5.721   2.543   7.896 -0.0708 -0.6625  0.1456
   13SAPS  H11X 1706   5.655   2.598   7.826  0.0242 -0.3018  0.3382
   13SAPS  H11Y 1707   5.783   2.629   7.928 -1.2231  0.6039 -0.9436
   13SAPS  C312 1708   5.637   2.501   8.023 -0.1045  0.1191 -0.8891
   13SAPS  H12X 1709   5.556   2.432   7.991 -3.2065  4.2478 -2.3495
   13SAPS  H12Y 1710   5.579   2.582   8.071  1.7752  0.2045  1.2929
   13SAPS  C313 1711   5.717   2.433   8.132 -0.1350 -0.1458 -0.1792
   13SAPS  H13X 1712   5.767   2.510   8.195 -1.9397  0.3687  0.6516
   13SAPS  H13Y 1713   5.791   2.358   8.096  0.2240  0.0925  0.0661
   13SAPS  C314 1714   5.627   2.357   8.228 -0.5340  0.5424  0.4428
   13SAPS  H14X 1715   5.577   2.272   8.177 -0.8045  0.2585  1.1733
   13SAPS  H14Y 1716   5.544   2.426   8.253 -0.1387  1.3652 -0.4912
   13SAPS  C315 1717   5.691   2.314   8.358 -0.5248  0.2107 -0.0476
   13SAPS  H15X 1718   5.716   2.407   8.415  0.4181  2.1232 -3.4448
   13SAPS  H15Y 1719   5.781   2.249   8.353  1.0581  2.3646 -0.7720
   13SAPS  C316 1720   5.581   2.237   8.438 -0.2856 -0.3958  0.1317
   13SAPS  H16X 1721   5.583   2.133   8.398 -0.4635 -0.2009 -0.3862
   13SAPS  H16Y 1722   5.480   2.279   8.419 -0.4741  0.4215  2.7287
   13SAPS  C317 1723   5.605   2.216   8.586 -0.7464 -0.4007  0.1763
   13SAPS  H17X 1724   5.528   2.147   8.628  0.4732 -0.9854  1.5106
   13SAPS  H17Y 1725   5.589   2.314   8.634 -0.8251 -0.4548  0.2614
   13SAPS  C318 1726   5.743   2.156   8.621 -0.0025 -0.0476  0.1069
   13SAPS  H18X 1727   5.829   2.206   8.572  0.1297 -1.7815 -1.4949
   13SAPS  H18Y 1728   5.732   2.051   8.586  1.3847 -0.1781  0.0380
   13SAPS  H18Z 1729   5.760   2.127   8.727 -0.4079 -0.3273  0.1001
   14SAPS     N 1730   4.991   5.100   5.688  0.8641 -0.3828  0.2339
   14SAPS   HN1 1731   5.004   5.136   5.785  0.0768  0.9672 -0.1494
   14SAPS   HN2 1732   4.912   5.157   5.653  3.3728  4.8428  2.4397
   14SAPS   HN3 1733   4.960   5.002   5.704 -3.2135  1.0359  1.6345
   14SAPS   C12 1734   5.103   5.121   5.594 -0.1296  0.1779  0.4948
   14SAPS  H12A 1735   5.121   5.034   5.533 -1.4673 -1.0171  1.7721
   14SAPS   C13 1736   5.073   5.224   5.485  0.5141 -0.0132 -0.7937
   14SAPS  O13A 1737   4.958   5.267   5.474  0.2228 -0.5709 -0.3844
   14SAPS  O13B 1738   5.170   5.281   5.429 -0.2442 -0.2765  0.4068
   14SAPS   C11 1739   5.230   5.157   5.677  0.7127  0.0769  0.0379
   14SAPS  H11A 1740   5.218   5.260   5.718 -2.4456 -1.9388  4.4531
   14SAPS  H11B 1741   5.322   5.161   5.614 -0.2630 -1.6295 -1.5398
   14SAPS     P 1742   5.406   5.044   5.824 -0.7582  0.1823 -0.4346
   14SAPS   O13 1743   5.481   4.927   5.765  0.1423  0.1046 -0.5021
   14SAPS   O14 1744   5.487   5.167   5.821  0.0219 -0.7982 -0.0180
   14SAPS   O12 1745   5.261   5.068   5.779  0.3031  0.2738  0.0385
   14SAPS   O11 1746   5.386   5.011   5.974 -1.3315 -0.0699  0.4819
   14SAPS    C1 1747   5.297   5.092   6.052  1.0182  0.4535 -0.2301
   14SAPS    HA 1748   5.357   5.163   6.112  0.6762  0.5822 -0.0356
   14SAPS    HB 1749   5.234   5.162   5.991  2.7320  0.4710 -2.0345
   14SAPS    C2 1750   5.215   5.002   6.148 -0.3055  0.5513  0.7482
   14SAPS    HS 1751   5.128   5.055   6.191  0.1593  2.5592 -0.7367
   14SAPS   O21 1752   5.292   4.951   6.253 -0.2527 -0.4020  0.2120
   14SAPS   C21 1753   5.307   5.033   6.361  0.2915 -0.6410  0.4283
   14SAPS   O22 1754   5.267   5.149   6.374  0.7030 -0.1691  0.2590
   14SAPS   C22 1755   5.393   4.959   6.458 -0.1600 -0.6209  0.3724
   14SAPS   H2R 1756   5.386   4.850   6.437 -0.4421 -0.2904 -1.3409
   14SAPS   H2S 1757   5.499   4.988   6.444  0.5281 -3.0285  0.3243
   14SAPS    C3 1758   5.159   4.876   6.063  0.2594 -0.1603 -0.1065
   14SAPS    HX 1759   5.227   4.834   5.986  0.0568 -1.5967  0.4870
   14SAPS    HY 1760   5.081   4.915   5.995  0.1322  0.9391  0.6613
   14SAPS   O31 1761   5.092   4.772   6.140  0.2635 -0.1589 -0.7530
   14SAPS   C31 1762   5.164   4.680   6.181 -0.2922 -0.2621  0.1272
   14SAPS   O32 1763   5.284   4.656   6.156 -0.2702  0.3238 -0.0862
   14SAPS   C32 1764   5.085   4.599   6.281  0.6286  0.1041 -0.4804
   14SAPS   H2X 1765   5.043   4.504   6.241  0.7518 -0.2744  0.2833
   14SAPS   H2Y 1766   4.991   4.657   6.294  0.1151 -0.5737 -1.1088
   14SAPS   C23 1767   5.351   4.989   6.605  0.7149  0.7617  0.4729
   14SAPS   H3R 1768   5.240   4.983   6.610  0.7888 -2.6078 -0.4431
   14SAPS   H3S 1769   5.378   5.092   6.636  0.2383  0.6367  1.2987
   14SAPS   C24 1770   5.412   4.876   6.697 -0.2497  0.1458  0.1770
   14SAPS   H4R 1771   5.413   4.779   6.644 -2.5095  1.1263 -1.7756
   14SAPS   H4S 1772   5.339   4.867   6.781 -3.6081 -1.7071 -2.7748
   14SAPS   C25 1773   5.547   4.921   6.740 -0.3498 -0.6212  0.3574
   14SAPS   H5R 1774   5.623   4.898   6.664 -2.0177  1.1906 -1.9383
   14SAPS   C26 1775   5.575   4.980   6.859  0.0210 -0.2517 -0.3722
   14SAPS   H6R 1776   5.678   5.013   6.875 -1.0131  1.7573  2.3986
   14SAPS   C27 1777   5.475   5.013   6.968 -0.5060  0.3220 -0.2079
   14SAPS   H7R 1778   5.458   4.927   7.036  3.6891 -0.9231 -0.6204
   14SAPS   H7S 1779   5.379   5.029   6.915 -0.5641 -0.1920 -0.2597
   14SAPS   C28 1780   5.507   5.149   7.034 -0.7921  0.3819  0.1788
   14SAPS   H8R 1781   5.455   5.234   6.986 -1.5904 -0.0166  0.3222
   14SAPS   C29 1782   5.565   5.162   7.155 -0.3548 -0.6379  0.6813
   14SAPS   H9R 1783   5.587   5.264   7.189 -1.9849  0.3953 -1.2327
   14SAPS  C210 1784   5.625   5.049   7.239 -0.3242 -0.1817  0.2367
   14SAPS  H10R 1785   5.722   5.088   7.277 -0.4724 -0.5016  0.9540
   14SAPS  H10S 1786   5.649   4.964   7.172  0.5840 -0.3106  0.7187
   14SAPS  C211 1787   5.532   5.001   7.353 -0.1282  0.4825  0.2525
   14SAPS  H11R 1788   5.449   4.943   7.310 -0.2588  2.3027 -2.0531
   14SAPS  C212 1789   5.549   5.034   7.484  0.5784  0.0303  0.3212
   14SAPS  H12R 1790   5.476   4.993   7.556 -0.3591  0.5995 -0.3048
   14SAPS  C213 1791   5.655   5.128   7.530  0.3564  0.5437  0.3872
   14SAPS  H13R 1792   5.621   5.227   7.493  1.6647  0.7923 -0.1667
   14SAPS  H13S 1793   5.751   5.132   7.475  0.3646 -0.8903  0.2738
   14SAPS  C214 1794   5.682   5.119   7.677 -0.2327  0.8089  0.5488
   14SAPS  H14R 1795   5.705   5.021   7.722  0.3277  0.9358  0.5416
   14SAPS  C215 1796   5.661   5.221   7.763 -0.1666 -0.6491 -0.5212
   14SAPS  H15R 1797   5.667   5.213   7.872  0.4075  0.6365 -0.4450
   14SAPS  C216 1798   5.623   5.364   7.722 -0.4599  0.2866  0.3236
   14SAPS  H16R 1799   5.593   5.427   7.809  0.8924  1.1262  0.2156
   14SAPS  H16S 1800   5.532   5.365   7.659 -1.2372  2.9536  1.3891
   14SAPS  C217 1801   5.735   5.437   7.651 -0.1347  0.4750  0.2061
   14SAPS  H17R 1802   5.789   5.365   7.585 -0.7629 -1.9431  2.2644
   14SAPS  H17S 1803   5.811   5.477   7.722  1.4035 -0.6913 -0.7542
   14SAPS  C218 1804   5.685   5.557   7.565  0.4008 -0.4526 -0.3250
   14SAPS  H18R 1805   5.773   5.615   7.531  0.9814 -0.8673  0.4729
   14SAPS  H18S 1806   5.627   5.619   7.637  2.2514  2.1678 -1.0035
   14SAPS  C219 1807   5.604   5.523   7.438 -0.0936  0.1224  0.9836
   14SAPS  H19R 1808   5.500   5.503   7.472 -0.6992  1.2790 -0.1327
   14SAPS  H19S 1809   5.640   5.433   7.383  0.8854  1.3555 -0.4266
   14SAPS  C220 1810   5.599   5.638   7.337  0.2927 -0.0845  0.1875
   14SAPS  H20R 1811   5.698   5.645   7.287  0.8677  1.8933  1.5425
   14SAPS  H20S 1812   5.592   5.737   7.388  2.3271 -0.2132  0.7572
   14SAPS  H20T 1813   5.518   5.622   7.263 -0.4000  2.1542  0.4215
   14SAPS   C33 1814   5.153   4.582   6.417  0.2796 -0.5056  0.0284
   14SAPS   H3X 1815   5.170   4.682   6.462  1.2872 -0.6692  0.0074
   14SAPS   H3Y 1816   5.252   4.533   6.411  1.1290  1.0581  1.1543
   14SAPS   C34 1817   5.062   4.497   6.512 -0.0223 -0.1758  0.4059
   14SAPS   H4X 1818   5.043   4.399   6.463 -1.3648  0.5420 -0.5552
   14SAPS   H4Y 1819   4.964   4.548   6.526 -0.4605 -0.5533 -1.2235
   14SAPS   C35 1820   5.119   4.472   6.649 -1.1945 -0.3544 -1.1447
   14SAPS   H5X 1821   5.221   4.428   6.649 -0.1152  1.9967  1.0910
   14SAPS   H5Y 1822   5.064   4.398   6.710  0.0901  1.9738  3.0940
   14SAPS   C36 1823   5.141   4.607   6.732  0.2753 -0.0181  0.4134
   14SAPS   H6X 1824   5.043   4.657   6.740  0.0726  0.1766 -2.5550
   14SAPS   H6Y 1825   5.205   4.678   6.674  0.8269 -1.3748 -0.6716
   14SAPS   C37 1826   5.201   4.594   6.867  0.4306  0.3546  0.5497
   14SAPS   H7X 1827   5.311   4.578   6.866 -0.0091 -2.8926  1.5212
   14SAPS   H7Y 1828   5.164   4.506   6.923 -0.1109  0.0163 -0.3200
   14SAPS   C38 1829   5.177   4.719   6.955  0.5768 -0.2648  0.3568
   14SAPS   H8X 1830   5.162   4.807   6.889 -1.6816 -0.4533  0.5786
   14SAPS   H8Y 1831   5.265   4.739   7.019  2.3074 -4.7080 -0.4307
   14SAPS   C39 1832   5.052   4.703   7.040 -0.9863  0.1736 -0.3699
   14SAPS   H9X 1833   5.065   4.604   7.091 -0.4675  0.1458 -0.5532
   14SAPS   H9Y 1834   4.967   4.693   6.970 -2.3053  3.7242  0.6138
   14SAPS  C310 1835   5.026   4.806   7.149  0.3495  0.3900  0.0200
   14SAPS  H10X 1836   4.928   4.778   7.194  0.3858  0.5341  0.1861
   14SAPS  H10Y 1837   5.005   4.898   7.090 -1.3053 -0.8725 -1.4072
   14SAPS  C311 1838   5.121   4.814   7.278  0.4458  0.0884  0.0169
   14SAPS  H11X 1839   5.201   4.884   7.246 -0.2439  1.6661  1.6360
   14SAPS  H11Y 1840   5.160   4.711   7.292 -0.1790 -0.0053  1.1297
   14SAPS  C312 1841   5.050   4.862   7.408  0.1238  0.3503  0.4490
   14SAPS  H12X 1842   4.977   4.782   7.428  0.9250 -1.0147 -1.9364
   14SAPS  H12Y 1843   4.997   4.958   7.388  0.1548  0.7035  1.9680
   14SAPS  C313 1844   5.142   4.884   7.527 -0.5398 -0.3240  0.1889
   14SAPS  H13X 1845   5.219   4.960   7.501 -1.8172  1.5578  1.7464
   14SAPS  H13Y 1846   5.197   4.792   7.557  0.1054 -0.2222 -0.6526
   14SAPS  C314 1847   5.066   4.930   7.648 -0.0148 -0.3683 -0.1033
   14SAPS  H14X 1848   5.007   4.843   7.683 -1.4905  1.3833  1.8859
   14SAPS  H14Y 1849   4.983   4.992   7.606 -0.6476 -0.9848  0.2195
   14SAPS  C315 1850   5.149   4.997   7.759  0.3977 -0.3936  0.0641
   14SAPS  H15X 1851   5.081   5.028   7.841 -1.1132 -1.5500 -0.7250
   14SAPS  H15Y 1852   5.206   5.083   7.719  0.0003 -1.4594 -2.9384
   14SAPS  C316 1853   5.248   4.896   7.826 -0.9431 -1.0889 -0.2318
   14SAPS  H16X 1854   5.318   4.868   7.744  0.7971  0.7956  0.5659
   14SAPS  H16Y 1855   5.214   4.795   7.857  0.1750 -1.1619  0.8253
   14SAPS  C317 1856   5.340   4.964   7.929 -0.2486  0.0969  0.4683
   14SAPS  H17X 1857   5.279   4.980   8.021 -0.7260  0.2304  0.1245
   14SAPS  H17Y 1858   5.384   5.058   7.890 -1.1606 -0.2811 -1.5082
   14SAPS  C318 1859   5.461   4.875   7.960 -0.0408 -0.2956 -0.3803
   14SAPS  H18X 1860   5.517   4.854   7.866  1.2646  4.2758 -0.7517
   14SAPS  H18Y 1861   5.432   4.780   8.008  0.2656 -0.7257 -1.0451
   14SAPS  H18Z 1862   5.524   4.939   8.026  0.5294  0.4826 -1.6593
   15SAPS     N 1863   5.200   4.192   5.927  0.5231 -0.0537 -0.0096
   15SAPS   HN1 1864   5.221   4.221   6.024  2.2726  1.7196 -0.8829
   15SAPS   HN2 1865   5.292   4.204   5.878 -0.0614 -0.3565 -1.2117
   15SAPS   HN3 1866   5.139   4.263   5.883  1.8168  0.2524 -1.3628
   15SAPS   C12 1867   5.154   4.049   5.904 -0.7000  0.2250  0.4754
   15SAPS  H12A 1868   5.081   4.023   5.979 -1.0211  0.4042  0.2239
   15SAPS   C13 1869   5.075   4.029   5.767 -1.3695 -1.0657  0.3955
   15SAPS  O13A 1870   5.053   4.130   5.689 -0.0282 -0.3041 -0.1293
   15SAPS  O13B 1871   5.011   3.926   5.759  0.2894  0.2262  0.4632
   15SAPS   C11 1872   5.281   3.953   5.911 -0.3713  0.1285  0.0197
   15SAPS  H11A 1873   5.349   3.957   5.823  1.6533  1.1431  1.6031
   15SAPS  H11B 1874   5.245   3.848   5.908 -0.4827  0.1955 -1.3097
   15SAPS     P 1875   5.501   3.924   6.055  0.1062 -0.0828 -0.0220
   15SAPS   O13 1876   5.527   3.780   6.046 -0.5740 -0.0219  0.1559
   15SAPS   O14 1877   5.586   4.003   5.964 -0.2387  0.0880 -0.0991
   15SAPS   O12 1878   5.351   3.974   6.034 -0.0521 -0.1784  0.0003
   15SAPS   O11 1879   5.530   3.968   6.199  0.0620 -0.2599 -0.3306
   15SAPS    C1 1880   5.432   3.969   6.301 -0.0648 -0.7189 -0.5006
   15SAPS    HA 1881   5.348   4.033   6.266 -1.5618 -2.4910 -0.2513
   15SAPS    HB 1882   5.391   3.865   6.297  2.4646 -1.8106  0.9147
   15SAPS    C2 1883   5.482   4.005   6.446 -0.2420 -0.3288 -0.6017
   15SAPS    HS 1884   5.390   3.999   6.508 -0.7046  0.9316 -1.1495
   15SAPS   O21 1885   5.557   4.130   6.449  0.0506 -0.6700  0.0529
   15SAPS   C21 1886   5.490   4.237   6.426 -0.2700  0.3621 -0.5581
   15SAPS   O22 1887   5.368   4.247   6.429  0.1352  0.7933 -0.0074
   15SAPS   C22 1888   5.599   4.349   6.396  0.1375  0.1300  0.1145
   15SAPS   H2R 1889   5.701   4.307   6.389 -0.3112 -0.7471 -1.4435
   15SAPS   H2S 1890   5.582   4.371   6.288  1.0905  1.7170  0.2737
   15SAPS    C3 1891   5.574   3.893   6.501  0.4148  0.0699 -0.6415
   15SAPS    HX 1892   5.668   3.903   6.442  0.3046  1.7476 -0.5540
   15SAPS    HY 1893   5.524   3.798   6.471  0.4342  0.1843 -1.0346
   15SAPS   O31 1894   5.614   3.907   6.644  0.0687  0.8614  0.5869
   15SAPS   C31 1895   5.535   3.846   6.729 -0.1952 -1.4790  0.4220
   15SAPS   O32 1896   5.427   3.791   6.708 -0.1756 -0.3778  0.2403
   15SAPS   C32 1897   5.579   3.885   6.873  0.4407  0.5650  0.2162
   15SAPS   H2X 1898   5.688   3.868   6.887  0.0741 -0.1439  2.5085
   15SAPS   H2Y 1899   5.527   3.817   6.944  0.6983  1.4283  1.2556
   15SAPS   C23 1900   5.582   4.475   6.482  0.6372 -0.1317  0.2835
   15SAPS   H3R 1901   5.484   4.459   6.532 -0.3404 -1.1957 -1.8885
   15SAPS   H3S 1902   5.576   4.562   6.414  0.8230  0.4212  0.9710
   15SAPS   C24 1903   5.695   4.488   6.581  0.2261  0.7620 -0.0307
   15SAPS   H4R 1904   5.713   4.586   6.632 -0.1065  0.9969 -0.3650
   15SAPS   H4S 1905   5.788   4.485   6.520 -0.9727 -0.0431 -1.8490
   15SAPS   C25 1906   5.688   4.373   6.677 -0.2536 -0.1919 -0.3135
   15SAPS   H5R 1907   5.733   4.281   6.638 -1.0183  0.0825 -1.9011
   15SAPS   C26 1908   5.652   4.374   6.807  0.2848 -0.2817 -0.0272
   15SAPS   H6R 1909   5.638   4.275   6.851 -0.5658 -0.1785 -0.0601
   15SAPS   C27 1910   5.608   4.493   6.883 -1.2227  0.5266  0.0681
   15SAPS   H7R 1911   5.498   4.485   6.896 -1.1952  0.8276  0.4697
   15SAPS   H7S 1912   5.622   4.591   6.833  2.6334  0.1160  0.2468
   15SAPS   C28 1913   5.683   4.482   7.016 -0.1087  0.3440 -0.1758
   15SAPS   H8R 1914   5.792   4.470   7.009  0.1457  0.5092  2.7936
   15SAPS   C29 1915   5.629   4.467   7.141  0.1343  0.2987 -0.2978
   15SAPS   H9R 1916   5.698   4.447   7.224 -0.4246  1.4964  0.4771
   15SAPS  C210 1917   5.485   4.464   7.172 -0.4279  0.2174 -0.5926
   15SAPS  H10R 1918   5.471   4.382   7.245  2.5513 -0.1117 -0.3376
   15SAPS  H10S 1919   5.426   4.445   7.080 -3.3007  0.3267  1.1454
   15SAPS  C211 1920   5.433   4.596   7.230 -0.0207  1.0826  0.0187
   15SAPS  H11R 1921   5.389   4.659   7.151 -0.1886  2.0974  0.9090
   15SAPS  C212 1922   5.432   4.635   7.358  0.6850  0.2051 -0.7940
   15SAPS  H12R 1923   5.391   4.734   7.383 -0.7141  0.5864 -4.2993
   15SAPS  C213 1924   5.491   4.552   7.472  0.1721 -0.0619  0.1454
   15SAPS  H13R 1925   5.512   4.446   7.449  1.1331  0.1856 -0.1721
   15SAPS  H13S 1926   5.402   4.558   7.539 -0.8391 -3.0622 -0.8748
   15SAPS  C214 1927   5.620   4.606   7.526 -0.3432 -0.1641  0.1722
   15SAPS  H14R 1928   5.658   4.692   7.469 -1.8274 -0.3367 -1.1269
   15SAPS  C215 1929   5.713   4.537   7.598 -0.3962  0.3925 -0.4370
   15SAPS  H15R 1930   5.794   4.600   7.637  0.6669 -1.0086 -0.3214
   15SAPS  C216 1931   5.702   4.400   7.659 -0.0688  0.3842 -0.0793
   15SAPS  H16R 1932   5.768   4.331   7.601 -2.3643 -0.0925 -2.2378
   15SAPS  H16S 1933   5.602   4.354   7.646  0.2276 -0.6183  1.0944
   15SAPS  C217 1934   5.742   4.394   7.808  0.1497 -0.6746  0.5015
   15SAPS  H17R 1935   5.851   4.413   7.822  0.2410  0.0181 -1.0571
   15SAPS  H17S 1936   5.726   4.287   7.832  0.0596 -0.2332  2.5593
   15SAPS  C218 1937   5.669   4.493   7.894  0.6219 -0.7180 -0.5051
   15SAPS  H18R 1938   5.560   4.495   7.872  0.7159 -1.3369 -1.0618
   15SAPS  H18S 1939   5.705   4.588   7.849 -0.8774  0.2771  0.3584
   15SAPS  C219 1940   5.708   4.471   8.038  0.0606  0.1994 -0.4486
   15SAPS  H19R 1941   5.811   4.512   8.044 -1.1614  3.4656 -0.7812
   15SAPS  H19S 1942   5.708   4.367   8.077  0.1991  1.3020  2.6586
   15SAPS  C220 1943   5.617   4.541   8.135  0.4339 -0.2424 -0.0482
   15SAPS  H20R 1944   5.655   4.535   8.239 -0.6601  0.3502  0.3939
   15SAPS  H20S 1945   5.511   4.508   8.146  0.3834  0.3080  1.1637
   15SAPS  H20T 1946   5.610   4.649   8.112  0.7329 -0.2047  0.0381
   15SAPS   C33 1947   5.539   4.032   6.902 -0.1504  0.1723  0.0837
   15SAPS   H3X 1948   5.428   4.040   6.892 -0.1600  1.2298  0.9763
   15SAPS   H3Y 1949   5.583   4.093   6.820  0.6305 -1.3665 -0.6492
   15SAPS   C34 1950   5.593   4.086   7.034 -0.2719 -0.0502 -0.2215
   15SAPS   H4X 1951   5.579   4.194   7.059  0.9641 -0.2832  1.5896
   15SAPS   H4Y 1952   5.703   4.072   7.024  0.2082  2.9724  0.2567
   15SAPS   C35 1953   5.530   4.012   7.148  0.1012  0.4356  0.3461
   15SAPS   H5X 1954   5.539   3.902   7.137  2.7260  0.8947 -3.1261
   15SAPS   H5Y 1955   5.420   4.029   7.148 -0.0898 -0.7191 -0.9179
   15SAPS   C36 1956   5.583   4.050   7.286 -0.3045  0.0047  0.1662
   15SAPS   H6X 1957   5.582   4.161   7.290 -1.9981 -0.0224  0.7368
   15SAPS   H6Y 1958   5.690   4.023   7.304 -0.9574 -2.3607  0.7417
   15SAPS   C37 1959   5.492   3.997   7.395 -0.6505  0.1268 -0.4094
   15SAPS   H7X 1960   5.512   3.889   7.417 -1.2818  0.0172 -0.3651
   15SAPS   H7Y 1961   5.385   4.017   7.371 -2.0061 -0.7512  4.4231
   15SAPS   C38 1962   5.528   4.068   7.531  0.0739  0.4015  0.1421
   15SAPS   H8X 1963   5.481   4.168   7.530 -0.6180  0.1591  3.7807
   15SAPS   H8Y 1964   5.639   4.079   7.525 -0.0805  1.1794 -1.9010
   15SAPS   C39 1965   5.493   3.988   7.652  0.5783 -0.0781  0.0244
   15SAPS   H9X 1966   5.539   3.887   7.646 -1.2768 -0.9547  0.2475
   15SAPS   H9Y 1967   5.385   3.966   7.650  0.3136  1.2170 -0.5612
   15SAPS  C310 1968   5.539   4.054   7.781 -0.2192  0.2071 -0.5302
   15SAPS  H10X 1969   5.543   4.163   7.763 -0.7694  0.0297 -1.7523
   15SAPS  H10Y 1970   5.648   4.037   7.795  0.4937  3.3895 -1.9889
   15SAPS  C311 1971   5.456   4.016   7.906  0.4185  0.1130 -0.6604
   15SAPS  H11X 1972   5.460   3.906   7.919  1.0286  0.3565  1.4504
   15SAPS  H11Y 1973   5.353   4.047   7.879  0.2224  0.0547  0.0039
   15SAPS  C312 1974   5.498   4.100   8.030  0.7128 -0.4153  0.5692
   15SAPS  H12X 1975   5.475   4.206   8.005 -1.2777 -1.1209 -0.7267
   15SAPS  H12Y 1976   5.609   4.096   8.034  0.8326  1.5216  0.0136
   15SAPS  C313 1977   5.439   4.051   8.166  0.6028 -0.1230  0.5669
   15SAPS  H13X 1978   5.474   3.947   8.186 -0.1931 -0.5450 -0.1988
   15SAPS  H13Y 1979   5.328   4.054   8.158  0.6600  1.5642  0.2921
   15SAPS  C314 1980   5.470   4.131   8.288 -0.4310  0.0812  0.5312
   15SAPS  H14X 1981   5.412   4.084   8.371  2.3932 -3.7337  0.5022
   15SAPS  H14Y 1982   5.440   4.237   8.281  0.0444  0.1911  0.1361
   15SAPS  C315 1983   5.620   4.118   8.328 -0.5462 -0.4174  0.1224
   15SAPS  H15X 1984   5.677   4.155   8.240 -0.0633 -1.3827  0.0240
   15SAPS  H15Y 1985   5.638   4.009   8.332  0.4841 -0.2554  0.1899
   15SAPS  C316 1986   5.661   4.219   8.436  0.0208  0.1290 -1.0211
   15SAPS  H16X 1987   5.617   4.183   8.532 -1.8484 -1.2694 -2.3541
   15SAPS  H16Y 1988   5.618   4.317   8.410  0.2133  0.3646 -0.4603
   15SAPS  C317 1989   5.821   4.240   8.442  0.3159 -0.3317  0.2566
   15SAPS  H17X 1990   5.856   4.135   8.455 -0.7519 -0.5149  1.7716
   15SAPS  H17Y 1991   5.845   4.293   8.536 -1.2052 -2.0145  1.6263
   15SAPS  C318 1992   5.892   4.314   8.324  0.3461 -0.5757  0.2522
   15SAPS  H18X 1993   5.865   4.422   8.320 -1.1997 -0.9205  1.3258
   15SAPS  H18Y 1994   5.860   4.278   8.224 -2.0715  1.1552  0.3580
   15SAPS  H18Z 1995   6.003   4.309   8.336  0.4949  0.3356 -0.6111
   16SAPS     N 1996   0.666   0.082   6.362  0.3219  0.2615 -0.3248
   16SAPS   HN1 1997   0.715  -0.000   6.402  1.3990  0.5198 -1.0878
   16SAPS   HN2 1998   0.732   0.149   6.316  1.0492  1.1621  1.9580
   16SAPS   HN3 1999   0.615   0.130   6.438 -0.8733 -1.1664 -0.2018
   16SAPS   C12 2000   0.570   0.014   6.268  0.7783 -0.4895  0.6991
   16SAPS  H12A 2001   0.513   0.093   6.223  0.3975 -0.0338  1.9586
   16SAPS   C13 2002   0.636  -0.065   6.157  0.7603  0.1919  0.0430
   16SAPS  O13A 2003   0.761  -0.056   6.136  0.1764  0.1309  0.5624
   16SAPS  O13B 2004   0.560  -0.123   6.077  0.2019 -0.0298  0.0793
   16SAPS   C11 2005   0.471  -0.073   6.360  0.8542  0.4371 -0.5904
   16SAPS  H11A 2006   0.521  -0.164   6.398  0.0760 -0.1850 -1.0353
   16SAPS  H11B 2007   0.388  -0.106   6.293  1.9903 -1.9465 -0.8663
   16SAPS     P 2008   0.281   0.025   6.509 -0.3957  0.3464  0.0974
   16SAPS   O13 2009   0.277   0.137   6.605 -0.0998 -0.0041  0.7509
   16SAPS   O14 2010   0.189   0.028   6.391  0.5608  0.3902 -0.4623
   16SAPS   O12 2011   0.420  -0.001   6.469 -0.3969 -0.5185  0.5735
   16SAPS   O11 2012   0.246  -0.111   6.600 -0.0314 -0.7550  0.2895
   16SAPS    C1 2013   0.330  -0.131   6.713  0.4076  0.5926 -0.1238
   16SAPS    HA 2014   0.361  -0.237   6.709 -0.3306  0.3355  0.9029
   16SAPS    HB 2015   0.424  -0.072   6.701 -0.1653  1.6771  0.6180
   16SAPS    C2 2016   0.264  -0.101   6.855 -0.3184  0.0616  0.1773
   16SAPS    HS 2017   0.311  -0.009   6.894 -0.5065  1.1033 -1.9631
   16SAPS   O21 2018   0.270  -0.209   6.951  0.3247  0.1699  0.2277
   16SAPS   C21 2019   0.383  -0.277   6.966  0.0548 -0.7590 -0.1388
   16SAPS   O22 2020   0.494  -0.242   6.922  0.3423  0.1547  0.0102
   16SAPS   C22 2021   0.350  -0.414   7.022  0.0391  0.4781  0.0956
   16SAPS   H2R 2022   0.319  -0.485   6.942  1.6871 -0.2140  0.0527
   16SAPS   H2S 2023   0.447  -0.450   7.063 -0.7335 -0.1140  1.4114
   16SAPS    C3 2024   0.112  -0.067   6.843 -0.3296  0.4458 -0.7205
   16SAPS    HX 2025   0.070  -0.160   6.799  1.6677 -0.4067 -0.8809
   16SAPS    HY 2026   0.104   0.001   6.756  1.3578  0.5680 -0.7783
   16SAPS   O31 2027   0.053  -0.036   6.972  0.3859 -0.1102 -0.2509
   16SAPS   C31 2028  -0.078  -0.016   6.959  0.6115  0.5635  0.5030
   16SAPS   O32 2029  -0.135  -0.033   6.852 -0.3396 -0.3315  0.4089
   16SAPS   C32 2030  -0.140   0.032   7.092  0.3959 -0.3212  0.2793
   16SAPS   H2X 2031  -0.234   0.087   7.068 -0.3238 -1.3859  0.6332
   16SAPS   H2Y 2032  -0.062   0.089   7.146  0.4158 -0.5072  0.4456
   16SAPS   C23 2033   0.238  -0.417   7.136 -0.4404  0.7173 -0.8443
   16SAPS   H3R 2034   0.165  -0.493   7.100 -2.2068  2.6485 -1.3831
   16SAPS   H3S 2035   0.188  -0.324   7.169 -0.5158 -0.1183  1.5139
   16SAPS   C24 2036   0.306  -0.471   7.265  0.1374  0.2873 -0.4998
   16SAPS   H4R 2037   0.341  -0.575   7.246 -2.1368 -0.5519 -0.2644
   16SAPS   H4S 2038   0.222  -0.492   7.334 -0.9381  1.6973 -1.3490
   16SAPS   C25 2039   0.411  -0.380   7.311 -0.9755 -0.2704  0.3428
   16SAPS   H5R 2040   0.365  -0.284   7.341  0.5143  0.4906  0.2426
   16SAPS   C26 2041   0.546  -0.397   7.311  0.5413 -0.2660  0.5782
   16SAPS   H6R 2042   0.617  -0.328   7.359  0.9524  0.0664 -0.4944
   16SAPS   C27 2043   0.635  -0.512   7.253  0.1270  0.1640 -0.3122
   16SAPS   H7R 2044   0.703  -0.490   7.168  0.1902 -4.1968 -1.5492
   16SAPS   H7S 2045   0.574  -0.595   7.211 -2.0536  0.5885  1.8422
   16SAPS   C28 2046   0.722  -0.576   7.364  0.4958 -0.5132 -0.1342
   16SAPS   H8R 2047   0.828  -0.547   7.366  0.3548 -0.0910  1.3967
   16SAPS   C29 2048   0.684  -0.664   7.464  0.1572 -0.3692  0.3804
   16SAPS   H9R 2049   0.756  -0.712   7.532  1.0936  0.3420 -0.0995
   16SAPS  C210 2050   0.538  -0.707   7.482 -0.7278  0.0510  0.5986
   16SAPS  H10R 2051   0.529  -0.810   7.442  1.7281  0.6838 -1.7072
   16SAPS  H10S 2052   0.460  -0.644   7.436 -1.5477 -0.3277  1.4399
   16SAPS  C211 2053   0.514  -0.690   7.628 -0.3782 -0.7718  0.4089
   16SAPS  H11R 2054   0.563  -0.605   7.678 -0.5274 -0.7884  0.5836
   16SAPS  C212 2055   0.427  -0.758   7.703  0.5127 -0.1339  0.3817
   16SAPS  H12R 2056   0.405  -0.722   7.804  0.7049  2.4196 -0.4491
   16SAPS  C213 2057   0.332  -0.869   7.659  0.9797 -0.7165  0.2054
   16SAPS  H13R 2058   0.264  -0.833   7.580 -1.6943 -2.0948  1.8140
   16SAPS  H13S 2059   0.271  -0.883   7.751  0.5013  1.4736  0.2548
   16SAPS  C214 2060   0.391  -1.005   7.627  0.3302  0.5085  0.6385
   16SAPS  H14R 2061   0.390  -1.029   7.520 -0.5214  2.0888  0.2703
   16SAPS  C215 2062   0.453  -1.090   7.711 -0.4980 -0.2714  0.0187
   16SAPS  H15R 2063   0.480  -1.191   7.676 -1.2265 -0.1038 -1.0546
   16SAPS  C216 2064   0.469  -1.065   7.854 -0.2972  0.2145 -0.0878
   16SAPS  H16R 2065   0.494  -0.958   7.871  2.5350 -0.3453 -0.5025
   16SAPS  H16S 2066   0.552  -1.129   7.889  0.4656  0.7856 -0.8324
   16SAPS  C217 2067   0.348  -1.114   7.927 -0.1193  0.5817 -0.7258
   16SAPS  H17R 2068   0.327  -1.223   7.919 -1.1052  0.7464 -0.5049
   16SAPS  H17S 2069   0.258  -1.052   7.908 -1.7880 -1.0359  1.5084
   16SAPS  C218 2070   0.370  -1.092   8.082  0.1488  0.2226 -0.0085
   16SAPS  H18R 2071   0.386  -0.983   8.098 -0.7073 -0.0166  2.6059
   16SAPS  H18S 2072   0.463  -1.150   8.098 -0.5263 -0.4097  1.7069
   16SAPS  C219 2073   0.241  -1.124   8.156 -1.1170 -0.7625  0.4609
   16SAPS  H19R 2074   0.210  -1.229   8.134  0.6821 -1.1944 -0.1201
   16SAPS  H19S 2075   0.163  -1.057   8.114  0.9221 -1.4352 -4.7909
   16SAPS  C220 2076   0.270  -1.114   8.310  0.2030 -0.2718  0.7262
   16SAPS  H20R 2077   0.349  -1.190   8.329 -0.1001 -0.5350  0.9447
   16SAPS  H20S 2078   0.174  -1.150   8.353 -1.4017  0.0994 -2.4755
   16SAPS  H20T 2079   0.289  -1.012   8.352 -1.5143  0.6663 -0.6754
   16SAPS   C33 2080  -0.192  -0.082   7.189  0.4587 -0.9880 -0.0789
   16SAPS   H3X 2081  -0.119  -0.166   7.185  0.4859 -0.8514 -3.9284
   16SAPS   H3Y 2082  -0.292  -0.120   7.158  0.4799 -0.5691 -0.6686
   16SAPS   C34 2083  -0.194  -0.022   7.337  0.2199  0.0065 -1.0326
   16SAPS   H4X 2084  -0.269   0.060   7.337 -0.8398 -0.9500 -0.1922
   16SAPS   H4Y 2085  -0.092   0.014   7.361  0.2223 -0.8720  0.3132
   16SAPS   C35 2086  -0.237  -0.127   7.441 -0.4312 -0.3218  0.1469
   16SAPS   H5X 2087  -0.195  -0.228   7.420 -2.7166 -1.4286  0.7051
   16SAPS   H5Y 2088  -0.347  -0.143   7.436 -0.6927  1.5586 -0.5614
   16SAPS   C36 2089  -0.184  -0.080   7.572 -0.5126 -0.0121  0.1998
   16SAPS   H6X 2090  -0.248   0.009   7.589  0.9552  1.1040 -0.0505
   16SAPS   H6Y 2091  -0.079  -0.046   7.563 -0.5608  0.6495  1.8718
   16SAPS   C37 2092  -0.208  -0.173   7.689  0.2535  0.4507  0.2927
   16SAPS   H7X 2093  -0.166  -0.270   7.658 -1.6911 -0.0309 -0.9205
   16SAPS   H7Y 2094  -0.319  -0.178   7.701  0.1857  1.2302  0.0382
   16SAPS   C38 2095  -0.151  -0.138   7.825  0.2359 -0.1754 -0.3670
   16SAPS   H8X 2096  -0.210  -0.051   7.860 -0.8050 -0.7640 -0.6369
   16SAPS   H8Y 2097  -0.047  -0.101   7.827  0.0419  0.3571  0.0500
   16SAPS   C39 2098  -0.153  -0.261   7.921  0.0563 -0.0666 -0.6396
   16SAPS   H9X 2099  -0.047  -0.294   7.925 -0.5524 -2.2395 -1.5763
   16SAPS   H9Y 2100  -0.214  -0.341   7.874  0.3588  0.1446 -1.3933
   16SAPS  C310 2101  -0.210  -0.227   8.057 -0.5076  0.3687 -0.7377
   16SAPS  H10X 2102  -0.313  -0.190   8.037 -1.5223 -2.5002 -1.0891
   16SAPS  H10Y 2103  -0.151  -0.145   8.103  0.1100  0.8448 -2.3549
   16SAPS  C311 2104  -0.220  -0.347   8.149 -0.1144 -0.3474  0.1007
   16SAPS  H11X 2105  -0.131  -0.352   8.215  0.3682 -2.1691 -0.6539
   16SAPS  H11Y 2106  -0.225  -0.446   8.099 -0.9874 -0.9529  1.3394
   16SAPS  C312 2107  -0.337  -0.341   8.258 -0.1263 -0.6291  0.1225
   16SAPS  H12X 2108  -0.335  -0.434   8.318 -0.0945 -0.7727 -0.1015
   16SAPS  H12Y 2109  -0.433  -0.338   8.203  0.6889  0.3247 -1.2746
   16SAPS  C313 2110  -0.334  -0.219   8.347  0.6212 -0.4507  0.2230
   16SAPS  H13X 2111  -0.321  -0.125   8.289 -0.6285  0.6705  1.7197
   16SAPS  H13Y 2112  -0.244  -0.212   8.412  3.0337  0.4478 -3.0841
   16SAPS  C314 2113  -0.459  -0.201   8.437  0.9524  0.4718  0.4152
   16SAPS  H14X 2114  -0.443  -0.267   8.525  2.0270 -0.6859 -0.6193
   16SAPS  H14Y 2115  -0.548  -0.244   8.385  3.1135 -0.8720 -2.3219
   16SAPS  C315 2116  -0.484  -0.056   8.497 -0.6220 -0.0907  0.2087
   16SAPS  H15X 2117  -0.539   0.001   8.419 -1.7152  1.4225  2.0803
   16SAPS  H15Y 2118  -0.385  -0.009   8.517 -0.8067  0.6223 -0.5132
   16SAPS  C316 2119  -0.568  -0.057   8.623 -0.3544 -0.6447 -0.1293
   16SAPS  H16X 2120  -0.535   0.031   8.682  0.8291 -2.7349  2.4656
   16SAPS  H16Y 2121  -0.536  -0.133   8.697 -3.3097  0.3622  2.2526
   16SAPS  C317 2122  -0.721  -0.063   8.601  0.1338 -0.2177  0.0213
   16SAPS  H17X 2123  -0.756   0.034   8.560 -3.2530 -1.8296 -1.0719
   16SAPS  H17Y 2124  -0.757  -0.090   8.703 -0.4189  0.7286  0.0812
   16SAPS  C318 2125  -0.776  -0.169   8.500  0.3739 -0.2821 -0.7836
   16SAPS  H18X 2126  -0.722  -0.266   8.505  1.1427  0.1449 -0.7467
   16SAPS  H18Y 2127  -0.773  -0.119   8.400 -1.2603  0.8599 -0.2842
   16SAPS  H18Z 2128  -0.880  -0.200   8.523  0.3250  0.3318 -0.1618
   17SAPC     N 2129   5.209   2.243  10.597 -0.3174 -0.4892  0.3693
   17SAPC   C12 2130   5.102   2.155  10.536 -0.1706 -0.8844  0.3367
   17SAPC  H12A 2131   5.043   2.120  10.620  3.0500 -1.1763  2.5826
   17SAPC  H12B 2132   5.139   2.075  10.474 -1.3561  0.9021 -2.7818
   17SAPC   C13 2133   5.146   2.349  10.679 -0.1121 -0.3953  0.2960
   17SAPC  H13A 2134   5.087   2.422  10.626 -1.2519 -0.9173  0.8460
   17SAPC  H13B 2135   5.086   2.315  10.762 -0.1097  3.6150  2.0277
   17SAPC  H13C 2136   5.226   2.409  10.721  0.0266  0.4834 -1.1630
   17SAPC   C14 2137   5.297   2.151  10.686 -0.4143 -0.2878  0.7435
   17SAPC  H14A 2138   5.230   2.106  10.758 -1.6065  2.1216  1.1854
   17SAPC  H14B 2139   5.340   2.080  10.617 -0.1329  0.5561  0.0435
   17SAPC  H14C 2140   5.373   2.207  10.738  0.2068 -0.2176 -0.2286
   17SAPC   C15 2141   5.288   2.310  10.489  0.2226  0.1178  0.2954
   17SAPC  H15A 2142   5.227   2.377  10.430  0.2203  0.1503  0.3342
   17SAPC  H15B 2143   5.382   2.359  10.514 -1.1988  1.9821  2.1729
   17SAPC  H15C 2144   5.325   2.247  10.410 -0.9901  1.7069 -1.5681
   17SAPC   C11 2145   4.999   2.225  10.442 -0.1567 -0.4119 -0.1538
   17SAPC  H11A 2146   4.954   2.141  10.385  0.8113 -0.4659 -0.8412
   17SAPC  H11B 2147   5.046   2.297  10.372  0.4402  0.0348  0.6920
   17SAPC     P 2148   4.758   2.242  10.570 -0.5386 -0.2755 -0.4579
   17SAPC   O13 2149   4.766   2.097  10.607 -0.7998 -0.4946  0.1183
   17SAPC   O14 2150   4.718   2.328  10.679 -0.0827  0.0746  0.0811
   17SAPC   O12 2151   4.895   2.298  10.514  0.0653  0.5112 -0.2900
   17SAPC   O11 2152   4.670   2.251  10.445 -0.4328  0.2762 -0.3019
   17SAPC    C1 2153   4.703   2.299  10.317 -0.1228 -0.6454  0.3282
   17SAPC    HA 2154   4.634   2.383  10.292  1.4324  0.9430  1.2830
   17SAPC    HB 2155   4.804   2.345  10.315 -0.5951  0.3921 -0.3988
   17SAPC    C2 2156   4.679   2.188  10.202  0.0724 -0.0554 -0.7874
   17SAPC    HS 2157   4.582   2.214  10.155 -0.0554 -0.6668 -0.8658
   17SAPC   O21 2158   4.692   2.063  10.269 -0.0287  0.6493 -0.0505
   17SAPC   C21 2159   4.588   2.011  10.328 -0.0690  0.3493 -1.2115
   17SAPC   O22 2160   4.476   2.055  10.323  0.0053  0.3567 -0.0724
   17SAPC   C22 2161   4.634   1.888  10.401 -0.1111  0.4874  0.4037
   17SAPC   H2R 2162   4.734   1.855  10.367 -0.4880 -0.2947  0.0455
   17SAPC   H2S 2163   4.650   1.920  10.507  1.0397 -1.4649  0.8434
   17SAPC    C3 2164   4.799   2.195  10.092  0.1791  0.3508 -1.1504
   17SAPC    HX 2165   4.770   2.121  10.014 -0.7366 -1.6619  1.0607
   17SAPC    HY 2166   4.884   2.155  10.151  0.1270  1.2859 -0.4363
   17SAPC   O31 2167   4.831   2.324  10.047 -0.2039 -0.3056  0.3171
   17SAPC   C31 2168   4.733   2.386   9.978  0.8377  0.7942  0.2388
   17SAPC   O32 2169   4.637   2.329   9.933  0.4097 -0.8071  0.2431
   17SAPC   C32 2170   4.775   2.535   9.959  0.9875  0.6450 -0.0274
   17SAPC   H2X 2171   4.876   2.523   9.912  0.3097 -1.1869 -1.0723
   17SAPC   H2Y 2172   4.783   2.577  10.061 -1.3830 -1.1476  0.9287
   17SAPC   C23 2173   4.533   1.776  10.399  0.3006  0.8939 -0.4439
   17SAPC   H3R 2174   4.429   1.812  10.410  0.7807  2.0264  0.5520
   17SAPC   H3S 2175   4.560   1.719  10.491  0.3363  0.3540 -0.7867
   17SAPC   C24 2176   4.561   1.673  10.284  0.7009  0.8645 -0.2588
   17SAPC   H4R 2177   4.672   1.666  10.275  0.7613  0.8333  0.4413
   17SAPC   H4S 2178   4.533   1.730  10.193 -1.2959 -0.2779 -0.3931
   17SAPC   C25 2179   4.511   1.530  10.291 -0.5863  0.4513  0.1276
   17SAPC   H5R 2180   4.518   1.487  10.392  1.1745 -1.7403 -0.8899
   17SAPC   C26 2181   4.474   1.450  10.189 -0.1261 -0.4409  0.3639
   17SAPC   H6R 2182   4.439   1.348  10.212 -2.5461  0.1373 -0.6192
   17SAPC   C27 2183   4.458   1.490  10.047  0.1149 -0.3896 -0.2570
   17SAPC   H7R 2184   4.501   1.591  10.032 -0.1342 -0.3718 -0.8450
   17SAPC   H7S 2185   4.352   1.487  10.015 -0.1150  1.7971  0.1818
   17SAPC   C28 2186   4.535   1.393   9.961  0.0071 -0.2291  0.3197
   17SAPC   H8R 2187   4.511   1.286   9.968  0.0137 -0.3663 -1.4989
   17SAPC   C29 2188   4.626   1.415   9.871  0.6308 -0.5008  0.0773
   17SAPC   H9R 2189   4.672   1.335   9.811 -0.4730 -1.2431  0.2051
   17SAPC  C210 2190   4.683   1.556   9.840  0.0874  0.0430  0.7467
   17SAPC  H10R 2191   4.732   1.598   9.932 -0.7424  0.8262  0.8385
   17SAPC  H10S 2192   4.602   1.632   9.829  1.2638  1.3447  0.8434
   17SAPC  C211 2193   4.783   1.582   9.724  0.4534 -0.0516  0.5875
   17SAPC  H11R 2194   4.867   1.647   9.754  0.5817 -0.1044  0.3463
   17SAPC  C212 2195   4.769   1.558   9.589  0.2160  0.2454 -0.5092
   17SAPC  H12R 2196   4.857   1.587   9.530  0.1474  0.3943 -0.5384
   17SAPC  C213 2197   4.666   1.475   9.514  0.2130  0.0747  0.0782
   17SAPC  H13R 2198   4.664   1.372   9.557  2.0808 -0.4211 -0.9921
   17SAPC  H13S 2199   4.698   1.460   9.409 -0.8807  0.5091 -0.3200
   17SAPC  C214 2200   4.525   1.523   9.518  1.3810  0.4736  0.0326
   17SAPC  H14R 2201   4.492   1.543   9.621  1.1537 -0.3006  0.1166
   17SAPC  C215 2202   4.443   1.554   9.410 -0.6317 -0.0915 -0.2355
   17SAPC  H15R 2203   4.337   1.559   9.438 -0.7145  1.0173 -0.7140
   17SAPC  C216 2204   4.474   1.558   9.266 -0.1273 -0.8609 -0.3550
   17SAPC  H16R 2205   4.377   1.589   9.221 -0.9127 -0.1382  1.7698
   17SAPC  H16S 2206   4.494   1.453   9.237 -0.5334 -1.0543  0.0580
   17SAPC  C217 2207   4.573   1.667   9.217 -0.8734 -0.1566  0.9672
   17SAPC  H17R 2208   4.661   1.678   9.284 -3.1107  2.7047  3.6018
   17SAPC  H17S 2209   4.524   1.766   9.215  0.9628  0.7626  0.9530
   17SAPC  C218 2210   4.622   1.649   9.077 -0.0412 -0.0199 -0.1977
   17SAPC  H18R 2211   4.657   1.747   9.040 -2.1342  0.1324 -1.8354
   17SAPC  H18S 2212   4.546   1.612   9.005 -2.1613  2.6140  0.6205
   17SAPC  C219 2213   4.734   1.539   9.090  0.0068  0.0360  0.3734
   17SAPC  H19R 2214   4.693   1.438   9.111 -1.2134  0.3963 -0.2500
   17SAPC  H19S 2215   4.801   1.565   9.174 -0.6090  0.1740  0.8293
   17SAPC  C220 2216   4.816   1.509   8.973  0.3991  0.3842 -0.2535
   17SAPC  H20R 2217   4.888   1.592   8.957 -1.8718  2.4177 -0.0999
   17SAPC  H20S 2218   4.754   1.511   8.881 -0.9967 -0.5154  0.6473
   17SAPC  H20T 2219   4.865   1.409   8.971 -0.7561 -0.2029  0.6123
   17SAPC   C33 2220   4.674   2.616   9.869 -0.5338  0.0039 -0.8019
   17SAPC   H3X 2221   4.699   2.724   9.877 -2.7119  0.2974  2.8776
   17SAPC   H3Y 2222   4.575   2.602   9.917  0.0727 -0.0261  0.4661
   17SAPC   C34 2223   4.673   2.584   9.722 -0.1081  0.0663 -0.1822
   17SAPC   H4X 2224   4.629   2.483   9.708  1.7712 -0.6712 -0.7540
   17SAPC   H4Y 2225   4.775   2.581   9.680 -0.1456 -0.3974 -0.2408
   17SAPC   C35 2226   4.591   2.688   9.650  0.6682  0.8021 -0.0753
   17SAPC   H5X 2227   4.655   2.777   9.671  1.4192  0.4164 -0.7081
   17SAPC   H5Y 2228   4.493   2.703   9.700  0.4454 -1.8332  0.3100
   17SAPC   C36 2229   4.582   2.650   9.501 -0.1004  0.3916  0.1723
   17SAPC   H6X 2230   4.522   2.558   9.483 -1.3834  1.1714  0.4227
   17SAPC   H6Y 2231   4.683   2.617   9.468  0.1062 -1.0737  2.1297
   17SAPC   C37 2232   4.529   2.763   9.414  0.1521 -0.4588  0.3240
   17SAPC   H7X 2233   4.594   2.850   9.438 -1.6845  0.8217  0.7089
   17SAPC   H7Y 2234   4.424   2.778   9.446  1.1157  3.6315  1.8330
   17SAPC   C38 2235   4.524   2.740   9.261 -0.0688  0.2969 -0.6949
   17SAPC   H8X 2236   4.479   2.640   9.245  2.2801 -1.0701  0.9374
   17SAPC   H8Y 2237   4.626   2.738   9.217 -0.3492 -1.6390 -1.2775
   17SAPC   C39 2238   4.454   2.849   9.181 -0.4876  0.3848  0.2613
   17SAPC   H9X 2239   4.488   2.954   9.195 -1.1727  0.7543 -0.8507
   17SAPC   H9Y 2240   4.347   2.837   9.210 -1.2333 -0.6751 -2.8098
   17SAPC  C310 2241   4.478   2.823   9.031  0.4769  0.0864  0.1431
   17SAPC  H10X 2242   4.397   2.756   8.996  2.1824 -2.7384  1.4726
   17SAPC  H10Y 2243   4.571   2.763   9.020  0.2986  0.0019 -0.9785
   17SAPC  C311 2244   4.489   2.952   8.950  0.2736 -0.5196  0.1902
   17SAPC  H11X 2245   4.548   3.024   9.011 -0.8854  0.9839 -0.4565
   17SAPC  H11Y 2246   4.385   2.989   8.949  0.0322 -1.1634  1.4260
   17SAPC  C312 2247   4.547   2.936   8.812  0.5862 -0.2199  0.5493
   17SAPC  H12X 2248   4.484   2.863   8.758 -0.0347  0.3900  0.4486
   17SAPC  H12Y 2249   4.650   2.896   8.823  1.5888  2.3156  0.6649
   17SAPC  C313 2250   4.558   3.065   8.731 -0.5794 -0.3828 -0.0324
   17SAPC  H13X 2251   4.641   3.134   8.755  1.6563 -2.7479 -0.8020
   17SAPC  H13Y 2252   4.466   3.128   8.732 -1.1632 -1.2229 -0.1088
   17SAPC  C314 2253   4.584   3.047   8.579 -0.6874 -0.0650  0.0821
   17SAPC  H14X 2254   4.604   3.143   8.527 -2.1804  0.4660  0.4803
   17SAPC  H14Y 2255   4.498   3.001   8.526  0.6151  0.6638 -2.7296
   17SAPC  C315 2256   4.706   2.959   8.554 -0.1356 -0.3541  0.3522
   17SAPC  H15X 2257   4.688   2.861   8.603 -1.4596  0.9113  2.4762
   17SAPC  H15Y 2258   4.793   3.003   8.609 -0.6553  1.4133 -0.2048
   17SAPC  C316 2259   4.742   2.925   8.408  0.4946 -0.8355  0.3866
   17SAPC  H16X 2260   4.762   3.018   8.350 -0.2676 -1.0540 -0.2369
   17SAPC  H16Y 2261   4.653   2.879   8.359 -1.8004  0.6703  2.9843
   17SAPC  C317 2262   4.857   2.831   8.389 -0.2730  0.3018 -0.3849
   17SAPC  H17X 2263   4.835   2.791   8.288  0.5642 -0.6197 -0.2101
   17SAPC  H17Y 2264   4.849   2.746   8.460 -0.6890  1.9069  1.5304
   17SAPC  C318 2265   4.992   2.896   8.402  0.7895  0.5662  0.2178
   17SAPC  H18X 2266   5.013   2.922   8.508 -0.3265  0.0597  0.5679
   17SAPC  H18Y 2267   5.074   2.826   8.376  0.8574  0.1819  1.4645
   17SAPC  H18Z 2268   4.998   2.979   8.328 -2.8217  0.0874 -0.7013
   18SAPC     N 2269   5.728   2.085  10.481  0.0102 -0.5859 -0.0550
   18SAPC   C12 2270   5.689   1.956  10.412 -0.3009  0.4659 -0.0363
   18SAPC  H12A 2271   5.760   1.927  10.336 -0.1514 -1.7696  0.9420
   18SAPC  H12B 2272   5.596   1.983  10.363  0.0425  1.5271 -0.1163
   18SAPC   C13 2273   5.855   2.077  10.552 -0.2598  0.0228 -0.2414
   18SAPC  H13A 2274   5.873   2.172  10.600 -2.5063  0.1017  0.5100
   18SAPC  H13B 2275   5.857   2.003  10.631  1.1789 -0.6092 -0.8442
   18SAPC  H13C 2276   5.940   2.068  10.486  0.3095 -3.2870  0.8168
   18SAPC   C14 2277   5.725   2.199  10.382  0.9540 -0.3151 -0.6172
   18SAPC  H14A 2278   5.619   2.202  10.360  0.8264 -1.6671 -0.2217
   18SAPC  H14B 2279   5.751   2.294  10.427 -0.0132  0.0937 -0.8966
   18SAPC  H14C 2280   5.788   2.187  10.295  0.4253 -1.0666 -0.9044
   18SAPC   C15 2281   5.630   2.114  10.587  0.3872  0.0375 -0.9414
   18SAPC  H15A 2282   5.652   2.216  10.617  1.2842 -0.0091 -1.4190
   18SAPC  H15B 2283   5.533   2.107  10.540 -1.0177 -0.9492  1.9918
   18SAPC  H15C 2284   5.618   2.041  10.665  2.1628  0.3873 -0.3215
   18SAPC   C11 2285   5.660   1.829  10.491  0.1968 -0.5104 -0.3101
   18SAPC  H11A 2286   5.745   1.812  10.559 -1.9464  0.0658  2.6293
   18SAPC  H11B 2287   5.663   1.742  10.422  1.9348  0.3775 -1.3972
   18SAPC     P 2288   5.392   1.812  10.488 -0.1757 -0.3056 -0.2626
   18SAPC   O13 2289   5.314   1.728  10.578  0.1277  0.2220  0.0759
   18SAPC   O14 2290   5.336   1.941  10.447  0.2680 -0.1513 -0.3313
   18SAPC   O12 2291   5.533   1.844  10.559 -0.3386 -0.3595  0.5997
   18SAPC   O11 2292   5.418   1.728  10.360 -0.6816 -0.7551 -0.3406
   18SAPC    C1 2293   5.424   1.587  10.361  0.8076 -0.2154 -0.2139
   18SAPC    HA 2294   5.474   1.552  10.454 -0.3165 -1.6778 -0.1409
   18SAPC    HB 2295   5.320   1.550  10.362  0.7733 -0.5709 -4.4269
   18SAPC    C2 2296   5.489   1.526  10.238 -0.7379  0.2289  0.3863
   18SAPC    HS 2297   5.598   1.548  10.240 -0.7937  0.4937  0.6168
   18SAPC   O21 2298   5.426   1.591  10.130 -0.0588  0.4790  0.0403
   18SAPC   C21 2299   5.497   1.665  10.050  1.0036 -0.0335  0.0858
   18SAPC   O22 2300   5.618   1.675  10.042 -0.3723 -0.1013 -0.2956
   18SAPC   C22 2301   5.400   1.734   9.965 -0.0544 -0.2522  0.1043
   18SAPC   H2R 2302   5.326   1.656   9.936 -0.9877  1.3518 -1.9061
   18SAPC   H2S 2303   5.347   1.809  10.028 -0.5890 -1.6701  1.3756
   18SAPC    C3 2304   5.474   1.367  10.241 -0.2006  0.5022 -0.2072
   18SAPC    HX 2305   5.365   1.351  10.224  0.0606 -2.2256  0.3510
   18SAPC    HY 2306   5.498   1.329  10.343 -0.4256  0.7457 -0.0637
   18SAPC   O31 2307   5.561   1.306  10.143  0.4954 -0.1638  0.6987
   18SAPC   C31 2308   5.554   1.172  10.135  0.4173  0.5138 -0.7083
   18SAPC   O32 2309   5.475   1.098  10.198 -0.0511 -0.7470  0.3187
   18SAPC   C32 2310   5.651   1.123  10.029  0.2077 -0.2279  0.4710
   18SAPC   H2X 2311   5.693   1.031  10.074  0.7200  0.8370  2.1946
   18SAPC   H2Y 2312   5.731   1.199  10.018 -0.2384  0.2537  0.4707
   18SAPC   C23 2313   5.474   1.786   9.844  0.1547 -0.7222  0.2326
   18SAPC   H3R 2314   5.565   1.845   9.865 -1.1560  2.8056 -3.2519
   18SAPC   H3S 2315   5.403   1.857   9.797 -0.5032 -2.1978 -1.0807
   18SAPC   C24 2316   5.507   1.674   9.749  0.5001  0.0028  0.4034
   18SAPC   H4R 2317   5.568   1.597   9.801  0.2435  0.1280  0.8882
   18SAPC   H4S 2318   5.574   1.727   9.678 -0.1513  1.0520  0.5459
   18SAPC   C25 2319   5.402   1.623   9.660 -0.2895 -0.3882  0.0017
   18SAPC   H5R 2320   5.350   1.535   9.701 -1.1434  0.7777  1.4949
   18SAPC   C26 2321   5.370   1.661   9.527  0.0835  0.8331 -1.2843
   18SAPC   H6R 2322   5.298   1.601   9.471  0.4898  2.7792 -3.9482
   18SAPC   C27 2323   5.428   1.773   9.440 -0.3127  0.3580 -0.4518
   18SAPC   H7R 2324   5.535   1.797   9.462 -0.7504  0.6436  1.3984
   18SAPC   H7S 2325   5.370   1.862   9.471 -1.6887 -0.4377 -0.7424
   18SAPC   C28 2326   5.408   1.741   9.292 -0.5511  0.3895  0.9365
   18SAPC   H8R 2327   5.320   1.682   9.265 -0.6290  1.3255 -0.9918
   18SAPC   C29 2328   5.494   1.771   9.193 -0.3695  0.0315 -0.5203
   18SAPC   H9R 2329   5.471   1.736   9.091  2.1553 -0.1807 -1.0439
   18SAPC  C210 2330   5.628   1.843   9.204 -0.0323 -0.0579 -0.5870
   18SAPC  H10R 2331   5.686   1.766   9.259 -2.4435 -1.3721  0.2186
   18SAPC  H10S 2332   5.610   1.929   9.271 -4.4875  0.2791 -2.0256
   18SAPC  C211 2333   5.685   1.873   9.066 -0.0232  0.0959  0.4746
   18SAPC  H11R 2334   5.766   1.807   9.029  2.0592  2.7597  0.0985
   18SAPC  C212 2335   5.656   1.980   8.994  0.0163  0.2356  0.2680
   18SAPC  H12R 2336   5.698   1.991   8.893 -2.9762  1.3568 -0.9271
   18SAPC  C213 2337   5.558   2.095   9.031 -0.1673  0.2976  0.4658
   18SAPC  H13R 2338   5.543   2.100   9.141  2.3533  0.4123  0.8296
   18SAPC  H13S 2339   5.460   2.063   8.990  0.9011 -0.3604 -1.6564
   18SAPC  C214 2340   5.593   2.225   8.972  0.0388 -0.8139  0.1542
   18SAPC  H14R 2341   5.699   2.255   8.972 -0.5016  1.2279  1.4930
   18SAPC  C215 2342   5.501   2.313   8.919  0.7130  0.8085 -0.0294
   18SAPC  H15R 2343   5.544   2.407   8.880  1.2558  0.3524 -0.5464
   18SAPC  C216 2344   5.350   2.305   8.924 -0.3469 -0.4157 -0.9851
   18SAPC  H16R 2345   5.329   2.379   9.003 -0.3586  0.0199 -1.3940
   18SAPC  H16S 2346   5.319   2.212   8.976  0.8626  0.9067  2.1885
   18SAPC  C217 2347   5.281   2.355   8.795  0.2608  0.4221  0.5846
   18SAPC  H17R 2348   5.177   2.318   8.807 -1.1057  3.4389 -1.3681
   18SAPC  H17S 2349   5.328   2.297   8.712 -1.4512  0.0927 -0.1682
   18SAPC  C218 2350   5.284   2.504   8.778 -0.4827 -0.3059 -0.1560
   18SAPC  H18R 2351   5.388   2.543   8.779 -1.4064  2.2967 -0.7061
   18SAPC  H18S 2352   5.222   2.540   8.862  0.1940  0.2344  0.1187
   18SAPC  C219 2353   5.215   2.549   8.650 -0.1390 -0.2689  0.2627
   18SAPC  H19R 2354   5.225   2.659   8.636 -2.3891 -0.2603 -1.7880
   18SAPC  H19S 2355   5.106   2.527   8.652 -0.2993  0.4573 -0.1338
   18SAPC  C220 2356   5.278   2.490   8.521 -0.1756 -0.4210 -0.4744
   18SAPC  H20R 2357   5.278   2.379   8.521 -1.7946 -0.4481 -1.7363
   18SAPC  H20S 2358   5.385   2.519   8.519 -0.2765  0.1563  1.1658
   18SAPC  H20T 2359   5.222   2.529   8.433 -0.8007  0.6376  0.3858
   18SAPC   C33 2360   5.575   1.074   9.905  0.4352  0.3696 -0.3346
   18SAPC   H3X 2361   5.486   1.017   9.938  0.2480  0.6489 -0.3580
   18SAPC   H3Y 2362   5.641   0.995   9.863  0.5660 -0.6796  1.7706
   18SAPC   C34 2363   5.539   1.186   9.811  0.4623 -0.6554  0.2786
   18SAPC   H4X 2364   5.582   1.279   9.855  0.4963 -0.7652  0.4768
   18SAPC   H4Y 2365   5.429   1.201   9.803  0.7908  1.2211 -1.0516
   18SAPC   C35 2366   5.605   1.178   9.674 -0.5868  0.1586  0.0839
   18SAPC   H5X 2367   5.596   1.074   9.637 -0.1860  0.5481 -1.1312
   18SAPC   H5Y 2368   5.712   1.199   9.694  0.5026 -1.5915 -3.5364
   18SAPC   C36 2369   5.556   1.278   9.562 -0.3509 -0.0198 -0.1183
   18SAPC   H6X 2370   5.575   1.380   9.604  2.8359  0.1306 -1.7874
   18SAPC   H6Y 2371   5.447   1.277   9.539 -0.3008  0.6621 -0.4026
   18SAPC   C37 2372   5.634   1.262   9.434 -0.4144  0.1007  0.7713
   18SAPC   H7X 2373   5.601   1.163   9.396 -4.1576  1.7289 -0.5156
   18SAPC   H7Y 2374   5.744   1.264   9.446 -0.2712 -0.2570 -0.4850
   18SAPC   C38 2375   5.610   1.371   9.321 -0.0623 -0.0368  0.2606
   18SAPC   H8X 2376   5.653   1.467   9.357 -0.0172  0.8175 -1.9738
   18SAPC   H8Y 2377   5.499   1.380   9.311 -0.1454 -1.3124 -0.0954
   18SAPC   C39 2378   5.674   1.335   9.188 -0.0710  0.1481  0.5843
   18SAPC   H9X 2379   5.785   1.340   9.194 -0.0881  1.2375  0.2335
   18SAPC   H9Y 2380   5.641   1.413   9.115  2.9220 -0.4164 -1.4640
   18SAPC  C310 2381   5.633   1.205   9.126 -0.0422  0.5953 -0.4375
   18SAPC  H10X 2382   5.522   1.205   9.122 -0.0735  0.3398  0.2673
   18SAPC  H10Y 2383   5.667   1.129   9.201  0.5774 -2.6190 -3.8185
   18SAPC  C311 2384   5.688   1.177   8.981 -0.0450 -0.1966 -0.1612
   18SAPC  H11X 2385   5.799   1.180   8.982 -0.0938  2.1964  0.4731
   18SAPC  H11Y 2386   5.657   1.269   8.928  1.2297  0.5091  0.3007
   18SAPC  C312 2387   5.652   1.041   8.924  0.2662 -0.1028  0.5221
   18SAPC  H12X 2388   5.544   1.016   8.927  0.6859 -1.8823  1.6705
   18SAPC  H12Y 2389   5.707   0.972   8.991 -0.0960 -1.1581 -0.2379
   18SAPC  C313 2390   5.683   1.025   8.770 -1.2286 -0.3589  0.4289
   18SAPC  H13X 2391   5.614   1.093   8.715 -0.5248  0.4469  0.5469
   18SAPC  H13Y 2392   5.652   0.921   8.746  0.8293 -1.2890  1.6443
   18SAPC  C314 2393   5.830   1.042   8.749  0.3014 -0.2831 -0.3285
   18SAPC  H14X 2394   5.893   0.976   8.813 -2.2153 -2.0162  0.4266
   18SAPC  H14Y 2395   5.853   1.148   8.772 -1.0818  0.0296 -0.3460
   18SAPC  C315 2396   5.885   1.029   8.613 -0.1593 -0.3603  0.0038
   18SAPC  H15X 2397   5.995   1.043   8.615 -0.2935  0.7469  0.1642
   18SAPC  H15Y 2398   5.834   1.100   8.544  1.0591  0.3889 -0.1306
   18SAPC  C316 2399   5.858   0.887   8.557 -0.4251 -0.2054 -0.1039
   18SAPC  H16X 2400   5.750   0.862   8.551  0.5557 -4.5718 -1.9128
   18SAPC  H16Y 2401   5.897   0.816   8.633 -1.3325  1.5026  1.9934
   18SAPC  C317 2402   5.930   0.851   8.438 -0.1531 -0.7662  0.1451
   18SAPC  H17X 2403   5.912   0.745   8.410 -3.4162 -0.3461  0.4595
   18SAPC  H17Y 2404   6.040   0.864   8.448  0.4337 -2.8045 -2.8363
   18SAPC  C318 2405   5.887   0.944   8.319 -0.2946  0.0063 -1.0841
   18SAPC  H18X 2406   5.780   0.926   8.298 -0.8403  1.6237  0.2217
   18SAPC  H18Y 2407   5.954   0.941   8.230  0.3999 -0.7264 -0.5453
   18SAPC  H18Z 2408   5.897   1.050   8.351  1.7208 -0.8386  1.2719
   19SAPC     N 2409   4.177   3.494  10.827  0.2968  0.3454 -0.3935
   19SAPC   C12 2410   4.126   3.375  10.753 -0.4154  0.5864  0.3593
   19SAPC  H12A 2411   4.029   3.354  10.795 -1.3726  3.9125 -0.0529
   19SAPC  H12B 2412   4.201   3.301  10.779  0.3946  1.4388  0.4895
   19SAPC   C13 2413   4.075   3.606  10.801  0.4790 -0.5233  0.8183
   19SAPC  H13A 2414   3.981   3.558  10.780  0.3322  0.5219 -0.9944
   19SAPC  H13B 2415   4.071   3.670  10.888 -2.5343 -1.1966  1.2421
   19SAPC  H13C 2416   4.110   3.655  10.711 -2.1150  0.0285  0.0717
   19SAPC   C14 2417   4.160   3.486  10.973  0.1276  0.1513 -0.5399
   19SAPC  H14A 2418   4.073   3.432  11.005  1.0192 -0.8445  0.2354
   19SAPC  H14B 2419   4.227   3.409  11.009  0.8876  0.1782 -1.8510
   19SAPC  H14C 2420   4.169   3.579  11.027  1.4857  0.0290 -0.5413
   19SAPC   C15 2421   4.313   3.547  10.782  0.7277  0.3701 -0.3222
   19SAPC  H15A 2422   4.306   3.573  10.677 -0.7931  2.0591  0.1801
   19SAPC  H15B 2423   4.333   3.642  10.828 -1.2448 -0.5137  2.4799
   19SAPC  H15C 2424   4.393   3.476  10.797  1.1806  1.3360  1.9699
   19SAPC   C11 2425   4.126   3.381  10.597  0.4126  0.0375  0.5078
   19SAPC  H11A 2426   4.116   3.276  10.563  1.7433 -1.2930  4.0352
   19SAPC  H11B 2427   4.224   3.415  10.557 -0.3703  0.5029 -1.0845
   19SAPC     P 2428   3.897   3.448  10.465  0.5771  0.1612 -0.0370
   19SAPC   O13 2429   3.813   3.345  10.524 -0.0523 -0.2210 -0.2569
   19SAPC   O14 2430   3.831   3.577  10.448 -0.3152  0.2187  0.0346
   19SAPC   O12 2431   4.021   3.469  10.556 -0.0193  0.2446 -0.2058
   19SAPC   O11 2432   3.953   3.400  10.331 -0.6069  0.2868  0.2682
   19SAPC    C1 2433   4.079   3.443  10.275 -0.4188  0.3162 -0.3763
   19SAPC    HA 2434   4.132   3.520  10.336 -1.4864 -0.8781  2.1535
   19SAPC    HB 2435   4.149   3.357  10.273 -0.6484  0.0055  2.1736
   19SAPC    C2 2436   4.049   3.493  10.133  0.1087 -0.0353  0.3566
   19SAPC    HS 2437   3.974   3.575  10.129  0.9835  0.7340 -0.6099
   19SAPC   O21 2438   4.024   3.370  10.046 -0.5668  0.3254 -0.0171
   19SAPC   C21 2439   3.927   3.401   9.952 -0.4603  0.0744 -0.1168
   19SAPC   O22 2440   3.870   3.510   9.941  0.5079  0.5991 -0.2142
   19SAPC   C22 2441   3.912   3.279   9.865  0.0055 -0.0061  0.5323
   19SAPC   H2R 2442   3.907   3.188   9.928 -0.1516  0.5406  1.3311
   19SAPC   H2S 2443   3.816   3.297   9.812  0.5306 -0.9244 -0.7244
   19SAPC    C3 2444   4.179   3.562  10.084 -0.3532 -1.0963  0.3649
   19SAPC    HX 2445   4.254   3.481  10.099 -1.3809 -1.7827  1.9334
   19SAPC    HY 2446   4.211   3.645  10.150  4.1737 -0.6131 -2.1921
   19SAPC   O31 2447   4.182   3.610   9.942 -0.0384 -0.2610 -0.6447
   19SAPC   C31 2448   4.164   3.743   9.930  0.1587 -0.3222 -0.6217
   19SAPC   O32 2449   4.130   3.817  10.025  0.2680  0.2277 -0.3999
   19SAPC   C32 2450   4.173   3.795   9.787 -0.0659 -0.4172  0.5663
   19SAPC   H2X 2451   4.137   3.900   9.781  0.6471 -0.1995  0.0894
   19SAPC   H2Y 2452   4.122   3.727   9.716 -0.6713 -0.9160  1.4683
   19SAPC   C23 2453   4.039   3.265   9.771 -0.3095  0.5417 -0.1552
   19SAPC   H3R 2454   4.052   3.159   9.740  0.7340  0.4416  0.6111
   19SAPC   H3S 2455   4.136   3.297   9.815 -0.1561  2.7781 -1.9779
   19SAPC   C24 2456   4.006   3.321   9.630  0.6800 -0.0198 -0.3325
   19SAPC   H4R 2457   3.898   3.307   9.614  0.4929  2.1880 -1.2049
   19SAPC   H4S 2458   4.070   3.261   9.561  1.6789  0.4267  0.1902
   19SAPC   C25 2459   4.039   3.470   9.614 -0.1571 -0.0194 -0.3032
   19SAPC   H5R 2460   4.056   3.521   9.710  1.1367 -1.1241  0.0778
   19SAPC   C26 2461   4.062   3.531   9.502  0.8472  0.2623 -0.3258
   19SAPC   H6R 2462   4.081   3.640   9.503  1.0987  0.2363 -1.3566
   19SAPC   C27 2463   4.045   3.480   9.363  0.8514  0.3039 -0.3468
   19SAPC   H7R 2464   3.991   3.384   9.353 -0.6461  1.1545 -0.5319
   19SAPC   H7S 2465   4.142   3.440   9.325  0.3944  1.0596 -2.3745
   19SAPC   C28 2466   4.001   3.587   9.265 -0.1874 -0.8165 -0.0056
   19SAPC   H8R 2467   4.039   3.689   9.283 -0.1763 -0.0511 -3.8871
   19SAPC   C29 2468   3.921   3.573   9.156 -0.0112 -0.1442  0.1416
   19SAPC   H9R 2469   3.881   3.664   9.111 -1.1597 -0.8840 -0.3677
   19SAPC  C210 2470   3.858   3.451   9.102  0.0180 -0.0669 -0.6478
   19SAPC  H10R 2471   3.756   3.441   9.145  0.4702 -0.3002  0.3940
   19SAPC  H10S 2472   3.907   3.359   9.142 -0.3863  0.2147  0.5223
   19SAPC  C211 2473   3.845   3.466   8.957 -0.3286 -0.0377  0.1745
   19SAPC  H11R 2474   3.800   3.563   8.931  1.0607  1.1378  2.0455
   19SAPC  C212 2475   3.878   3.381   8.857 -0.1613 -0.2573  0.2041
   19SAPC  H12R 2476   3.862   3.412   8.752 -0.4275 -2.1884 -0.3400
   19SAPC  C213 2477   3.939   3.245   8.860 -0.4662 -0.2174 -0.0879
   19SAPC  H13R 2478   3.880   3.168   8.806 -0.0370 -0.4000 -0.3032
   19SAPC  H13S 2479   3.948   3.209   8.965 -0.9585 -2.8203 -0.8956
   19SAPC  C214 2480   4.079   3.260   8.813 -0.6564 -0.0314  0.3181
   19SAPC  H14R 2481   4.122   3.362   8.810 -1.6916  0.5037  2.6603
   19SAPC  C215 2482   4.155   3.153   8.795 -0.2180 -0.1326 -0.3556
   19SAPC  H15R 2483   4.263   3.168   8.779  0.6198 -3.3189  1.8137
   19SAPC  C216 2484   4.116   3.007   8.810  0.0098 -0.5183 -0.0183
   19SAPC  H16R 2485   4.006   3.004   8.827 -0.0603 -1.7541 -0.6956
   19SAPC  H16S 2486   4.169   2.955   8.893 -1.2116 -0.6285  0.7147
   19SAPC  C217 2487   4.130   2.927   8.679  0.1232 -0.1617  0.3287
   19SAPC  H17R 2488   4.230   2.931   8.629  1.8707 -1.5763  3.5277
   19SAPC  H17S 2489   4.060   2.965   8.602  0.4110  2.0243  1.1192
   19SAPC  C218 2490   4.093   2.778   8.698 -0.2016 -0.4851 -0.8449
   19SAPC  H18R 2491   4.007   2.769   8.768  0.4493 -0.1855  0.0102
   19SAPC  H18S 2492   4.178   2.730   8.752 -1.1013 -0.3547  0.7089
   19SAPC  C219 2493   4.071   2.694   8.574 -0.4709  0.7406 -0.0920
   19SAPC  H19R 2494   4.098   2.587   8.585 -1.7374  0.2913 -1.2034
   19SAPC  H19S 2495   4.139   2.733   8.495 -1.1716 -0.4395 -1.2939
   19SAPC  C220 2496   3.930   2.697   8.516 -0.0021 -0.5112  0.0339
   19SAPC  H20R 2497   3.899   2.799   8.483  2.2831 -0.5441 -2.4039
   19SAPC  H20S 2498   3.856   2.671   8.594  0.5294  0.1156  0.7525
   19SAPC  H20T 2499   3.922   2.626   8.431 -1.7396 -0.2253 -0.0494
   19SAPC   C33 2500   4.319   3.797   9.734  0.0173 -0.5651  0.3051
   19SAPC   H3X 2501   4.366   3.698   9.714  3.1366  1.0741 -0.7037
   19SAPC   H3Y 2502   4.392   3.837   9.808 -0.7756 -0.7772  1.2250
   19SAPC   C34 2503   4.350   3.895   9.618 -0.6988  0.3895  0.3367
   19SAPC   H4X 2504   4.455   3.874   9.587 -0.9188 -0.8576  0.4069
   19SAPC   H4Y 2505   4.357   4.004   9.635 -3.1528  0.7562 -0.8675
   19SAPC   C35 2506   4.261   3.869   9.500 -0.8105 -0.1999 -0.3074
   19SAPC   H5X 2507   4.157   3.883   9.537  0.1812  1.1811  2.1419
   19SAPC   H5Y 2508   4.268   3.763   9.466  2.0047 -0.8656  2.0718
   19SAPC   C36 2509   4.264   3.976   9.388 -0.0086  0.6320 -0.5711
   19SAPC   H6X 2510   4.369   3.988   9.354  0.0100 -4.0910 -2.5897
   19SAPC   H6Y 2511   4.221   4.068   9.432 -1.8825 -0.8650  0.8341
   19SAPC   C37 2512   4.181   3.916   9.278 -1.1119  0.5658 -0.5669
   19SAPC   H7X 2513   4.074   3.915   9.308 -0.3146 -0.4271  2.4153
   19SAPC   H7Y 2514   4.227   3.817   9.257  0.2487  1.1394 -0.3305
   19SAPC   C38 2515   4.193   3.998   9.147  0.0446 -0.5253 -0.5010
   19SAPC   H8X 2516   4.299   4.010   9.118 -0.2250  0.6818 -1.0380
   19SAPC   H8Y 2517   4.169   4.098   9.189  2.6662  0.0492 -0.2926
   19SAPC   C39 2518   4.095   3.979   9.025 -0.7308 -0.1324  0.3679
   19SAPC   H9X 2519   4.099   4.070   8.962 -1.0160 -0.3295  0.0635
   19SAPC   H9Y 2520   3.994   3.959   9.067  0.2603 -2.0085  1.9677
   19SAPC  C310 2521   4.131   3.852   8.948 -0.4276  0.4357  0.1153
   19SAPC  H10X 2522   4.125   3.761   9.012  0.9675  1.1287  1.2594
   19SAPC  H10Y 2523   4.238   3.862   8.920 -0.4344  1.5455  0.4813
   19SAPC  C311 2524   4.037   3.836   8.823 -0.3180  0.7674  0.2655
   19SAPC  H11X 2525   4.033   3.933   8.769  0.6104 -0.4111 -1.9623
   19SAPC  H11Y 2526   3.933   3.820   8.860  0.0606 -0.7367  0.7186
   19SAPC  C312 2527   4.066   3.722   8.728 -0.0039 -0.1189  0.5102
   19SAPC  H12X 2528   4.073   3.630   8.790  3.2198  0.8020  1.6393
   19SAPC  H12Y 2529   4.152   3.747   8.661 -2.3834 -0.1666 -2.7034
   19SAPC  C313 2530   3.953   3.700   8.626 -0.2150 -0.0676 -0.3329
   19SAPC  H13X 2531   3.861   3.673   8.682  1.5723 -0.7641  2.4329
   19SAPC  H13Y 2532   3.974   3.610   8.565 -2.6480 -1.6341  1.0777
   19SAPC  C314 2533   3.933   3.820   8.530 -0.2256 -0.3819 -0.2017
   19SAPC  H14X 2534   4.027   3.854   8.481 -0.7236 -1.0455 -1.6172
   19SAPC  H14Y 2535   3.895   3.901   8.597  3.1673  1.1003  0.0392
   19SAPC  C315 2536   3.811   3.810   8.439 -0.4247  0.6368 -0.3669
   19SAPC  H15X 2537   3.836   3.744   8.352 -1.7481  1.4799 -1.3997
   19SAPC  H15Y 2538   3.786   3.909   8.395  1.6896  1.8484  1.0531
   19SAPC  C316 2539   3.680   3.757   8.508  0.7390 -0.0832  0.3526
   19SAPC  H16X 2540   3.592   3.801   8.458  2.1559  3.1120  0.5423
   19SAPC  H16Y 2541   3.689   3.765   8.619 -1.8219 -0.5399  0.6252
   19SAPC  C317 2542   3.665   3.607   8.467  0.4048 -0.8069 -0.3368
   19SAPC  H17X 2543   3.596   3.551   8.533 -1.4483 -0.1541 -1.6572
   19SAPC  H17Y 2544   3.767   3.565   8.476  0.8075  0.2088 -0.0091
   19SAPC  C318 2545   3.608   3.575   8.330  0.2861 -0.2721  0.1325
   19SAPC  H18X 2546   3.548   3.481   8.325  1.9363 -1.2550 -1.9957
   19SAPC  H18Y 2547   3.687   3.559   8.253  0.8987 -0.9389  0.8901
   19SAPC  H18Z 2548   3.548   3.661   8.295 -0.2774  0.5248  2.8956
   20SAPC     N 2549   3.410   0.626  10.980  0.7396  0.3951 -0.1897
   20SAPC   C12 2550   3.467   0.519  10.891  0.0941 -0.3015  0.5080
   20SAPC  H12A 2551   3.416   0.540  10.799  1.3860 -0.4044 -0.2411
   20SAPC  H12B 2552   3.438   0.421  10.929  1.9564 -0.0012  2.8504
   20SAPC   C13 2553   3.266   0.594  11.003 -0.0707  0.6212 -0.4188
   20SAPC  H13A 2554   3.255   0.489  11.026 -0.0574  0.9847  1.3225
   20SAPC  H13B 2555   3.232   0.653  11.087 -0.4045  1.1740 -0.9424
   20SAPC  H13C 2556   3.212   0.617  10.912  0.9416 -1.8290 -1.6823
   20SAPC   C14 2557   3.477   0.628  11.111  0.1509 -0.6370 -0.1745
   20SAPC  H14A 2558   3.581   0.654  11.099  0.6274 -1.0299  2.6644
   20SAPC  H14B 2559   3.445   0.703  11.181  1.7398 -1.9207  2.0072
   20SAPC  H14C 2560   3.479   0.526  11.147  0.4274  0.2308  2.3264
   20SAPC   C15 2561   3.413   0.756  10.910 -0.3373  0.2527  0.0246
   20SAPC  H15A 2562   3.512   0.797  10.897 -0.9850  1.2924 -1.9677
   20SAPC  H15B 2563   3.359   0.756  10.816 -0.3324  0.3956  0.0214
   20SAPC  H15C 2564   3.353   0.823  10.970 -1.3427 -1.6664  1.2103
   20SAPC   C11 2565   3.617   0.527  10.878  0.0934 -0.2820  0.5812
   20SAPC  H11A 2566   3.643   0.633  10.858  1.5473 -0.6590  0.4226
   20SAPC  H11B 2567   3.645   0.471  10.786 -0.7647  0.5949 -0.2218
   20SAPC     P 2568   3.849   0.457  10.981  0.6027 -0.0234 -0.2488
   20SAPC   O13 2569   3.928   0.535  11.088 -0.1709 -0.2783  0.5204
   20SAPC   O14 2570   3.880   0.315  10.982 -0.7189  0.1273  0.4145
   20SAPC   O12 2571   3.691   0.471  10.995 -0.3177 -0.1047  0.2258
   20SAPC   O11 2572   3.884   0.514  10.842  0.0848 -0.2904  0.3161
   20SAPC    C1 2573   3.961   0.629  10.819 -0.7469  0.5575 -0.3882
   20SAPC    HA 2574   3.963   0.695  10.908  1.9282  2.0645 -1.5032
   20SAPC    HB 2575   4.067   0.607  10.795 -0.7187  0.4692 -0.1840
   20SAPC    C2 2576   3.911   0.704  10.701  0.4926  0.1425  0.7042
   20SAPC    HS 2577   3.815   0.758  10.717  1.7884  2.5837  0.5700
   20SAPC   O21 2578   3.887   0.616  10.590 -0.4807  0.6352  0.0922
   20SAPC   C21 2579   3.827   0.674  10.481 -0.7623  0.7073  0.2849
   20SAPC   O22 2580   3.765   0.781  10.484 -0.0470  0.1632  0.1151
   20SAPC   C22 2581   3.852   0.588  10.354 -0.0492  0.0625 -0.6982
   20SAPC   H2R 2582   3.943   0.526  10.370  0.1800  0.5357 -0.1132
   20SAPC   H2S 2583   3.768   0.516  10.352  1.0925 -1.2703 -1.7535
   20SAPC    C3 2584   4.026   0.810  10.665 -0.0292  0.3100 -0.1884
   20SAPC    HX 2585   4.060   0.864  10.756  1.6421  1.6052 -1.5517
   20SAPC    HY 2586   3.980   0.889  10.603  0.3040 -0.0551 -0.9081
   20SAPC   O31 2587   4.146   0.749  10.610  0.1511  0.1705 -0.5710
   20SAPC   C31 2588   4.153   0.739  10.481  0.3260 -0.3516  0.1769
   20SAPC   O32 2589   4.095   0.810  10.397  0.0754  0.2384  0.5346
   20SAPC   C32 2590   4.245   0.617  10.445 -0.4506  0.6842 -0.5061
   20SAPC   H2X 2591   4.179   0.529  10.459  0.1605  0.1739 -0.8285
   20SAPC   H2Y 2592   4.322   0.612  10.525  0.5770 -0.7699 -1.5796
   20SAPC   C23 2593   3.850   0.678  10.231 -0.3303 -0.0703  0.4204
   20SAPC   H3R 2594   3.941   0.741  10.238  0.3108 -1.1365  1.9732
   20SAPC   H3S 2595   3.755   0.734  10.220 -0.2144 -0.3785 -2.6909
   20SAPC   C24 2596   3.862   0.578  10.111 -0.4913 -0.5830  0.2265
   20SAPC   H4R 2597   3.785   0.502  10.135 -0.7150  0.2114  2.1259
   20SAPC   H4S 2598   3.962   0.530  10.114  0.2636  0.9185 -0.2796
   20SAPC   C25 2599   3.819   0.637   9.984 -0.0680  0.2621 -0.3773
   20SAPC   H5R 2600   3.725   0.692   9.998 -1.2746 -1.4108 -1.7003
   20SAPC   C26 2601   3.863   0.614   9.858 -0.0737 -0.4122  0.5859
   20SAPC   H6R 2602   3.819   0.670   9.774  0.8129  0.7354  0.8634
   20SAPC   C27 2603   3.976   0.523   9.820  0.1185 -0.2451  0.2018
   20SAPC   H7R 2604   3.980   0.450   9.903  1.0708  0.7309  1.0389
   20SAPC   H7S 2605   4.065   0.589   9.807  0.8263 -1.3054 -0.4456
   20SAPC   C28 2606   3.943   0.460   9.692 -0.2172 -0.2413  0.2505
   20SAPC   H8R 2607   3.909   0.355   9.699 -4.4283  1.0228  0.0953
   20SAPC   C29 2608   3.928   0.509   9.569 -0.7839  0.4761  0.2443
   20SAPC   H9R 2609   3.895   0.438   9.491  0.6487  0.0684  0.0079
   20SAPC  C210 2610   3.950   0.650   9.523 -0.3996  0.2056 -0.1224
   20SAPC  H10R 2611   3.972   0.720   9.606 -2.8591  0.1753  0.5837
   20SAPC  H10S 2612   3.848   0.684   9.497 -0.1221  2.0198  1.0617
   20SAPC  C211 2613   4.033   0.657   9.394  0.7789  0.6383  0.2945
   20SAPC  H11R 2614   4.137   0.622   9.408  0.3045 -1.4429 -1.1278
   20SAPC  C212 2615   4.005   0.709   9.271  0.5190  0.3717  0.1410
   20SAPC  H12R 2616   4.083   0.680   9.199  1.2671  1.2200  0.5988
   20SAPC  C213 2617   3.883   0.770   9.211  0.5432 -0.2906 -0.4826
   20SAPC  H13R 2618   3.804   0.750   9.287  0.0034  0.5855 -0.7966
   20SAPC  H13S 2619   3.852   0.712   9.122  0.3065 -0.5454 -0.2338
   20SAPC  C214 2620   3.889   0.914   9.171  0.0356 -0.3212  0.4846
   20SAPC  H14R 2621   3.861   0.987   9.248  0.5361 -0.1424  0.4957
   20SAPC  C215 2622   3.916   0.960   9.047 -0.2400 -0.1996 -0.0114
   20SAPC  H15R 2623   3.935   1.068   9.041  0.9436 -0.4281 -0.5424
   20SAPC  C216 2624   3.964   0.873   8.941 -0.0114  0.5219 -0.1477
   20SAPC  H16R 2625   3.887   0.794   8.927 -0.2098  1.1067 -2.4664
   20SAPC  H16S 2626   4.061   0.831   8.976  0.3605 -0.2671 -2.0733
   20SAPC  C217 2627   3.982   0.930   8.801  0.3532 -0.4096 -0.7830
   20SAPC  H17R 2628   4.082   0.978   8.794  0.0888  0.2023 -0.4646
   20SAPC  H17S 2629   3.910   1.014   8.786  0.0816 -0.2427  1.2804
   20SAPC  C218 2630   3.957   0.823   8.687  0.2334  0.6537 -0.3914
   20SAPC  H18R 2631   3.996   0.876   8.597 -1.9232  0.2811 -1.5797
   20SAPC  H18S 2632   3.851   0.789   8.685 -0.3639  2.4033  0.3840
   20SAPC  C219 2633   4.049   0.698   8.690 -0.5343 -0.2841 -0.4561
   20SAPC  H19R 2634   4.042   0.656   8.793  0.2444  0.2911 -0.1542
   20SAPC  H19S 2635   4.155   0.718   8.660 -0.4750 -0.7564 -0.5652
   20SAPC  C220 2636   4.018   0.587   8.593 -0.6698  0.3767 -0.0423
   20SAPC  H20R 2637   4.052   0.611   8.490  0.7238  1.5571  0.6767
   20SAPC  H20S 2638   3.910   0.559   8.588 -0.7342  0.3257  1.4956
   20SAPC  H20T 2639   4.061   0.489   8.621 -0.5413  0.4225 -0.0780
   20SAPC   C33 2640   4.301   0.610  10.307  0.1282 -0.0807  0.3279
   20SAPC   H3X 2641   4.353   0.702  10.273 -0.4419 -0.0121 -0.3547
   20SAPC   H3Y 2642   4.215   0.601  10.237 -1.1385  0.5494  1.7444
   20SAPC   C34 2643   4.404   0.493  10.284  1.0537  0.1464  0.7648
   20SAPC   H4X 2644   4.373   0.409  10.350 -1.8906  1.6571  1.3937
   20SAPC   H4Y 2645   4.493   0.552  10.317 -0.2276  3.3739 -1.3655
   20SAPC   C35 2646   4.417   0.447  10.136  0.0661  0.1980  0.4196
   20SAPC   H5X 2647   4.328   0.385  10.113  0.9908 -1.5850  1.4892
   20SAPC   H5Y 2648   4.511   0.391  10.116  1.0478  2.6947 -2.2851
   20SAPC   C36 2649   4.422   0.554  10.028  0.2470 -0.1986  1.1027
   20SAPC   H6X 2650   4.498   0.633  10.042  0.3939 -0.3674  1.2583
   20SAPC   H6Y 2651   4.328   0.613  10.034  0.5465  0.4809 -0.5701
   20SAPC   C37 2652   4.454   0.492   9.891  0.3599 -0.2451  0.3661
   20SAPC   H7X 2653   4.389   0.408   9.861 -0.9961  0.6203  0.7986
   20SAPC   H7Y 2654   4.561   0.463   9.892  0.3633 -0.2271  1.1054
   20SAPC   C38 2655   4.454   0.603   9.791  0.2255 -0.3092 -0.0760
   20SAPC   H8X 2656   4.543   0.666   9.813  0.9052 -1.9081  1.8786
   20SAPC   H8Y 2657   4.355   0.652   9.787 -0.2199 -1.2196 -0.4714
   20SAPC   C39 2658   4.478   0.554   9.642  0.5012  0.3233  0.3901
   20SAPC   H9X 2659   4.557   0.476   9.645  0.1538 -0.0835 -0.6647
   20SAPC   H9Y 2660   4.513   0.638   9.578  2.5356 -1.2318 -0.6038
   20SAPC  C310 2661   4.343   0.505   9.581  0.1090 -0.5268  0.3703
   20SAPC  H10X 2662   4.259   0.576   9.598  0.6035  0.4786 -1.2812
   20SAPC  H10Y 2663   4.323   0.402   9.617  1.3135 -0.4730  1.2186
   20SAPC  C311 2664   4.356   0.468   9.430 -0.4755 -0.6641 -0.3989
   20SAPC  H11X 2665   4.262   0.429   9.385  0.6138 -1.4722 -2.0367
   20SAPC  H11Y 2666   4.425   0.381   9.415  0.2760 -0.3119  0.9584
   20SAPC  C312 2667   4.415   0.579   9.335 -0.6634  0.7663  1.0116
   20SAPC  H12X 2668   4.525   0.564   9.338 -0.8629 -1.0016 -0.0890
   20SAPC  H12Y 2669   4.381   0.678   9.374 -0.7140  0.5142  1.6196
   20SAPC  C313 2670   4.368   0.559   9.192 -0.6881  0.7625 -0.4493
   20SAPC  H13X 2671   4.259   0.567   9.175 -0.5851  1.1351 -0.9243
   20SAPC  H13Y 2672   4.389   0.454   9.161 -3.9350 -0.6565  1.8170
   20SAPC  C314 2673   4.429   0.643   9.086  0.4409 -0.4253 -0.2522
   20SAPC  H14X 2674   4.415   0.608   8.982  1.2529  1.6980 -1.1170
   20SAPC  H14Y 2675   4.539   0.649   9.102  0.2529  2.7606  0.3051
   20SAPC  C315 2676   4.381   0.791   9.095  0.7521  0.0095 -0.2978
   20SAPC  H15X 2677   4.410   0.829   9.195  0.3968 -1.8020  0.5172
   20SAPC  H15Y 2678   4.270   0.791   9.099  0.8073  1.1557  2.9947
   20SAPC  C316 2679   4.445   0.878   8.987  0.6583  0.0600 -0.6313
   20SAPC  H16X 2680   4.555   0.879   9.002  0.4234  0.2947  1.1432
   20SAPC  H16Y 2681   4.423   0.984   9.010 -0.0688 -0.4410  1.0672
   20SAPC  C317 2682   4.403   0.846   8.843  0.1298  0.5622 -0.6714
   20SAPC  H17X 2683   4.295   0.822   8.845  0.6607 -1.8685  0.8925
   20SAPC  H17Y 2684   4.446   0.752   8.803 -0.2473  1.0716 -2.2979
   20SAPC  C318 2685   4.442   0.953   8.741 -0.6781 -0.2238  0.3940
   20SAPC  H18X 2686   4.397   0.926   8.644 -3.3675 -1.3860  1.9119
   20SAPC  H18Y 2687   4.550   0.978   8.733 -0.6023 -0.7669 -0.2860
   20SAPC  H18Z 2688   4.396   1.049   8.773  0.5824  1.3787 -2.3776
   21SAPC     N 2689   3.865   6.347  10.809 -0.1603  0.1733  0.3227
   21SAPC   C12 2690   3.971   6.448  10.855 -0.0712  0.6745  0.2489
   21SAPC  H12A 2691   3.940   6.495  10.948  3.1582  1.3645  1.0468
   21SAPC  H12B 2692   3.978   6.533  10.788  0.5359  0.3918 -0.0516
   21SAPC   C13 2693   3.731   6.411  10.821 -0.9825 -0.0485 -0.1198
   21SAPC  H13A 2694   3.727   6.491  10.748 -2.8351 -0.7070 -0.7517
   21SAPC  H13B 2695   3.653   6.340  10.799 -0.4360 -1.0561  1.1437
   21SAPC  H13C 2696   3.704   6.434  10.922  0.7964 -0.4062  0.4551
   21SAPC   C14 2697   3.893   6.281  10.677 -0.0854  0.4490 -0.4450
   21SAPC  H14A 2698   3.877   6.350  10.597 -0.6382  1.7053  0.7270
   21SAPC  H14B 2699   3.992   6.242  10.663 -1.0369 -1.4945 -2.0782
   21SAPC  H14C 2700   3.818   6.205  10.659 -0.1277  0.9952 -2.6741
   21SAPC   C15 2701   3.864   6.235  10.914 -0.3779 -1.0911  0.0117
   21SAPC  H15A 2702   3.768   6.187  10.914 -1.3292  0.7043  2.4642
   21SAPC  H15B 2703   3.944   6.163  10.904  1.2097  0.6125  0.0402
   21SAPC  H15C 2704   3.885   6.282  11.009  1.7437  1.9509 -1.8903
   21SAPC   C11 2705   4.118   6.405  10.870 -0.4964  0.0204 -0.0351
   21SAPC  H11A 2706   4.116   6.316  10.938 -0.4524 -0.5309 -0.7491
   21SAPC  H11B 2707   4.172   6.490  10.915 -0.0464 -1.1271  1.6622
   21SAPC     P 2708   4.312   6.381  10.697  0.1449  0.0221  0.3152
   21SAPC   O13 2709   4.404   6.322  10.803 -0.0709 -0.0395 -0.3277
   21SAPC   O14 2710   4.320   6.310  10.570  0.3022  0.5998 -0.1063
   21SAPC   O12 2711   4.165   6.356  10.743  0.0402  0.0919 -0.5285
   21SAPC   O11 2712   4.334   6.533  10.664 -0.2459 -0.1263 -0.6813
   21SAPC    C1 2713   4.234   6.603  10.587  0.2042  0.0360  0.8681
   21SAPC    HA 2714   4.168   6.531  10.534  1.0738  0.9398 -1.5007
   21SAPC    HB 2715   4.169   6.677  10.638 -0.4521  0.7128 -0.9207
   21SAPC    C2 2716   4.295   6.683  10.466 -0.2769 -0.2284 -0.7275
   21SAPC    HS 2717   4.214   6.721  10.401 -0.7004  0.0666 -0.0318
   21SAPC   O21 2718   4.381   6.600  10.394 -0.2553 -0.0230 -0.2339
   21SAPC   C21 2719   4.322   6.509  10.321  0.3371 -1.1831  0.1264
   21SAPC   O22 2720   4.200   6.501  10.302 -0.5254 -0.5801  0.0875
   21SAPC   C22 2721   4.440   6.439  10.240 -0.2229 -0.6704  0.5520
   21SAPC   H2R 2722   4.533   6.500  10.247  0.0281 -0.9549 -0.2159
   21SAPC   H2S 2723   4.452   6.343  10.295  0.2444 -0.1216  1.4156
   21SAPC    C3 2724   4.377   6.800  10.520 -0.4990  0.3683 -0.0938
   21SAPC    HX 2725   4.464   6.756  10.573 -0.3409 -1.9885 -2.2002
   21SAPC    HY 2726   4.315   6.841  10.602  0.9457 -0.3880  1.3967
   21SAPC   O31 2727   4.410   6.909  10.427 -0.0911 -0.0748 -0.5104
   21SAPC   C31 2728   4.515   6.880  10.356  0.3706  0.6858 -0.4052
   21SAPC   O32 2729   4.590   6.785  10.366  0.0740  0.0726 -0.1166
   21SAPC   C32 2730   4.519   6.971  10.229 -0.4685  0.2193  0.7420
   21SAPC   H2X 2731   4.540   7.076  10.262  1.9470  0.3107 -0.9581
   21SAPC   H2Y 2732   4.423   6.982  10.175 -0.3923 -1.0083  0.3465
   21SAPC   C23 2733   4.398   6.413  10.090 -0.1097 -0.1191  0.0274
   21SAPC   H3R 2734   4.380   6.513  10.045  0.3142  0.5280  1.2621
   21SAPC   H3S 2735   4.312   6.344  10.084  0.2923 -0.6591  0.4077
   21SAPC   C24 2736   4.512   6.336  10.019  0.0350 -0.4465 -0.5533
   21SAPC   H4R 2737   4.460   6.303   9.927 -2.3819  1.3358  0.0979
   21SAPC   H4S 2738   4.537   6.251  10.086 -0.5569  2.1363  3.1341
   21SAPC   C25 2739   4.640   6.400   9.986 -0.5900 -1.0963  0.2565
   21SAPC   H5R 2740   4.709   6.417  10.070 -0.2249 -2.4964  0.2475
   21SAPC   C26 2741   4.681   6.438   9.860  0.0119  0.1166 -0.5649
   21SAPC   H6R 2742   4.776   6.491   9.849 -0.8601  1.5885 -1.1162
   21SAPC   C27 2743   4.596   6.417   9.738 -0.2862  0.1603 -0.2547
   21SAPC   H7R 2744   4.558   6.312   9.726 -1.6631  0.6105 -0.0006
   21SAPC   H7S 2745   4.666   6.438   9.654  1.6295 -2.1103  0.7318
   21SAPC   C28 2746   4.474   6.500   9.713  0.0997 -0.2972 -0.0593
   21SAPC   H8R 2747   4.434   6.540   9.808 -0.4562  0.1059 -0.4584
   21SAPC   C29 2748   4.422   6.536   9.599  0.4641 -0.3165 -0.7533
   21SAPC   H9R 2749   4.343   6.612   9.592 -1.5047 -2.3533 -1.2544
   21SAPC  C210 2750   4.470   6.502   9.460  0.8503 -0.6490  0.6404
   21SAPC  H10R 2751   4.575   6.466   9.450  0.9704  0.1102 -0.9430
   21SAPC  H10S 2752   4.460   6.591   9.395  1.5891 -1.2330 -0.2829
   21SAPC  C211 2753   4.373   6.392   9.409 -0.8134  0.5785 -0.1964
   21SAPC  H11R 2754   4.365   6.302   9.472 -0.2662  0.1392 -0.7463
   21SAPC  C212 2755   4.293   6.390   9.305  0.5293  0.1950 -0.1294
   21SAPC  H12R 2756   4.220   6.313   9.276  0.0914  0.7647 -0.5863
   21SAPC  C213 2757   4.276   6.502   9.202 -0.2418  0.4559  0.3061
   21SAPC  H13R 2758   4.281   6.594   9.263  2.4293 -0.8773  2.1824
   21SAPC  H13S 2759   4.170   6.491   9.169 -0.3849 -2.6113  1.5622
   21SAPC  C214 2760   4.396   6.504   9.108  0.0950  0.6811  0.0166
   21SAPC  H14R 2761   4.500   6.517   9.144  0.0953  1.6126 -0.2945
   21SAPC  C215 2762   4.382   6.506   8.975 -0.8274  0.5942 -0.2503
   21SAPC  H15R 2763   4.475   6.506   8.916 -0.5520 -2.2932  0.1090
   21SAPC  C216 2764   4.256   6.507   8.891  0.2990 -0.6370 -0.7584
   21SAPC  H16R 2765   4.244   6.611   8.853  0.1202  0.4136  1.9774
   21SAPC  H16S 2766   4.167   6.488   8.955  1.0943 -1.0157  0.2559
   21SAPC  C217 2767   4.269   6.403   8.784  0.6624  0.5312 -0.0445
   21SAPC  H17R 2768   4.274   6.301   8.828  1.0742  0.0144 -1.2700
   21SAPC  H17S 2769   4.360   6.416   8.722  1.0684  1.0573  0.6491
   21SAPC  C218 2770   4.143   6.408   8.694 -0.2934 -0.1205  0.6709
   21SAPC  H18R 2771   4.171   6.341   8.611  0.4174  1.1098 -0.0892
   21SAPC  H18S 2772   4.137   6.510   8.650  0.7845 -1.6309 -3.1715
   21SAPC  C219 2773   4.012   6.369   8.756  0.1793  0.6790 -0.2985
   21SAPC  H19R 2774   3.993   6.440   8.839  0.5256 -1.2502  1.4701
   21SAPC  H19S 2775   4.028   6.270   8.803  0.8370  0.0945 -1.7067
   21SAPC  C220 2776   3.910   6.383   8.650  0.0844 -0.6529  0.3292
   21SAPC  H20R 2777   3.942   6.477   8.600 -3.0708  0.7701  0.8757
   21SAPC  H20S 2778   3.808   6.398   8.692  0.2140 -2.5175  1.3666
   21SAPC  H20T 2779   3.915   6.305   8.571 -0.6559  1.0525 -1.4406
   21SAPC   C33 2780   4.626   6.935  10.125 -0.8197 -0.9396 -0.0051
   21SAPC   H3X 2781   4.722   6.916  10.179 -1.9175 -2.8396  1.3447
   21SAPC   H3Y 2782   4.657   7.018  10.058  1.4732 -0.5242  1.5162
   21SAPC   C34 2783   4.576   6.828  10.030 -0.3136 -0.6268  0.4712
   21SAPC   H4X 2784   4.483   6.875   9.991  0.4200 -1.7606 -2.8019
   21SAPC   H4Y 2785   4.545   6.741  10.092  0.0276 -0.0071  1.5193
   21SAPC   C35 2786   4.681   6.790   9.919 -0.5628  0.2659  0.4739
   21SAPC   H5X 2787   4.631   6.707   9.864 -0.0403 -0.2702  0.7991
   21SAPC   H5Y 2788   4.769   6.748   9.971  0.1905  0.3299 -0.7430
   21SAPC   C36 2789   4.712   6.902   9.817  0.0203  0.2872  0.1049
   21SAPC   H6X 2790   4.783   6.849   9.750  0.5547 -0.0776  0.9385
   21SAPC   H6Y 2791   4.771   6.986   9.858  0.7066  0.7099 -1.6951
   21SAPC   C37 2792   4.583   6.947   9.744  0.0396  0.7027  0.1813
   21SAPC   H7X 2793   4.524   7.001   9.821 -0.0251  0.2521  0.4469
   21SAPC   H7Y 2794   4.522   6.859   9.716  0.0221  0.4306  1.0550
   21SAPC   C38 2795   4.612   7.027   9.618  0.1902  0.8936  0.1711
   21SAPC   H8X 2796   4.669   7.122   9.632 -1.6613  1.9419  0.8460
   21SAPC   H8Y 2797   4.509   7.054   9.585 -0.8318 -0.2254  2.3723
   21SAPC   C39 2798   4.685   6.939   9.515 -0.7355  0.5845 -0.0118
   21SAPC   H9X 2799   4.637   6.839   9.511 -0.1452  0.2957  0.2156
   21SAPC   H9Y 2800   4.790   6.931   9.550 -1.1888 -0.8484  1.0769
   21SAPC  C310 2801   4.665   6.993   9.373 -0.0490 -0.0180 -0.3231
   21SAPC  H10X 2802   4.750   6.971   9.304  0.4062  0.3571  0.1133
   21SAPC  H10Y 2803   4.633   7.100   9.372 -0.8077 -0.2399 -0.1311
   21SAPC  C311 2804   4.546   6.932   9.296  0.4582  0.4711 -0.4419
   21SAPC  H11X 2805   4.451   6.973   9.335 -0.0335  0.6959 -1.8535
   21SAPC  H11Y 2806   4.544   6.823   9.318  0.2169  0.7112  0.7990
   21SAPC  C312 2807   4.558   6.958   9.150 -0.5858  0.0119  0.3214
   21SAPC  H12X 2808   4.648   6.907   9.110 -1.5950 -0.5746 -1.2760
   21SAPC  H12Y 2809   4.561   7.068   9.136  0.2921  0.2323  2.0890
   21SAPC  C313 2810   4.438   6.903   9.064  1.0390  0.1461  0.0627
   21SAPC  H13X 2811   4.348   6.948   9.110  0.0212 -3.7630  2.1488
   21SAPC  H13Y 2812   4.421   6.793   9.068  0.8615  0.1883  0.5677
   21SAPC  C314 2813   4.440   6.950   8.920  0.4561  0.7682  0.1551
   21SAPC  H14X 2814   4.350   6.908   8.870  1.0539 -1.3749  0.8065
   21SAPC  H14Y 2815   4.522   6.907   8.859  0.6172 -0.5157  1.2558
   21SAPC  C315 2816   4.446   7.096   8.889 -0.5251 -0.0294 -0.5159
   21SAPC  H15X 2817   4.544   7.137   8.922 -0.0828 -0.4961 -1.2317
   21SAPC  H15Y 2818   4.374   7.164   8.940 -0.6281  0.0143 -0.7169
   21SAPC  C316 2819   4.427   7.135   8.740 -0.2320  0.6596 -0.1704
   21SAPC  H16X 2820   4.326   7.108   8.704 -0.4011 -0.5150  1.1347
   21SAPC  H16Y 2821   4.497   7.077   8.677  0.5624  0.3703  0.9615
   21SAPC  C317 2822   4.446   7.290   8.713 -0.0757  0.1307  0.0055
   21SAPC  H17X 2823   4.549   7.320   8.744  0.1282 -0.9158  0.3725
   21SAPC  H17Y 2824   4.365   7.345   8.765 -1.2614 -1.7700  0.1864
   21SAPC  C318 2825   4.427   7.323   8.560  0.8282 -0.4360 -0.2175
   21SAPC  H18X 2826   4.320   7.313   8.531  0.1671 -0.4582  2.0598
   21SAPC  H18Y 2827   4.489   7.257   8.495 -0.0941 -0.8033 -0.7407
   21SAPC  H18Z 2828   4.457   7.428   8.541  0.4628 -0.1637  0.6734
   22SAPC     N 2829   3.612   4.104  10.407 -0.3303 -0.2419 -0.2573
   22SAPC   C12 2830   3.483   4.189  10.413 -0.0005  0.2604  0.5030
   22SAPC  H12A 2831   3.503   4.282  10.362 -1.1069 -0.7905 -1.9391
   22SAPC  H12B 2832   3.463   4.219  10.515 -1.8356  2.5492 -0.4830
   22SAPC   C13 2833   3.716   4.180  10.474 -0.5867  0.2616 -0.2321
   22SAPC  H13A 2834   3.715   4.284  10.443  0.3064  1.1303  2.5087
   22SAPC  H13B 2835   3.707   4.189  10.581 -1.3570  1.1033 -0.3536
   22SAPC  H13C 2836   3.804   4.123  10.448 -0.6197  0.1525 -0.1027
   22SAPC   C14 2837   3.594   3.978  10.477 -0.2749  0.2248  0.7272
   22SAPC  H14A 2838   3.592   3.985  10.585  1.6472 -0.9537  0.8693
   22SAPC  H14B 2839   3.502   3.929  10.450 -0.6365  0.0202  2.2508
   22SAPC  H14C 2840   3.675   3.909  10.459 -0.5794  0.8629 -3.6504
   22SAPC   C15 2841   3.655   4.058  10.269  0.6242 -0.4941  0.4855
   22SAPC  H15A 2842   3.676   4.143  10.205 -1.6447 -1.0855 -1.1113
   22SAPC  H15B 2843   3.741   3.994  10.281  0.2833 -0.6207  2.3053
   22SAPC  H15C 2844   3.580   3.996  10.223 -0.7891 -0.4009  2.6422
   22SAPC   C11 2845   3.351   4.120  10.360  0.0001  0.4985 -0.1382
   22SAPC  H11A 2846   3.379   4.092  10.256 -1.5258  0.2115 -0.4752
   22SAPC  H11B 2847   3.273   4.199  10.355  0.8785  1.3637 -0.4023
   22SAPC     P 2848   3.208   4.019  10.546  0.2315 -0.1897  0.1977
   22SAPC   O13 2849   3.183   3.885  10.615  0.2595  0.4359  0.6488
   22SAPC   O14 2850   3.246   4.134  10.630 -0.5835  0.0906 -0.0715
   22SAPC   O12 2851   3.314   4.007  10.435 -0.0802 -0.2885 -0.2257
   22SAPC   O11 2852   3.067   4.051  10.470  0.1165  0.1507  0.2906
   22SAPC    C1 2853   3.015   3.953  10.378 -0.1553  0.3371 -0.4269
   22SAPC    HA 2854   3.052   3.850  10.400  0.3223  0.6336  0.1736
   22SAPC    HB 2855   2.904   3.954  10.384 -0.1565 -1.3900  0.3613
   22SAPC    C2 2856   3.043   3.984  10.226 -0.4301 -0.0665 -0.6246
   22SAPC    HS 2857   3.153   3.988  10.215 -0.6363 -0.8063 -3.3065
   22SAPC   O21 2858   2.970   4.102  10.204  1.0447 -0.5049 -0.2016
   22SAPC   C21 2859   3.033   4.184  10.112  0.2217 -0.5960 -0.4370
   22SAPC   O22 2860   3.129   4.145  10.052  0.5773 -0.2779 -0.0377
   22SAPC   C22 2861   2.968   4.323  10.094 -0.6169 -0.0659  0.2753
   22SAPC   H2R 2862   2.858   4.323  10.111 -0.6814  0.2009 -0.1276
   22SAPC   H2S 2863   3.014   4.387  10.172 -2.9011 -0.0715  1.6724
   22SAPC    C3 2864   2.987   3.867  10.139  0.2287 -0.7206  0.1034
   22SAPC    HX 2865   2.880   3.885  10.161  0.0850 -0.5555 -0.7233
   22SAPC    HY 2866   3.006   3.765  10.176 -1.0027 -1.5686 -1.5420
   22SAPC   O31 2867   3.014   3.872   9.999 -0.1640  0.0059  0.3343
   22SAPC   C31 2868   3.136   3.840   9.963  0.3650 -0.3761  0.6798
   22SAPC   O32 2869   3.228   3.794  10.030  0.2025  0.1563 -0.0247
   22SAPC   C32 2870   3.167   3.872   9.814 -0.1448 -0.3667  0.2320
   22SAPC   H2X 2871   3.278   3.872   9.811 -0.1019  1.4074  0.9956
   22SAPC   H2Y 2872   3.116   3.970   9.802 -1.4242 -1.3472 -2.6718
   22SAPC   C23 2873   2.998   4.387   9.955  0.0137  0.7644 -0.2984
   22SAPC   H3R 2874   3.100   4.358   9.922 -0.2519 -1.2498  0.5464
   22SAPC   H3S 2875   2.998   4.498   9.963 -1.2529  0.6219  2.1616
   22SAPC   C24 2876   2.894   4.346   9.856  0.2982 -0.8278 -0.2147
   22SAPC   H4R 2877   2.910   4.410   9.767 -1.8617 -1.7407 -1.2750
   22SAPC   H4S 2878   2.796   4.375   9.899  0.4062 -1.2821  0.3502
   22SAPC   C25 2879   2.886   4.205   9.812 -0.2576  0.0111 -0.7094
   22SAPC   H5R 2880   2.867   4.128   9.889 -4.3459  2.6512  1.0942
   22SAPC   C26 2881   2.909   4.164   9.687 -0.6176  0.9681  0.6474
   22SAPC   H6R 2882   2.892   4.056   9.670  2.0275  0.3283  1.8724
   22SAPC   C27 2883   2.943   4.250   9.570  0.9555 -0.8009  0.5889
   22SAPC   H7R 2884   2.997   4.182   9.500 -0.7336 -0.0077 -1.5677
   22SAPC   H7S 2885   3.021   4.320   9.605  0.6986 -0.0048 -0.4102
   22SAPC   C28 2886   2.829   4.319   9.495 -0.4586 -0.1249 -0.1681
   22SAPC   H8R 2887   2.729   4.315   9.541 -0.7744  1.9638 -0.6298
   22SAPC   C29 2888   2.848   4.373   9.375  0.0977 -0.0300  0.0102
   22SAPC   H9R 2889   2.758   4.423   9.337  0.1559  0.6269  0.7239
   22SAPC  C210 2890   2.979   4.373   9.299 -0.1076  0.1297 -0.0930
   22SAPC  H10R 2891   2.964   4.316   9.205  0.5401 -0.7673  0.3468
   22SAPC  H10S 2892   3.062   4.314   9.343 -1.0759 -1.5716 -0.5392
   22SAPC  C211 2893   3.009   4.519   9.267  0.5425 -0.6640  0.2712
   22SAPC  H11R 2894   3.083   4.555   9.339 -0.3542 -1.5012  1.6272
   22SAPC  C212 2895   2.985   4.597   9.161  0.9006 -0.0866 -0.2252
   22SAPC  H12R 2896   3.008   4.705   9.170 -0.7144  0.2938 -0.4982
   22SAPC  C213 2897   2.903   4.550   9.044 -0.3802  0.3770  0.1723
   22SAPC  H13R 2898   2.838   4.465   9.076 -2.0059  1.7860  0.6851
   22SAPC  H13S 2899   2.976   4.503   8.975 -1.0303 -1.9561  0.9945
   22SAPC  C214 2900   2.828   4.666   8.983  0.9105 -0.0156  0.1202
   22SAPC  H14R 2901   2.774   4.736   9.048  0.7046  0.1316 -0.2100
   22SAPC  C215 2902   2.834   4.707   8.854 -0.8429 -0.3499 -0.1498
   22SAPC  H15R 2903   2.773   4.797   8.839  1.5648  1.3378 -0.0892
   22SAPC  C216 2904   2.904   4.652   8.736  0.0403  0.2530  0.1777
   22SAPC  H16R 2905   2.835   4.664   8.649  0.3226 -1.1338 -0.2368
   22SAPC  H16S 2906   2.908   4.544   8.760  3.9834  0.3422  0.1732
   22SAPC  C217 2907   3.043   4.702   8.702 -0.1704  0.0352  0.6220
   22SAPC  H17R 2908   3.106   4.692   8.793  3.0292 -0.8723 -1.6077
   22SAPC  H17S 2909   3.034   4.811   8.682  0.4374  0.0059  0.1872
   22SAPC  C218 2910   3.097   4.638   8.577  0.6612  0.7854 -0.2965
   22SAPC  H18R 2911   3.025   4.627   8.493  0.9496  1.1978 -0.6020
   22SAPC  H18S 2912   3.118   4.531   8.595 -3.7124  0.0811  1.2181
   22SAPC  C219 2913   3.225   4.696   8.525 -0.5945 -1.0242  1.4514
   22SAPC  H19R 2914   3.304   4.698   8.603  0.8307  0.7877  0.0144
   22SAPC  H19S 2915   3.219   4.804   8.501  3.5003 -1.0661 -0.1880
   22SAPC  C220 2916   3.280   4.617   8.403  0.2069  0.2322 -0.9587
   22SAPC  H20R 2917   3.200   4.607   8.327 -1.0361  0.8265  0.2487
   22SAPC  H20S 2918   3.317   4.517   8.434 -0.1917  0.0826 -0.9675
   22SAPC  H20T 2919   3.364   4.674   8.357 -0.4304  1.9070 -0.0814
   22SAPC   C33 2920   3.104   3.774   9.713 -0.5171 -0.4212  0.7681
   22SAPC   H3X 2921   3.003   3.741   9.747 -0.1396 -1.3600  0.9930
   22SAPC   H3Y 2922   3.155   3.675   9.714 -1.3997 -0.9006 -0.4337
   22SAPC   C34 2923   3.106   3.832   9.568 -0.3204 -0.0247 -0.4336
   22SAPC   H4X 2924   3.210   3.856   9.535 -0.1129  0.7857  0.7457
   22SAPC   H4Y 2925   3.054   3.930   9.571  2.1838  1.3335 -0.2751
   22SAPC   C35 2926   3.038   3.733   9.471 -0.6984  0.3024 -0.6479
   22SAPC   H5X 2927   2.951   3.688   9.524 -0.6806  1.8376  0.7430
   22SAPC   H5Y 2928   3.108   3.649   9.452 -1.3912 -0.0299 -1.7456
   22SAPC   C36 2929   2.984   3.791   9.348 -0.8112  0.4039 -0.0440
   22SAPC   H6X 2930   2.950   3.706   9.285  1.3435 -0.6300  0.1629
   22SAPC   H6Y 2931   3.067   3.844   9.296 -0.7765  0.2297 -0.1706
   22SAPC   C37 2932   2.869   3.887   9.380  0.3280  0.1865 -0.2522
   22SAPC   H7X 2933   2.890   3.987   9.423 -3.7078  1.0043  0.0039
   22SAPC   H7Y 2934   2.800   3.838   9.452  2.4639 -2.0283  0.3785
   22SAPC   C38 2935   2.788   3.927   9.253  0.0783 -0.6115  0.6843
   22SAPC   H8X 2936   2.706   3.994   9.286  1.0042  1.3159 -0.8645
   22SAPC   H8Y 2937   2.751   3.829   9.215  1.2427 -0.8760  0.2325
   22SAPC   C39 2938   2.875   3.993   9.140  0.0418 -0.6243  0.1727
   22SAPC   H9X 2939   2.952   3.917   9.115 -0.6675 -1.0697 -0.6889
   22SAPC   H9Y 2940   2.923   4.080   9.189 -2.7764  0.5558  0.9325
   22SAPC  C310 2941   2.797   4.026   9.012  0.1112  0.0740  0.6022
   22SAPC  H10X 2942   2.735   4.117   9.021  1.8136  1.0283  3.2655
   22SAPC  H10Y 2943   2.732   3.943   8.977  0.6862 -0.1055 -0.0708
   22SAPC  C311 2944   2.884   4.054   8.889  0.4112 -0.3795 -0.4664
   22SAPC  H11X 2945   2.819   4.073   8.801 -0.0147  1.6157  0.2550
   22SAPC  H11Y 2946   2.949   3.966   8.866  1.1368  0.4732 -1.6923
   22SAPC  C312 2947   2.961   4.187   8.913 -0.3417  0.4481  0.5256
   22SAPC  H12X 2948   3.036   4.178   8.994  0.9493  0.0653 -0.7033
   22SAPC  H12Y 2949   2.893   4.271   8.938 -0.3895  0.1918  1.2764
   22SAPC  C313 2950   3.041   4.237   8.793 -1.3591  0.5230 -0.1715
   22SAPC  H13X 2951   3.061   4.346   8.799 -1.8975  0.5759  0.6111
   22SAPC  H13Y 2952   2.973   4.231   8.706 -0.5669 -2.0505 -0.6785
   22SAPC  C314 2953   3.169   4.156   8.771 -0.1806  0.6351  0.8246
   22SAPC  H14X 2954   3.156   4.046   8.787  2.9813  0.0396 -0.2493
   22SAPC  H14Y 2955   3.238   4.195   8.848  1.3664  0.6460 -0.5203
   22SAPC  C315 2956   3.239   4.189   8.630  0.0159 -0.0942 -1.0133
   22SAPC  H15X 2957   3.342   4.149   8.640 -0.0381 -0.7254 -2.7411
   22SAPC  H15Y 2958   3.244   4.299   8.617  1.4548 -0.0469 -0.1077
   22SAPC  C316 2959   3.183   4.117   8.506 -0.8744  0.0881 -1.2615
   22SAPC  H16X 2960   3.126   4.030   8.545 -0.7075  0.5429  0.0150
   22SAPC  H16Y 2961   3.267   4.064   8.455  0.8091 -1.5008  2.9321
   22SAPC  C317 2962   3.097   4.197   8.408  0.1524  0.2893 -0.1453
   22SAPC  H17X 2963   3.026   4.268   8.456  0.1271  1.5052 -1.9488
   22SAPC  H17Y 2964   3.027   4.130   8.353  0.0402  0.1433  0.1706
   22SAPC  C318 2965   3.180   4.275   8.310 -0.2876 -0.5777  0.6435
   22SAPC  H18X 2966   3.200   4.372   8.360  0.4481  0.7429 -2.0956
   22SAPC  H18Y 2967   3.132   4.306   8.215  1.2436  1.5937  0.5516
   22SAPC  H18Z 2968   3.275   4.220   8.293  0.3096  0.2877  1.1293
   23SAPC     N 2969   4.906   4.864  10.818  0.5549 -0.0677 -0.1613
   23SAPC   C12 2970   4.846   4.995  10.869  0.2820 -0.3986 -0.0218
   23SAPC  H12A 2971   4.748   4.978  10.910 -1.0500  0.2245 -2.8723
   23SAPC  H12B 2972   4.831   5.064  10.788 -1.9857 -0.4765  0.3015
   23SAPC   C13 2973   4.807   4.796  10.727  0.0705 -0.5173  0.1884
   23SAPC  H13A 2974   4.762   4.865  10.656  0.2041  0.8652  1.4245
   23SAPC  H13B 2975   4.843   4.711  10.670  0.4131 -0.1186 -0.1934
   23SAPC  H13C 2976   4.720   4.759  10.780 -0.1233  0.3502  0.4827
   23SAPC   C14 2977   5.027   4.906  10.743  0.6481  0.5016  0.1000
   23SAPC  H14A 2978   5.079   4.815  10.717  1.3729  1.5620 -2.3424
   23SAPC  H14B 2979   5.008   4.971  10.659 -1.1957  1.0062  0.8888
   23SAPC  H14C 2980   5.093   4.962  10.808 -0.3006  2.2003 -0.3651
   23SAPC   C15 2981   4.946   4.765  10.923  0.8428  0.4327  1.0881
   23SAPC  H15A 2982   4.872   4.759  11.001  0.9684 -0.1775  1.1597
   23SAPC  H15B 2983   4.980   4.675  10.875  1.7915  0.7442  1.1418
   23SAPC  H15C 2984   5.022   4.815  10.983  1.9281  1.4280 -1.0719
   23SAPC   C11 2985   4.915   5.076  10.975  0.2664 -0.2647 -0.7203
   23SAPC  H11A 2986   4.937   5.016  11.066  0.7397 -1.1844 -1.4317
   23SAPC  H11B 2987   4.844   5.151  11.014 -0.1137 -0.8383 -0.3036
   23SAPC     P 2988   5.066   5.277  10.880  0.2806 -0.1791  0.2131
   23SAPC   O13 2989   4.953   5.354  10.936 -0.4367  0.7920  0.4252
   23SAPC   O14 2990   5.198   5.313  10.922 -0.1701 -0.2465  0.3231
   23SAPC   O12 2991   5.037   5.130  10.926 -0.8556 -0.1713  0.3582
   23SAPC   O11 2992   5.049   5.268  10.724 -0.3376 -0.3489  0.6137
   23SAPC    C1 2993   5.093   5.373  10.642  0.1179 -0.2630  0.0098
   23SAPC    HA 2994   5.005   5.438  10.625  0.2308  0.0879  0.7174
   23SAPC    HB 2995   5.178   5.426  10.690 -1.6144  2.0921  0.5427
   23SAPC    C2 2996   5.148   5.312  10.508 -0.1636 -0.0642 -0.0025
   23SAPC    HS 2997   5.209   5.394  10.464 -0.3102 -0.2639 -0.5805
   23SAPC   O21 2998   5.040   5.276  10.426  0.3863  0.2585 -0.0495
   23SAPC   C21 2999   5.039   5.320  10.305 -0.6496  0.1402 -0.1356
   23SAPC   O22 3000   5.105   5.410  10.257  0.2052 -0.2349  0.1805
   23SAPC   C22 3001   4.910   5.283  10.232  0.7635 -0.3467  1.0211
   23SAPC   H2R 3002   4.901   5.172  10.233  0.1510 -0.3047  0.4564
   23SAPC   H2S 3003   4.824   5.317  10.292  0.1825  1.9045 -0.9973
   23SAPC    C3 3004   5.237   5.195  10.543 -0.7456 -0.5375  1.1359
   23SAPC    HX 3005   5.171   5.118  10.589 -1.9823  0.9916  1.9625
   23SAPC    HY 3006   5.303   5.211  10.631 -0.2597  1.7531  0.3955
   23SAPC   O31 3007   5.312   5.133  10.430  0.4147  0.1842  0.8868
   23SAPC   C31 3008   5.430   5.185  10.412  0.5108 -0.4613 -0.3711
   23SAPC   O32 3009   5.473   5.287  10.472 -0.2052 -0.6164 -0.2916
   23SAPC   C32 3010   5.493   5.103  10.306  0.0115 -0.1605 -1.0481
   23SAPC   H2X 3011   5.432   5.091  10.214  0.9432 -0.0971 -1.6708
   23SAPC   H2Y 3012   5.527   5.002  10.338  1.3195  0.4009 -0.6348
   23SAPC   C23 3013   4.900   5.347  10.085  1.0498 -0.3319 -0.1838
   23SAPC   H3R 3014   4.961   5.289  10.012  1.3697  1.3561 -1.2795
   23SAPC   H3S 3015   4.921   5.456  10.093 -2.8547  0.4146  0.8185
   23SAPC   C24 3016   4.761   5.327  10.034  0.5592  0.5106 -0.0312
   23SAPC   H4R 3017   4.745   5.396   9.949 -2.3784  0.1567  0.1696
   23SAPC   H4S 3018   4.687   5.358  10.111  0.3765 -1.0767  0.4515
   23SAPC   C25 3019   4.706   5.187   9.996  0.1927 -0.4899 -0.3384
   23SAPC   H5R 3020   4.623   5.159  10.062  0.2692  1.5852  0.6648
   23SAPC   C26 3021   4.740   5.109   9.894  0.1365 -0.4805  0.1348
   23SAPC   H6R 3022   4.683   5.017   9.874  0.3559 -0.2750 -1.5727
   23SAPC   C27 3023   4.845   5.132   9.783  0.5985 -0.0797  0.0706
   23SAPC   H7R 3024   4.877   5.036   9.738 -0.6359 -0.4248 -0.0990
   23SAPC   H7S 3025   4.936   5.174   9.830  1.1655 -1.6369  0.3911
   23SAPC   C28 3026   4.798   5.212   9.663 -0.4443 -0.5137 -1.1455
   23SAPC   H8R 3027   4.702   5.263   9.678  0.1456  0.0400  0.8977
   23SAPC   C29 3028   4.874   5.221   9.547  0.2259  0.1602  0.1214
   23SAPC   H9R 3029   4.839   5.289   9.469 -0.4175  0.2933  0.5189
   23SAPC  C210 3030   5.007   5.159   9.498  0.1421  0.2632  0.0178
   23SAPC  H10R 3031   5.075   5.150   9.586 -2.3961 -0.1058  2.0090
   23SAPC  H10S 3032   5.065   5.233   9.439 -0.6629  0.5076 -0.4693
   23SAPC  C211 3033   5.007   5.024   9.433  0.0513  0.1857 -0.4414
   23SAPC  H11R 3034   4.962   4.947   9.497 -2.1214  1.6998 -0.0788
   23SAPC  C212 3035   5.067   4.987   9.315 -0.1607 -0.2793 -0.3779
   23SAPC  H12R 3036   5.062   4.879   9.291  0.8086 -1.0081  2.4157
   23SAPC  C213 3037   5.138   5.089   9.223 -0.6303 -0.4618  0.3933
   23SAPC  H13R 3038   5.246   5.067   9.233 -0.5834 -0.1100  0.6559
   23SAPC  H13S 3039   5.139   5.196   9.251 -2.4825 -0.5496  0.8626
   23SAPC  C214 3040   5.099   5.065   9.083  0.9429  0.3568  0.1938
   23SAPC  H14R 3041   5.139   4.971   9.044 -2.0733 -1.1612  0.5987
   23SAPC  C215 3042   5.007   5.129   9.000 -0.7062  0.4588  1.0923
   23SAPC  H15R 3043   4.988   5.089   8.900 -1.6733 -0.8809  1.8005
   23SAPC  C216 3044   4.928   5.265   9.025 -0.5926 -0.1191  0.0386
   23SAPC  H16R 3045   4.945   5.309   9.125 -0.4445 -0.9121  0.3612
   23SAPC  H16S 3046   4.820   5.241   9.013 -0.4580 -0.5121 -0.4193
   23SAPC  C217 3047   4.966   5.368   8.925  0.1426 -0.5779  0.6071
   23SAPC  H17R 3048   4.925   5.343   8.825 -1.2553 -1.9656  1.5056
   23SAPC  H17S 3049   5.074   5.365   8.900 -0.6913  2.2194 -4.0947
   23SAPC  C218 3050   4.920   5.509   8.959  0.1128 -0.0865 -0.6022
   23SAPC  H18R 3051   4.967   5.530   9.058  1.3201  0.3385 -1.2428
   23SAPC  H18S 3052   4.811   5.511   8.979  0.6646  0.7931  2.6944
   23SAPC  C219 3053   4.951   5.618   8.860  0.5685  0.3230  0.3303
   23SAPC  H19R 3054   5.058   5.624   8.829  0.5532 -0.6069  0.0510
   23SAPC  H19S 3055   4.915   5.713   8.904 -1.6049 -0.1654 -0.3267
   23SAPC  C220 3056   4.878   5.601   8.725  0.3455  0.4393 -1.3004
   23SAPC  H20R 3057   4.896   5.689   8.660 -1.3872  0.3473 -1.9216
   23SAPC  H20S 3058   4.770   5.594   8.747  0.6622 -1.1699 -0.1499
   23SAPC  H20T 3059   4.913   5.509   8.673  0.2857 -0.5755  0.4152
   23SAPC   C33 3060   5.630   5.170  10.257  0.7593  0.5258 -0.0991
   23SAPC   H3X 3061   5.699   5.182  10.343  0.5307 -1.1371  0.3439
   23SAPC   H3Y 3062   5.615   5.272  10.217  1.3154  0.0626 -1.5201
   23SAPC   C34 3063   5.698   5.085  10.151 -0.1717  0.5065 -0.6915
   23SAPC   H4X 3064   5.629   5.021  10.093  0.4340 -1.0905  0.3357
   23SAPC   H4Y 3065   5.773   5.017  10.195  0.1068  0.6326 -0.9657
   23SAPC   C35 3066   5.781   5.173  10.049 -0.2292  0.4339  0.1650
   23SAPC   H5X 3067   5.854   5.240  10.100 -1.5527  2.1443 -0.1125
   23SAPC   H5Y 3068   5.709   5.247  10.007 -0.9558  1.6557  3.4504
   23SAPC   C36 3069   5.851   5.097   9.943  0.2155  0.0432  0.0179
   23SAPC   H6X 3070   5.779   5.023   9.902 -0.2720  0.3220  0.3604
   23SAPC   H6Y 3071   5.941   5.043   9.977  1.6318  1.5371 -1.2980
   23SAPC   C37 3072   5.913   5.194   9.839  0.1416 -0.3045  0.2233
   23SAPC   H7X 3073   5.982   5.275   9.870  0.4797  0.3516 -2.1144
   23SAPC   H7Y 3074   5.835   5.246   9.779  1.2040 -2.5575 -3.3361
   23SAPC   C38 3075   5.985   5.111   9.727 -0.0858 -0.3823 -0.0763
   23SAPC   H8X 3076   5.905   5.048   9.681  0.6386 -1.5347  0.2375
   23SAPC   H8Y 3077   6.056   5.037   9.770  1.1709 -0.9876 -3.0515
   23SAPC   C39 3078   6.063   5.186   9.624  0.1348 -0.2412 -0.4218
   23SAPC   H9X 3079   6.159   5.227   9.662  0.1478  1.2566 -2.0272
   23SAPC   H9Y 3080   6.012   5.274   9.581  0.6795  0.6480  0.7062
   23SAPC  C310 3081   6.090   5.096   9.494 -0.3684  0.3638  0.4369
   23SAPC  H10X 3082   6.111   4.992   9.527 -3.2485 -0.0935  0.9384
   23SAPC  H10Y 3083   6.174   5.143   9.438 -2.3465  0.4409 -2.6121
   23SAPC  C311 3084   5.970   5.089   9.400 -0.6661  0.1429  0.2961
   23SAPC  H11X 3085   5.889   5.058   9.468  0.4327 -2.7919  0.3230
   23SAPC  H11Y 3086   5.996   5.009   9.327 -0.3504  1.0620 -0.6133
   23SAPC  C312 3087   5.948   5.216   9.321  0.6415 -0.2123  0.7137
   23SAPC  H12X 3088   6.043   5.236   9.267  0.3657 -0.1384  0.2567
   23SAPC  H12Y 3089   5.925   5.298   9.392  1.1718  1.4911 -1.0485
   23SAPC  C313 3090   5.839   5.196   9.212 -0.1838 -0.5713  0.3229
   23SAPC  H13X 3091   5.738   5.178   9.253 -0.0972  0.6104  1.0699
   23SAPC  H13Y 3092   5.868   5.108   9.150  1.8890  1.0708 -1.1281
   23SAPC  C314 3093   5.838   5.312   9.106  0.4548  0.0357  0.3859
   23SAPC  H14X 3094   5.789   5.401   9.151  3.2329  2.4714 -1.2206
   23SAPC  H14Y 3095   5.779   5.279   9.018  0.2306  0.1729  0.4859
   23SAPC  C315 3096   5.971   5.356   9.047 -0.1172 -0.0659  0.3437
   23SAPC  H15X 3097   6.026   5.263   9.021  3.4789  1.2523  2.8035
   23SAPC  H15Y 3098   6.043   5.394   9.122 -0.3045 -0.9897  1.0061
   23SAPC  C316 3099   5.954   5.443   8.923  0.5921  0.1234 -0.4886
   23SAPC  H16X 3100   5.944   5.543   8.971  0.1784  0.1673 -0.6607
   23SAPC  H16Y 3101   5.864   5.418   8.863 -0.2292  1.0562  0.3321
   23SAPC  C317 3102   6.079   5.439   8.843  0.4079 -0.1049 -0.0325
   23SAPC  H17X 3103   6.089   5.335   8.805 -1.9711 -0.9154  1.4702
   23SAPC  H17Y 3104   6.153   5.467   8.922 -1.2544 -1.1339  1.9393
   23SAPC  C318 3105   6.075   5.523   8.719 -0.2998  0.3584  0.3990
   23SAPC  H18X 3106   6.114   5.625   8.739 -0.0017  0.2933  0.1586
   23SAPC  H18Y 3107   5.971   5.553   8.695 -0.6166 -2.0452 -1.4299
   23SAPC  H18Z 3108   6.118   5.478   8.627 -3.2402  0.4163 -1.0395
   24SAPC     N 3109   1.766   6.160  11.108 -0.4256  0.2635  0.5924
   24SAPC   C12 3110   1.648   6.079  11.146 -0.5409 -0.0096  0.7747
   24SAPC  H12A 3111   1.569   6.145  11.178 -1.8249 -2.2994  2.4838
   24SAPC  H12B 3112   1.674   6.009  11.224  2.3412  1.4086  1.1607
   24SAPC   C13 3113   1.876   6.079  11.053 -0.0275 -0.9640 -0.0828
   24SAPC  H13A 3114   1.942   6.152  11.008 -0.7836 -0.1060  0.1723
   24SAPC  H13B 3115   1.930   6.015  11.122  0.7768 -0.2798 -0.0709
   24SAPC  H13C 3116   1.847   6.021  10.967 -1.0192 -0.5218 -0.0596
   24SAPC   C14 3117   1.732   6.269  11.004  0.7927  0.8827  0.2146
   24SAPC  H14A 3118   1.634   6.256  10.959  1.5035  0.5371 -1.2561
   24SAPC  H14B 3119   1.726   6.362  11.059 -1.9393 -0.8815  3.0174
   24SAPC  H14C 3120   1.816   6.267  10.935  3.3962 -4.6933  3.2307
   24SAPC   C15 3121   1.821   6.229  11.231 -0.7108 -0.2674 -0.0888
   24SAPC  H15A 3122   1.904   6.297  11.218 -0.8777 -0.0099  0.1959
   24SAPC  H15B 3123   1.740   6.275  11.285 -0.9248 -1.5092  0.6629
   24SAPC  H15C 3124   1.873   6.155  11.290  0.8425  0.6731 -0.2544
   24SAPC   C11 3125   1.596   5.985  11.029 -0.5256  0.4983  0.2051
   24SAPC  H11A 3126   1.556   5.902  11.092 -0.6327 -0.7458 -1.4857
   24SAPC  H11B 3127   1.682   5.937  10.978  0.9062  0.4322  2.5865
   24SAPC     P 3128   1.350   6.057  10.997 -0.5239  0.0571  0.2365
   24SAPC   O13 3129   1.284   5.935  11.033 -0.2513 -0.3527  0.3067
   24SAPC   O14 3130   1.342   6.170  11.092 -0.0220  0.1904 -0.4552
   24SAPC   O12 3131   1.500   6.043  10.960 -0.3652  0.0940  0.5145
   24SAPC   O11 3132   1.274   6.093  10.862  0.6041  0.1092 -0.5952
   24SAPC    C1 3133   1.326   6.177  10.761 -0.0071  0.1988  0.1876
   24SAPC    HA 3134   1.244   6.244  10.727 -0.1528 -0.2643 -0.3945
   24SAPC    HB 3135   1.399   6.250  10.801  0.9075 -1.3541  1.4385
   24SAPC    C2 3136   1.388   6.102  10.643 -0.4392  0.3582 -0.1370
   24SAPC    HS 3137   1.478   6.046  10.674 -2.0507 -2.1985  0.1093
   24SAPC   O21 3138   1.413   6.203  10.535 -0.0302  0.0572  0.0700
   24SAPC   C21 3139   1.532   6.258  10.555  0.9578  0.6149  0.2244
   24SAPC   O22 3140   1.608   6.237  10.649  0.0520 -0.0547  0.2348
   24SAPC   C22 3141   1.556   6.372  10.447 -0.6023  0.1596 -0.4508
   24SAPC   H2R 3142   1.460   6.395  10.396 -0.6794 -0.6690 -0.6930
   24SAPC   H2S 3143   1.596   6.448  10.517  0.5371 -0.8759  0.0342
   24SAPC    C3 3144   1.303   5.975  10.597 -0.4463 -1.0343 -0.2531
   24SAPC    HX 3145   1.216   6.017  10.542 -1.5659 -1.2762  1.2963
   24SAPC    HY 3146   1.276   5.920  10.690 -0.7170 -0.3235  0.0924
   24SAPC   O31 3147   1.374   5.881  10.509 -0.0983  0.2583  0.5151
   24SAPC   C31 3148   1.298   5.778  10.483  0.1411 -0.3876  0.1734
   24SAPC   O32 3149   1.184   5.753  10.518 -0.0248  0.2992  0.8157
   24SAPC   C32 3150   1.376   5.691  10.390 -0.7652  0.4649  0.6772
   24SAPC   H2X 3151   1.346   5.586  10.411 -0.3163 -0.2751 -2.1613
   24SAPC   H2Y 3152   1.487   5.693  10.393 -0.6186  1.0124 -2.6411
   24SAPC   C23 3153   1.656   6.320  10.346  0.4254  0.7286  0.1920
   24SAPC   H3R 3154   1.632   6.216  10.316  3.0818  0.4881 -1.2314
   24SAPC   H3S 3155   1.760   6.321  10.386  0.3975  0.5577  0.2692
   24SAPC   C24 3156   1.654   6.417  10.224 -0.0800  0.3088  0.3239
   24SAPC   H4R 3157   1.754   6.402  10.178 -0.8755 -0.2533 -1.2531
   24SAPC   H4S 3158   1.655   6.526  10.244  0.7064  0.4044 -0.2332
   24SAPC   C25 3159   1.543   6.388  10.128 -0.0607  0.8316 -0.0567
   24SAPC   H5R 3160   1.442   6.408  10.168 -0.4136  0.3700 -0.7003
   24SAPC   C26 3161   1.555   6.344  10.001  1.0393  0.2442 -1.0931
   24SAPC   H6R 3162   1.465   6.336   9.938  1.0819 -2.9902 -0.8127
   24SAPC   C27 3163   1.680   6.313   9.927  0.0845 -0.0402  0.0136
   24SAPC   H7R 3164   1.663   6.242   9.843  2.8097  1.3008 -1.7472
   24SAPC   H7S 3165   1.740   6.254  10.000  1.3193 -0.7658 -1.5466
   24SAPC   C28 3166   1.751   6.429   9.867 -0.1600  0.2368 -0.5815
   24SAPC   H8R 3167   1.813   6.474   9.946  0.5386  0.4453 -1.2469
   24SAPC   C29 3168   1.715   6.490   9.750  0.6733 -0.2264 -0.5269
   24SAPC   H9R 3169   1.750   6.593   9.734 -0.0732  0.1196  0.0858
   24SAPC  C210 3170   1.605   6.453   9.659 -0.4179  0.9787  0.4371
   24SAPC  H10R 3171   1.585   6.542   9.597  0.8212  0.8431 -0.1743
   24SAPC  H10S 3172   1.507   6.428   9.706 -0.2281  0.9349  0.8086
   24SAPC  C211 3173   1.641   6.347   9.558  0.3836  0.1988 -0.1827
   24SAPC  H11R 3174   1.736   6.361   9.504  0.6609 -1.7544 -0.2448
   24SAPC  C212 3175   1.579   6.237   9.513 -0.8357  0.0219  0.0133
   24SAPC  H12R 3176   1.624   6.171   9.437 -1.6074  0.1258 -0.5465
   24SAPC  C213 3177   1.461   6.175   9.567 -0.1608 -0.3640 -0.1001
   24SAPC  H13R 3178   1.484   6.143   9.671 -0.7055  0.6557  0.3372
   24SAPC  H13S 3179   1.443   6.086   9.503  1.4263 -0.4992 -0.3877
   24SAPC  C214 3180   1.330   6.244   9.556 -0.3096 -0.5336  0.6900
   24SAPC  H14R 3181   1.336   6.335   9.494  2.4610  0.2929  2.0681
   24SAPC  C215 3182   1.219   6.214   9.621 -0.5185 -0.2901  0.2846
   24SAPC  H15R 3183   1.130   6.273   9.595 -1.2185 -1.3605  0.1893
   24SAPC  C216 3184   1.198   6.110   9.730  0.2875 -0.1293  0.2507
   24SAPC  H16R 3185   1.287   6.045   9.727  0.9662  0.7560  0.7498
   24SAPC  H16S 3186   1.111   6.047   9.701 -0.5104  1.3472 -0.6373
   24SAPC  C217 3187   1.201   6.179   9.864 -0.0677 -0.2833  0.7065
   24SAPC  H17R 3188   1.094   6.210   9.867 -0.3432 -1.0428 -0.7781
   24SAPC  H17S 3189   1.272   6.264   9.861  0.3912 -0.6671  0.6687
   24SAPC  C218 3190   1.232   6.094   9.977  0.5273  0.2059  0.4375
   24SAPC  H18R 3191   1.338   6.059   9.971  0.2536 -0.4462 -0.5231
   24SAPC  H18S 3192   1.167   6.004   9.974  1.1948 -0.2706  0.0723
   24SAPC  C219 3193   1.231   6.168  10.114 -0.7456 -0.3209  0.2148
   24SAPC  H19R 3194   1.131   6.214  10.133  0.0339  1.8815 -0.8110
   24SAPC  H19S 3195   1.292   6.261  10.108 -0.4625 -0.4189  1.5200
   24SAPC  C220 3196   1.258   6.084  10.245 -0.0881 -0.1833 -0.1710
   24SAPC  H20R 3197   1.214   5.982  10.240  2.8514 -1.5044 -0.1481
   24SAPC  H20S 3198   1.223   6.135  10.337  1.0491 -0.1305  0.2454
   24SAPC  H20T 3199   1.368   6.066  10.245 -0.1588 -0.7121  1.2886
   24SAPC   C33 3200   1.337   5.717  10.240  0.4020  0.9771 -0.0736
   24SAPC   H3X 3201   1.394   5.806  10.207  0.5804  0.9461  0.1506
   24SAPC   H3Y 3202   1.228   5.738  10.238  0.5895  2.1692  1.3527
   24SAPC   C34 3203   1.361   5.587  10.156 -0.2930 -0.2055 -0.0200
   24SAPC   H4X 3204   1.291   5.511  10.198 -0.6329 -0.6148 -1.3128
   24SAPC   H4Y 3205   1.469   5.566  10.169  0.2900  2.9559  0.5439
   24SAPC   C35 3206   1.329   5.593  10.003 -0.1736 -0.1761 -0.2397
   24SAPC   H5X 3207   1.236   5.652   9.993 -0.6239 -0.9084 -0.3708
   24SAPC   H5Y 3208   1.311   5.490   9.964 -0.6266 -0.3575  0.4388
   24SAPC   C36 3209   1.435   5.658   9.911 -0.3539 -0.2520  0.0743
   24SAPC   H6X 3210   1.526   5.602   9.939 -0.8172 -1.5877 -1.0335
   24SAPC   H6Y 3211   1.444   5.768   9.923  0.0825 -0.2981  0.1774
   24SAPC   C37 3212   1.396   5.651   9.765  0.2278  0.0271  0.4872
   24SAPC   H7X 3213   1.291   5.682   9.744 -0.1873 -0.7460  1.3730
   24SAPC   H7Y 3214   1.401   5.547   9.727  2.7573  0.7174 -1.1689
   24SAPC   C38 3215   1.494   5.734   9.681 -0.4821 -0.0281  0.3647
   24SAPC   H8X 3216   1.582   5.669   9.704  2.0653  2.3637 -2.2216
   24SAPC   H8Y 3217   1.502   5.828   9.739  0.2201  0.5040 -0.5766
   24SAPC   C39 3218   1.447   5.750   9.533 -0.4036 -0.0562  0.7624
   24SAPC   H9X 3219   1.360   5.819   9.530 -1.1279 -0.8295  2.6137
   24SAPC   H9Y 3220   1.419   5.650   9.493  0.7624 -0.4909  1.0169
   24SAPC  C310 3221   1.559   5.800   9.438  0.5610  0.0225 -0.5532
   24SAPC  H10X 3222   1.652   5.751   9.475  1.2735  1.5699 -0.2582
   24SAPC  H10Y 3223   1.576   5.910   9.438 -0.8394  0.2556 -1.6000
   24SAPC  C311 3224   1.530   5.761   9.294 -0.0063 -0.5744  0.1662
   24SAPC  H11X 3225   1.453   5.831   9.256 -0.2602  0.1066  1.8854
   24SAPC  H11Y 3226   1.497   5.656   9.280 -1.4061 -0.1233 -0.0058
   24SAPC  C312 3227   1.658   5.772   9.202 -0.2667 -0.6876 -0.2741
   24SAPC  H12X 3228   1.746   5.737   9.260  0.9743 -1.3353 -2.4636
   24SAPC  H12Y 3229   1.692   5.876   9.184  1.5322 -1.1777  0.1680
   24SAPC  C313 3230   1.641   5.699   9.068 -1.0407 -0.0497  0.2461
   24SAPC  H13X 3231   1.736   5.722   9.016 -1.6866 -1.2796 -1.5485
   24SAPC  H13Y 3232   1.557   5.759   9.026  0.8593  1.9864 -0.7452
   24SAPC  C314 3233   1.617   5.544   9.056 -0.3977  0.9508 -0.1065
   24SAPC  H14X 3234   1.613   5.506   8.952  3.1063 -1.5292  0.5917
   24SAPC  H14Y 3235   1.519   5.516   9.101 -1.0722 -0.2967 -2.2803
   24SAPC  C315 3236   1.720   5.461   9.130  0.3354  0.3424 -0.8859
   24SAPC  H15X 3237   1.745   5.499   9.231  0.4024  0.7131 -1.0412
   24SAPC  H15Y 3238   1.815   5.467   9.073 -0.2058  1.1025 -1.7354
   24SAPC  C316 3239   1.697   5.308   9.138  0.3336  0.6292 -0.0390
   24SAPC  H16X 3240   1.598   5.295   9.187 -0.4961  0.4219 -1.7302
   24SAPC  H16Y 3241   1.782   5.262   9.192  0.1837  0.3079 -0.0748
   24SAPC  C317 3242   1.703   5.242   8.995 -0.4397 -0.2563 -0.2685
   24SAPC  H17X 3243   1.799   5.283   8.958  0.1995  0.7310  2.3449
   24SAPC  H17Y 3244   1.622   5.281   8.929  2.2071  2.2234 -2.2187
   24SAPC  C318 3245   1.707   5.099   9.015 -0.0395  0.6848  0.3420
   24SAPC  H18X 3246   1.812   5.063   9.011 -0.5566 -1.1726  2.1699
   24SAPC  H18Y 3247   1.648   5.053   8.933 -0.7446  3.4601 -0.7637
   24SAPC  H18Z 3248   1.653   5.058   9.103 -1.6420  1.2268 -0.3659
   25SAPC     N 3249   4.479   3.570   5.800  0.5271  0.1808 -0.2033
   25SAPC   C12 3250   4.501   3.474   5.917 -0.4172 -0.1047  0.1443
   25SAPC  H12A 3251   4.588   3.412   5.898 -2.8562 -3.3801 -0.7007
   25SAPC  H12B 3252   4.423   3.400   5.910  1.3030 -1.8750 -0.6080
   25SAPC   C13 3253   4.461   3.493   5.677 -0.7995 -0.5845 -0.8650
   25SAPC  H13A 3254   4.557   3.447   5.658  1.1545  2.0076  2.0247
   25SAPC  H13B 3255   4.388   3.415   5.691 -0.9915 -0.1781  0.4751
   25SAPC  H13C 3256   4.428   3.553   5.593 -0.0339  2.3466  0.8398
   25SAPC   C14 3257   4.336   3.629   5.810 -0.1793 -1.2707  0.4207
   25SAPC  H14A 3258   4.326   3.650   5.915  0.4161  1.7105 -0.0798
   25SAPC  H14B 3259   4.321   3.719   5.752 -0.5486 -2.2417 -1.0389
   25SAPC  H14C 3260   4.260   3.554   5.790 -1.6392  0.4938 -0.8272
   25SAPC   C15 3261   4.584   3.676   5.789 -0.5443 -0.5556 -0.3372
   25SAPC  H15A 3262   4.572   3.741   5.704  1.7480  1.8900  1.1245
   25SAPC  H15B 3263   4.586   3.735   5.880  0.2472  0.0174 -0.7246
   25SAPC  H15C 3264   4.686   3.638   5.790 -1.3683 -2.9262  1.6464
   25SAPC   C11 3265   4.490   3.538   6.064  0.5332 -0.3397 -0.2977
   25SAPC  H11A 3266   4.545   3.634   6.069 -0.0137 -0.0076 -0.6166
   25SAPC  H11B 3267   4.542   3.476   6.141 -0.4268 -0.4869  0.2430
   25SAPC     P 3268   4.271   3.446   6.174 -0.1692 -0.7200 -0.2446
   25SAPC   O13 3269   4.129   3.466   6.147  0.2316  0.0356  0.5349
   25SAPC   O14 3270   4.324   3.313   6.132 -0.4354 -0.1130 -0.3189
   25SAPC   O12 3271   4.355   3.564   6.105 -0.0055 -0.4690 -0.6242
   25SAPC   O11 3272   4.290   3.476   6.322  0.1353 -0.3318  0.0131
   25SAPC    C1 3273   4.331   3.602   6.380  0.3461  0.6780 -0.2184
   25SAPC    HA 3274   4.442   3.598   6.385  0.3522  1.3468  0.2959
   25SAPC    HB 3275   4.297   3.689   6.319  0.7601  0.1825 -1.1554
   25SAPC    C2 3276   4.279   3.607   6.536 -1.0015  0.9358  0.4727
   25SAPC    HS 3277   4.349   3.669   6.596 -0.3698  1.2148 -0.5424
   25SAPC   O21 3278   4.272   3.478   6.598 -0.5090  0.1797 -0.6163
   25SAPC   C21 3279   4.383   3.414   6.625 -0.3077 -0.3449 -0.3875
   25SAPC   O22 3280   4.497   3.459   6.612 -0.3158  0.2444  0.0353
   25SAPC   C22 3281   4.360   3.270   6.693  0.4322 -0.3152 -0.9108
   25SAPC   H2R 3282   4.258   3.231   6.671 -0.1126  1.1448 -1.0641
   25SAPC   H2S 3283   4.433   3.203   6.643  0.9255 -0.0385 -0.5642
   25SAPC    C3 3284   4.137   3.658   6.532  0.0154  0.5640 -0.0120
   25SAPC    HX 3285   4.084   3.572   6.488 -1.6743  0.0807  2.8294
   25SAPC    HY 3286   4.112   3.744   6.466  1.5787  0.4651 -0.7591
   25SAPC   O31 3287   4.089   3.675   6.664  0.2963 -0.3221 -0.0236
   25SAPC   C31 3288   4.074   3.799   6.712  0.0401  0.5872  0.3614
   25SAPC   O32 3289   4.089   3.902   6.650 -0.2085  0.6666 -0.7212
   25SAPC   C32 3290   4.029   3.790   6.859  0.2362  0.4815 -0.2763
   25SAPC   H2X 3291   4.109   3.742   6.919  0.1907 -2.7930 -2.7031
   25SAPC   H2Y 3292   3.937   3.727   6.864  0.7616 -0.1193  3.1184
   25SAPC   C23 3293   4.380   3.277   6.841  0.0317  0.4867 -0.4208
   25SAPC   H3R 3294   4.470   3.337   6.868 -2.1078  2.5917  2.2522
   25SAPC   H3S 3295   4.395   3.180   6.892 -0.9057  0.5645 -0.0005
   25SAPC   C24 3296   4.262   3.342   6.917 -0.0971  1.0031 -0.1166
   25SAPC   H4R 3297   4.180   3.304   6.852  1.9673 -1.6185 -1.2964
   25SAPC   H4S 3298   4.255   3.451   6.899  0.6235  0.8864 -1.1092
   25SAPC   C25 3299   4.237   3.301   7.061 -0.1397  0.3210 -0.2405
   25SAPC   H5R 3300   4.309   3.351   7.128  1.5823 -2.2540 -0.0848
   25SAPC   C26 3301   4.132   3.234   7.108  0.3296 -0.0738  0.0578
   25SAPC   H6R 3302   4.118   3.207   7.214 -0.2046 -0.4861 -0.1190
   25SAPC   C27 3303   4.020   3.183   7.024 -0.4625 -0.5464 -0.3381
   25SAPC   H7R 3304   3.991   3.081   7.057  1.4823 -1.0210 -0.0102
   25SAPC   H7S 3305   4.049   3.178   6.917  0.2239  0.1443 -0.1886
   25SAPC   C28 3306   3.891   3.266   7.043  0.5565  0.9332  0.4239
   25SAPC   H8R 3307   3.902   3.372   7.016 -0.2879  0.4034 -2.1872
   25SAPC   C29 3308   3.776   3.225   7.100 -0.2114  0.7152  0.7617
   25SAPC   H9R 3309   3.695   3.298   7.110 -0.3975  0.6105  0.0349
   25SAPC  C210 3310   3.752   3.079   7.146 -0.6585 -0.3664 -0.5264
   25SAPC  H10R 3311   3.784   3.008   7.067 -0.8028 -0.0528 -0.8679
   25SAPC  H10S 3312   3.642   3.071   7.162 -0.8184 -0.2399 -1.5726
   25SAPC  C211 3313   3.820   3.043   7.279 -0.0407  1.0413  0.2612
   25SAPC  H11R 3314   3.926   3.015   7.285 -0.0638  1.1234  1.1850
   25SAPC  C212 3315   3.749   3.030   7.396  0.4780  0.3187  0.9255
   25SAPC  H12R 3316   3.802   3.013   7.491 -3.0782 -0.7189  2.8028
   25SAPC  C213 3317   3.597   3.033   7.414  0.2071 -0.6151 -0.4883
   25SAPC  H13R 3318   3.558   2.943   7.466 -1.1368  1.2647  1.8262
   25SAPC  H13S 3319   3.540   3.014   7.320  0.6151 -0.4352 -0.7711
   25SAPC  C214 3320   3.564   3.148   7.509  0.3085 -0.2630  0.8343
   25SAPC  H14R 3321   3.577   3.126   7.616  2.7846  0.1667  0.6558
   25SAPC  C215 3322   3.510   3.264   7.486 -0.0004  0.0362  0.3298
   25SAPC  H15R 3323   3.496   3.325   7.576  1.8966 -0.9294  1.3089
   25SAPC  C216 3324   3.479   3.312   7.349 -0.6347  0.4872  0.1383
   25SAPC  H16R 3325   3.555   3.291   7.271 -1.3455 -1.6063 -0.0141
   25SAPC  H16S 3326   3.473   3.423   7.349 -2.2497  0.4105  1.8809
   25SAPC  C217 3327   3.338   3.270   7.301 -0.1409 -0.6977 -0.4803
   25SAPC  H17R 3328   3.271   3.287   7.388  0.3542  0.2851 -0.2753
   25SAPC  H17S 3329   3.348   3.160   7.293  2.8032 -0.6720  2.0195
   25SAPC  C218 3330   3.276   3.330   7.173 -0.0654  0.2349 -0.7075
   25SAPC  H18R 3331   3.282   3.441   7.183 -1.7814  0.2132  0.8962
   25SAPC  H18S 3332   3.168   3.305   7.182  0.2423 -0.4611  1.3753
   25SAPC  C219 3333   3.330   3.277   7.041  0.0033  0.1075 -0.0386
   25SAPC  H19R 3334   3.324   3.166   7.047 -0.1204  0.1319  0.3156
   25SAPC  H19S 3335   3.437   3.304   7.031 -0.0955  0.2140 -0.8641
   25SAPC  C220 3336   3.236   3.311   6.927 -0.2435 -0.2388 -0.1353
   25SAPC  H20R 3337   3.132   3.300   6.962  0.1779 -0.8679  0.9440
   25SAPC  H20S 3338   3.244   3.240   6.842 -1.1641 -0.0913 -0.3467
   25SAPC  H20T 3339   3.266   3.414   6.896  0.9886 -0.2990  0.7774
   25SAPC   C33 3340   3.997   3.928   6.920  0.5045 -0.5550  0.7611
   25SAPC   H3X 3341   3.935   3.982   6.846  1.0954 -0.1806  0.5362
   25SAPC   H3Y 3342   4.087   3.988   6.946  1.3802 -1.0180 -1.0934
   25SAPC   C34 3343   3.920   3.909   7.047  0.8817  0.7554 -0.0596
   25SAPC   H4X 3344   3.966   3.838   7.119 -0.4576  1.1180  1.1771
   25SAPC   H4Y 3345   3.827   3.855   7.017  0.5703  1.2038  0.1048
   25SAPC   C35 3346   3.875   4.043   7.108  0.1730 -0.1308 -0.2438
   25SAPC   H5X 3347   3.837   4.106   7.025  0.2271 -1.6359 -1.4217
   25SAPC   H5Y 3348   3.970   4.085   7.148  1.1560 -2.2932 -0.2559
   25SAPC   C36 3349   3.777   4.033   7.230  0.3829  0.3684 -0.4315
   25SAPC   H6X 3350   3.694   3.966   7.198 -0.8746  1.5468  0.2584
   25SAPC   H6Y 3351   3.726   4.129   7.253 -2.9265 -1.4519  0.2822
   25SAPC   C37 3352   3.849   4.008   7.364 -0.3319  0.0711  0.2500
   25SAPC   H7X 3353   3.923   4.087   7.391  1.8583 -1.6975 -0.4064
   25SAPC   H7Y 3354   3.899   3.909   7.354 -1.5567 -0.5621  0.2769
   25SAPC   C38 3355   3.749   4.000   7.475 -0.3852 -0.0621  0.1457
   25SAPC   H8X 3356   3.673   3.927   7.441  0.6493  0.0981 -2.7004
   25SAPC   H8Y 3357   3.709   4.103   7.491 -0.5049  0.2920 -2.2684
   25SAPC   C39 3358   3.811   3.950   7.611  0.1031  1.0025 -0.4029
   25SAPC   H9X 3359   3.901   4.014   7.623  0.8420 -0.1399  0.3814
   25SAPC   H9Y 3360   3.849   3.846   7.604 -1.9637  0.0731  1.4261
   25SAPC  C310 3361   3.725   3.964   7.736 -0.0040  0.0628  0.4153
   25SAPC  H10X 3362   3.628   3.913   7.719  0.7565 -1.1583 -0.3146
   25SAPC  H10Y 3363   3.700   4.071   7.751  0.3127  0.3270 -0.8722
   25SAPC  C311 3364   3.793   3.912   7.862  0.0112 -0.0016  0.5069
   25SAPC  H11X 3365   3.809   3.802   7.855 -0.7290  0.0205 -2.2271
   25SAPC  H11Y 3366   3.716   3.933   7.939  0.3909  0.0175  0.8832
   25SAPC  C312 3367   3.919   3.983   7.909  0.4167 -0.3525 -0.9143
   25SAPC  H12X 3368   3.916   4.092   7.890 -0.0535 -0.3007 -0.5503
   25SAPC  H12Y 3369   4.008   3.950   7.851  2.1074 -0.7653  1.8544
   25SAPC  C313 3370   3.939   3.956   8.063  0.1345 -0.8452 -1.0543
   25SAPC  H13X 3371   3.914   3.850   8.085 -0.0814 -0.4171  0.7712
   25SAPC  H13Y 3372   3.862   4.016   8.117  0.0369 -2.1164  0.2325
   25SAPC  C314 3373   4.079   4.003   8.105  0.5149 -0.3552 -0.4990
   25SAPC  H14X 3374   4.088   4.113   8.092 -1.3231 -0.1433 -0.1879
   25SAPC  H14Y 3375   4.154   3.960   8.037 -0.0968 -0.0061 -1.4006
   25SAPC  C315 3376   4.105   3.975   8.257  0.1004  0.0030  0.5571
   25SAPC  H15X 3377   4.102   3.864   8.267 -0.1861 -0.0788 -0.4061
   25SAPC  H15Y 3378   4.027   4.013   8.326  0.1832  0.3769  0.4483
   25SAPC  C316 3379   4.247   4.006   8.293 -0.6706 -0.1938 -0.6870
   25SAPC  H16X 3380   4.267   4.114   8.272 -2.3014  0.0809 -0.9303
   25SAPC  H16Y 3381   4.321   3.943   8.240  0.4568 -0.5078  1.2266
   25SAPC  C317 3382   4.273   3.987   8.441 -0.4526 -0.0744  0.3078
   25SAPC  H17X 3383   4.239   3.887   8.472 -1.1493  0.0840  0.0801
   25SAPC  H17Y 3384   4.232   4.058   8.516 -0.5312 -3.2737  3.3879
   25SAPC  C318 3385   4.419   4.001   8.480 -0.1598  0.1545  0.1489
   25SAPC  H18X 3386   4.465   4.093   8.439 -0.3866  0.5047  0.6807
   25SAPC  H18Y 3387   4.481   3.915   8.448  0.4060 -0.1365  1.9461
   25SAPC  H18Z 3388   4.434   4.014   8.589 -0.7641  1.3146  0.0985
   26SAPC     N 3389   3.139   5.435   6.092  0.5268  0.4169  0.0862
   26SAPC   C12 3390   3.208   5.520   6.202 -0.5223 -0.4033  0.0040
   26SAPC  H12A 3391   3.299   5.561   6.161 -0.8899  0.7965  0.3781
   26SAPC  H12B 3392   3.233   5.452   6.282 -1.8730  0.3988  1.1430
   26SAPC   C13 3393   3.236   5.332   6.048 -0.6510  0.1113 -0.4357
   26SAPC  H13A 3394   3.323   5.387   6.014 -1.8193  1.8441 -0.6753
   26SAPC  H13B 3395   3.268   5.269   6.129 -0.0112  0.7506 -0.1808
   26SAPC  H13C 3396   3.192   5.287   5.960 -0.7114  0.2872 -0.4969
   26SAPC   C14 3397   3.020   5.356   6.136  0.0226  0.4087  0.2063
   26SAPC  H14A 3398   2.933   5.419   6.150 -0.6187 -0.4138 -0.0729
   26SAPC  H14B 3399   2.994   5.289   6.056 -1.1678  2.6171 -1.3326
   26SAPC  H14C 3400   3.056   5.302   6.222  0.1870  0.6358  0.2821
   26SAPC   C15 3401   3.107   5.530   5.982  0.3590  0.4624 -0.2211
   26SAPC  H15A 3402   3.201   5.555   5.934  0.6473  0.1004  0.1504
   26SAPC  H15B 3403   3.049   5.487   5.902  1.2520 -0.1282 -0.5577
   26SAPC  H15C 3404   3.065   5.625   6.012 -1.8105  0.2615 -2.4514
   26SAPC   C11 3405   3.124   5.635   6.270  0.3282  0.4129 -0.1186
   26SAPC  H11A 3406   3.170   5.668   6.366  1.3573 -0.9529 -0.1247
   26SAPC  H11B 3407   3.028   5.586   6.298  0.7725  0.1045  0.9018
   26SAPC     P 3408   3.153   5.880   6.192  0.0330 -0.0560  0.4038
   26SAPC   O13 3409   3.283   5.887   6.125 -0.9105 -0.3365 -0.3642
   26SAPC   O14 3410   3.048   5.975   6.156 -0.4715 -0.1899  0.1584
   26SAPC   O12 3411   3.094   5.740   6.176  0.4131 -0.0026  0.3476
   26SAPC   O11 3412   3.166   5.895   6.352 -0.0121 -0.1527  0.2811
   26SAPC    C1 3413   3.259   5.987   6.402  0.1828  0.2306 -0.5933
   26SAPC    HA 3414   3.296   6.063   6.330  0.8474  0.5048  0.0324
   26SAPC    HB 3415   3.205   6.047   6.479 -3.7895 -2.3793 -1.1881
   26SAPC    C2 3416   3.378   5.919   6.468 -0.4215 -0.5294  0.3875
   26SAPC    HS 3417   3.429   5.844   6.404  0.6707  1.6322 -1.3223
   26SAPC   O21 3418   3.323   5.855   6.586 -0.0237  0.1834 -0.2740
   26SAPC   C21 3419   3.403   5.757   6.632  0.6779  0.0033 -0.1897
   26SAPC   O22 3420   3.494   5.712   6.569  0.0831  0.1452 -0.0978
   26SAPC   C22 3421   3.356   5.709   6.769 -1.0189  0.0069  0.3374
   26SAPC   H2R 3422   3.358   5.796   6.838 -1.1872 -0.5774  1.0871
   26SAPC   H2S 3423   3.252   5.672   6.775 -0.7290 -0.4387  3.4511
   26SAPC    C3 3424   3.502   6.006   6.503  0.0013  0.2786  0.5702
   26SAPC    HX 3425   3.534   6.053   6.407  0.0894 -0.4721  0.2332
   26SAPC    HY 3426   3.576   5.932   6.540 -1.8227 -1.6447  0.4310
   26SAPC   O31 3427   3.479   6.113   6.596 -0.5556 -0.5240 -0.0817
   26SAPC   C31 3428   3.496   6.085   6.728 -0.2047  0.4700 -0.1221
   26SAPC   O32 3429   3.536   5.981   6.777 -0.2855  0.1255  0.3886
   26SAPC   C32 3430   3.479   6.217   6.803  0.2099  0.7537  0.8403
   26SAPC   H2X 3431   3.401   6.279   6.756  0.2552 -0.7194 -1.2492
   26SAPC   H2Y 3432   3.574   6.274   6.790  0.9601 -0.0792  2.4113
   26SAPC   C23 3433   3.445   5.591   6.829  0.1231 -0.1238 -0.0251
   26SAPC   H3R 3434   3.550   5.605   6.797  0.2792 -0.9396  0.1205
   26SAPC   H3S 3435   3.420   5.497   6.776  0.7895 -2.2712  3.2685
   26SAPC   C24 3436   3.438   5.570   6.976 -0.1993  0.2023  0.7234
   26SAPC   H4R 3437   3.495   5.481   7.012  0.9043 -0.0562 -1.5466
   26SAPC   H4S 3438   3.337   5.524   6.986 -0.4518  0.6924  0.4212
   26SAPC   C25 3439   3.459   5.684   7.068 -0.2622 -1.0112  0.0411
   26SAPC   H5R 3440   3.449   5.784   7.024  0.8590 -1.4331 -1.2318
   26SAPC   C26 3441   3.530   5.686   7.183  0.2891 -0.1334  0.3133
   26SAPC   H6R 3442   3.541   5.781   7.236  3.0421  0.0565 -0.4967
   26SAPC   C27 3443   3.599   5.566   7.242  0.7037 -0.1063  0.1439
   26SAPC   H7R 3444   3.539   5.474   7.228  1.0843 -0.1519 -1.2419
   26SAPC   H7S 3445   3.600   5.579   7.352 -0.1990 -0.2527  0.1683
   26SAPC   C28 3446   3.741   5.537   7.200  0.0155 -0.0034  0.1325
   26SAPC   H8R 3447   3.765   5.565   7.096  2.4302 -0.6493  0.4832
   26SAPC   C29 3448   3.840   5.486   7.276 -0.1508 -0.2085 -0.7208
   26SAPC   H9R 3449   3.940   5.469   7.234  0.5062  1.1785  0.2176
   26SAPC  C210 3450   3.830   5.450   7.425  0.2272  0.2730  0.0708
   26SAPC  H10R 3451   3.814   5.340   7.431 -2.4038  0.5136 -1.5444
   26SAPC  H10S 3452   3.734   5.484   7.469 -0.7038 -2.4924  0.3116
   26SAPC  C211 3453   3.943   5.515   7.510  0.4955  0.6048  0.1400
   26SAPC  H11R 3454   4.033   5.535   7.449 -0.0273 -1.1185 -1.2383
   26SAPC  C212 3455   3.950   5.533   7.642 -0.7728 -0.0873  0.3427
   26SAPC  H12R 3456   4.038   5.575   7.692  1.7898 -4.4563 -0.2006
   26SAPC  C213 3457   3.835   5.506   7.734 -0.1552 -0.3906 -0.0300
   26SAPC  H13R 3458   3.745   5.553   7.689 -0.2149  1.3366  1.8510
   26SAPC  H13S 3459   3.849   5.557   7.831 -0.7473 -2.0890  0.9794
   26SAPC  C214 3460   3.808   5.361   7.761  0.2076 -0.4032  0.4102
   26SAPC  H14R 3461   3.829   5.297   7.674 -0.4375  0.3712 -0.3289
   26SAPC  C215 3462   3.734   5.308   7.863 -0.1293  0.1566 -0.4004
   26SAPC  H15R 3463   3.727   5.200   7.882  1.3598  0.6662  3.5398
   26SAPC  C216 3464   3.674   5.387   7.979 -0.3788 -0.5712  0.1455
   26SAPC  H16R 3465   3.566   5.367   7.994  0.0252 -2.1864  1.0244
   26SAPC  H16S 3466   3.684   5.493   7.948 -1.1385 -0.2767  0.8866
   26SAPC  C217 3467   3.738   5.356   8.114 -0.3260 -0.3515  0.0490
   26SAPC  H17R 3468   3.698   5.436   8.180 -1.6208 -0.5931 -0.4097
   26SAPC  H17S 3469   3.848   5.365   8.102 -0.5370 -0.6912 -2.5703
   26SAPC  C218 3470   3.697   5.212   8.170 -0.0570 -0.0444  0.1929
   26SAPC  H18R 3471   3.734   5.148   8.088  1.8293  2.7952 -1.2199
   26SAPC  H18S 3472   3.588   5.189   8.176  0.0080 -1.0726 -2.3051
   26SAPC  C219 3473   3.761   5.172   8.305 -0.0459 -0.0685 -0.5153
   26SAPC  H19R 3474   3.721   5.073   8.334  0.3434  0.5436  2.2323
   26SAPC  H19S 3475   3.742   5.246   8.385 -0.3549 -0.5393 -0.1571
   26SAPC  C220 3476   3.913   5.171   8.299 -0.4114  0.2983  1.1118
   26SAPC  H20R 3477   3.949   5.267   8.257  0.1679  0.5821  2.2442
   26SAPC  H20S 3478   3.948   5.082   8.243 -0.6072  0.6728  0.3818
   26SAPC  H20T 3479   3.965   5.158   8.396  2.0002  1.1937 -0.0041
   26SAPC   C33 3480   3.451   6.209   6.960  0.6286  1.0859 -0.4608
   26SAPC   H3X 3481   3.363   6.142   6.972  0.9151  0.8525  0.3797
   26SAPC   H3Y 3482   3.421   6.311   6.992  2.2528  1.3809  0.1898
   26SAPC   C34 3483   3.570   6.162   7.048  0.3542 -0.5913 -0.2877
   26SAPC   H4X 3484   3.644   6.245   7.050 -0.0913 -0.2058  0.1796
   26SAPC   H4Y 3485   3.624   6.073   7.008 -0.8504 -1.7605  0.6311
   26SAPC   C35 3486   3.538   6.118   7.194 -0.0617  0.5181  0.0844
   26SAPC   H5X 3487   3.477   6.026   7.202  0.6800  0.1388  1.6100
   26SAPC   H5Y 3488   3.487   6.206   7.239  0.2604  1.1987 -0.8654
   26SAPC   C36 3489   3.663   6.096   7.283 -0.0165 -0.8283  0.2007
   26SAPC   H6X 3490   3.700   6.200   7.281 -2.3335 -0.0061 -2.2648
   26SAPC   H6Y 3491   3.731   6.029   7.225 -2.1602 -2.6322 -0.3042
   26SAPC   C37 3492   3.628   6.031   7.421 -0.3827 -0.1677 -0.1102
   26SAPC   H7X 3493   3.617   5.921   7.407 -3.8124  0.0863  0.3787
   26SAPC   H7Y 3494   3.524   6.060   7.444 -0.6554 -0.5110 -0.8883
   26SAPC   C38 3495   3.728   6.062   7.541 -0.3726 -0.1521  0.3013
   26SAPC   H8X 3496   3.704   6.169   7.559  1.5413  0.3242  0.1041
   26SAPC   H8Y 3497   3.828   6.046   7.496  0.3917  0.5649  1.7262
   26SAPC   C39 3498   3.697   5.980   7.668 -0.5512 -0.6793  0.5265
   26SAPC   H9X 3499   3.679   5.878   7.630  0.9394 -0.9891  0.6210
   26SAPC   H9Y 3500   3.607   6.007   7.727 -2.4274 -1.8217 -1.7369
   26SAPC  C310 3501   3.813   5.958   7.760 -0.2729 -0.4722 -0.3882
   26SAPC  H10X 3502   3.850   6.046   7.816 -0.8065 -0.3149 -0.2762
   26SAPC  H10Y 3503   3.897   5.920   7.698  0.2832 -0.4479  0.3440
   26SAPC  C311 3504   3.777   5.850   7.861 -0.3903 -0.3570 -0.0744
   26SAPC  H11X 3505   3.767   5.756   7.802 -0.2821  0.6683 -1.7474
   26SAPC  H11Y 3506   3.676   5.872   7.901 -0.6341 -1.6738  0.0607
   26SAPC  C312 3507   3.884   5.835   7.973 -0.6750  0.0123 -0.0270
   26SAPC  H12X 3508   3.891   5.934   8.023 -0.6631  0.6256 -1.2155
   26SAPC  H12Y 3509   3.983   5.820   7.924 -1.1710  3.1947 -2.2325
   26SAPC  C313 3510   3.857   5.728   8.078  0.1018  0.7606 -0.3496
   26SAPC  H13X 3511   3.847   5.629   8.029  0.3319 -0.2856  1.6685
   26SAPC  H13Y 3512   3.759   5.749   8.125  0.3973  2.7345 -0.5853
   26SAPC  C314 3513   3.980   5.726   8.175  0.5634 -0.3643 -0.0677
   26SAPC  H14X 3514   3.997   5.829   8.214  2.3134 -0.2193 -1.1502
   26SAPC  H14Y 3515   4.072   5.692   8.122  0.9482 -1.3715  1.2421
   26SAPC  C315 3516   3.948   5.638   8.301 -0.4466  0.2742 -0.0016
   26SAPC  H15X 3517   4.045   5.614   8.351 -1.0411 -0.2260  0.9332
   26SAPC  H15Y 3518   3.901   5.546   8.262 -0.3149  1.2158 -2.4463
   26SAPC  C316 3519   3.851   5.700   8.404  0.3183  0.1411  1.0030
   26SAPC  H16X 3520   3.756   5.721   8.349  1.6420  0.8608 -1.0715
   26SAPC  H16Y 3521   3.898   5.793   8.441 -0.9500  1.2520 -0.1065
   26SAPC  C317 3522   3.828   5.603   8.523  0.5879  0.2910  0.0117
   26SAPC  H17X 3523   3.922   5.563   8.568  0.5278 -0.4894 -0.5559
   26SAPC  H17Y 3524   3.784   5.515   8.472 -2.9578  1.0748  1.5051
   26SAPC  C318 3525   3.735   5.669   8.633  1.3624 -0.3156  0.6837
   26SAPC  H18X 3526   3.725   5.591   8.711 -0.1171  0.8062  1.6656
   26SAPC  H18Y 3527   3.638   5.695   8.584  1.1718 -2.9970 -0.4198
   26SAPC  H18Z 3528   3.785   5.758   8.677 -1.6372  0.8336  1.9175
   27SAPC     N 3529   1.299   5.627   6.308 -0.0423  0.4151  0.6210
   27SAPC   C12 3530   1.345   5.686   6.440 -1.0808 -0.2605  0.1769
   27SAPC  H12A 3531   1.346   5.792   6.424  0.5294 -0.3102 -0.1352
   27SAPC  H12B 3532   1.449   5.657   6.444 -0.4889  1.8711  1.0345
   27SAPC   C13 3533   1.326   5.475   6.306  0.1477  0.0428  0.0257
   27SAPC  H13A 3534   1.314   5.445   6.203  0.4946  2.1440 -0.6562
   27SAPC  H13B 3535   1.420   5.434   6.338 -1.0126 -3.9834 -1.4491
   27SAPC  H13C 3536   1.245   5.431   6.363  0.4993 -1.5201 -0.6545
   27SAPC   C14 3537   1.158   5.651   6.272 -0.0167  0.3699  0.2136
   27SAPC  H14A 3538   1.135   5.622   6.171  1.0303  1.9768 -0.5165
   27SAPC  H14B 3539   1.099   5.600   6.346  0.3052  1.3304  1.1372
   27SAPC  H14C 3540   1.129   5.755   6.269 -1.5673 -0.0720 -0.6834
   27SAPC   C15 3541   1.384   5.679   6.195 -0.7299 -0.2253 -0.4579
   27SAPC  H15A 3542   1.354   5.781   6.178 -0.6542 -0.0233  0.5754
   27SAPC  H15B 3543   1.490   5.668   6.215 -0.6096  3.0104  0.9268
   27SAPC  H15C 3544   1.368   5.625   6.103 -0.8992  1.0094 -1.1670
   27SAPC   C11 3545   1.284   5.639   6.576  0.7260  0.1788  0.6145
   27SAPC  H11A 3546   1.176   5.663   6.571  1.0700  1.5427 -0.7060
   27SAPC  H11B 3547   1.327   5.707   6.653  1.2842  1.3074 -0.6643
   27SAPC     P 3548   1.437   5.453   6.674  0.3138  0.0290  0.0334
   27SAPC   O13 3549   1.438   5.304   6.695 -0.1979  0.0127 -0.2025
   27SAPC   O14 3550   1.555   5.513   6.613  0.0280 -0.1189  0.1212
   27SAPC   O12 3551   1.307   5.499   6.603 -0.0162  0.2962  0.4278
   27SAPC   O11 3552   1.417   5.520   6.815 -0.8113 -0.5788 -0.3383
   27SAPC    C1 3553   1.292   5.488   6.885 -1.0245 -0.0015  0.2403
   27SAPC    HA 3554   1.204   5.537   6.837 -0.8823 -0.2032 -0.2213
   27SAPC    HB 3555   1.279   5.379   6.900 -1.6612 -0.0976 -0.9804
   27SAPC    C2 3556   1.296   5.546   7.033 -0.6691 -0.4001  0.0357
   27SAPC    HS 3557   1.190   5.529   7.063 -0.4448  0.2543  1.2304
   27SAPC   O21 3558   1.340   5.682   7.050 -0.2984  0.4600  0.4148
   27SAPC   C21 3559   1.257   5.773   7.005  0.1251 -0.1569 -0.2982
   27SAPC   O22 3560   1.152   5.748   6.950 -0.4641 -0.6683  0.0523
   27SAPC   C22 3561   1.322   5.912   7.022 -0.3495  0.4898 -0.6266
   27SAPC   H2R 3562   1.263   5.977   6.954 -0.4527 -1.5035 -2.4928
   27SAPC   H2S 3563   1.320   5.956   7.124  3.7435  2.1179 -1.1523
   27SAPC    C3 3564   1.378   5.450   7.130 -0.1263 -0.2482 -0.3061
   27SAPC    HX 3565   1.479   5.430   7.089  0.2791 -1.3306  1.1812
   27SAPC    HY 3566   1.320   5.356   7.129  0.6667 -0.7331 -2.0051
   27SAPC   O31 3567   1.404   5.501   7.265 -0.0000  0.2214  0.5382
   27SAPC   C31 3568   1.301   5.516   7.341  0.0078 -0.3638 -0.0440
   27SAPC   O32 3569   1.185   5.511   7.313  0.1861 -0.0189  0.4411
   27SAPC   C32 3570   1.349   5.557   7.479  0.7471  0.1500 -0.0892
   27SAPC   H2X 3571   1.275   5.626   7.523  1.4049  0.4836  0.5027
   27SAPC   H2Y 3572   1.442   5.619   7.483 -1.6960  3.8509  2.4287
   27SAPC   C23 3573   1.476   5.918   6.982 -0.3943 -0.3535  0.0269
   27SAPC   H3R 3574   1.513   6.011   6.935 -1.5188  0.1818  0.1686
   27SAPC   H3S 3575   1.498   5.839   6.908  4.7180  1.2261 -0.3209
   27SAPC   C24 3576   1.568   5.895   7.103  0.2747 -0.2557  0.3087
   27SAPC   H4R 3577   1.670   5.870   7.067  0.0018  0.1245 -0.7645
   27SAPC   H4S 3578   1.527   5.805   7.154 -0.0787  0.0273  0.5242
   27SAPC   C25 3579   1.583   6.012   7.196  0.1791 -0.3731 -0.8901
   27SAPC   H5R 3580   1.621   6.102   7.146 -1.2247  0.6487 -0.1491
   27SAPC   C26 3581   1.581   5.998   7.329 -0.1087  0.0712 -0.2267
   27SAPC   H6R 3582   1.602   6.083   7.395  3.3269 -1.1113  0.3160
   27SAPC   C27 3583   1.555   5.870   7.410  0.0316  0.4372  0.5038
   27SAPC   H7R 3584   1.611   5.790   7.357 -1.5781 -0.6701  0.4517
   27SAPC   H7S 3585   1.445   5.855   7.408  0.1823 -0.7401  0.4995
   27SAPC   C28 3586   1.607   5.869   7.556 -0.0685  0.7647 -0.3988
   27SAPC   H8R 3587   1.712   5.836   7.562 -0.2071  0.8519  3.4341
   27SAPC   C29 3588   1.544   5.913   7.670  0.1958 -0.0985 -0.0953
   27SAPC   H9R 3589   1.596   5.918   7.767 -1.0753 -2.3157  0.7182
   27SAPC  C210 3590   1.407   5.978   7.680 -0.1197  0.0903 -0.7377
   27SAPC  H10R 3591   1.337   5.919   7.742 -0.9532  1.8562  0.0527
   27SAPC  H10S 3592   1.355   5.977   7.582  0.3840  1.1783 -1.0311
   27SAPC  C211 3593   1.406   6.118   7.724 -0.3437 -0.5280  0.0940
   27SAPC  H11R 3594   1.399   6.186   7.638  0.1072 -1.8591 -1.0188
   27SAPC  C212 3595   1.424   6.158   7.851  1.0883  0.5436  0.0041
   27SAPC  H12R 3596   1.417   6.263   7.883  1.4333  0.0897  1.6302
   27SAPC  C213 3597   1.438   6.080   7.985  0.3103 -0.6300 -0.2329
   27SAPC  H13R 3598   1.542   6.075   8.026 -0.0660  0.0175  0.8328
   27SAPC  H13S 3599   1.412   5.974   7.965  1.0201 -0.7121 -0.7389
   27SAPC  C214 3600   1.329   6.123   8.083  0.1368 -0.2558  0.2879
   27SAPC  H14R 3601   1.233   6.162   8.045  0.7709 -0.3926 -1.5039
   27SAPC  C215 3602   1.353   6.115   8.214  0.6170  0.4738 -0.3292
   27SAPC  H15R 3603   1.282   6.159   8.285 -0.0308 -0.1125 -0.6050
   27SAPC  C216 3604   1.478   6.049   8.270  0.1435  0.4618  0.6324
   27SAPC  H16R 3605   1.566   6.095   8.220 -0.3555  1.3928  0.6263
   27SAPC  H16S 3606   1.484   5.940   8.247 -1.3913  0.6270 -0.5726
   27SAPC  C217 3607   1.495   6.064   8.419  0.0286 -0.0948  0.2673
   27SAPC  H17R 3608   1.400   6.028   8.464 -1.2787  0.2410 -2.1245
   27SAPC  H17S 3609   1.507   6.173   8.435 -2.8918  0.6545 -2.0948
   27SAPC  C218 3610   1.615   5.990   8.478  0.4363  0.1695 -0.0006
   27SAPC  H18R 3611   1.701   6.009   8.410  0.1957  2.2246  0.2142
   27SAPC  H18S 3612   1.587   5.884   8.466  1.9752 -0.4078  1.3118
   27SAPC  C219 3613   1.649   6.029   8.627  0.3127 -0.1411 -0.3976
   27SAPC  H19R 3614   1.548   6.047   8.670  0.6058 -0.7949  0.5568
   27SAPC  H19S 3615   1.704   6.126   8.626  1.6743 -0.8930 -2.3086
   27SAPC  C220 3616   1.719   5.925   8.708 -0.1310  0.0899  0.4695
   27SAPC  H20R 3617   1.655   5.835   8.714 -0.7050  0.4810  0.2937
   27SAPC  H20S 3618   1.732   5.966   8.810 -2.0701  0.9323  0.4113
   27SAPC  H20T 3619   1.820   5.908   8.665 -0.1839  2.4826 -0.7088
   27SAPC   C33 3620   1.374   5.431   7.568  0.4152 -0.5553  0.6542
   27SAPC   H3X 3621   1.447   5.368   7.514 -0.1183  0.5711 -1.4335
   27SAPC   H3Y 3622   1.283   5.367   7.568  0.5409 -0.7351 -0.4129
   27SAPC   C34 3623   1.426   5.476   7.710  0.2091  0.8480  0.2984
   27SAPC   H4X 3624   1.522   5.532   7.705  1.3916 -1.2121 -1.2224
   27SAPC   H4Y 3625   1.445   5.386   7.773 -1.2135  0.5001  0.2455
   27SAPC   C35 3626   1.326   5.565   7.775  0.6241  0.3668  0.3952
   27SAPC   H5X 3627   1.228   5.512   7.772  0.8971 -0.1825  1.0285
   27SAPC   H5Y 3628   1.324   5.663   7.723 -0.4945 -0.2136 -0.6898
   27SAPC   C36 3629   1.355   5.592   7.924 -0.8031  1.2073 -0.8914
   27SAPC   H6X 3630   1.461   5.621   7.937 -0.3993 -0.7138  0.2913
   27SAPC   H6Y 3631   1.339   5.501   7.984 -2.1106 -0.6749 -3.9388
   27SAPC   C37 3632   1.275   5.700   7.977 -0.6547 -0.9872 -0.3491
   27SAPC   H7X 3633   1.164   5.691   7.967 -0.9393  1.2572  0.5865
   27SAPC   H7Y 3634   1.317   5.794   7.935  0.0677 -0.7667  0.8429
   27SAPC   C38 3635   1.303   5.710   8.125 -0.5189 -0.2163 -0.1108
   27SAPC   H8X 3636   1.296   5.812   8.168  1.9330  0.1237 -0.4783
   27SAPC   H8Y 3637   1.407   5.676   8.139 -0.2633  0.5871 -0.0260
   27SAPC   C39 3638   1.214   5.616   8.215 -0.3052  0.0498 -0.0005
   27SAPC   H9X 3639   1.208   5.527   8.150  4.7514 -1.1279  0.9307
   27SAPC   H9Y 3640   1.121   5.667   8.249  0.6348  0.4290  2.0943
   27SAPC  C310 3641   1.275   5.562   8.344 -0.5381 -0.4077 -0.0093
   27SAPC  H10X 3642   1.378   5.529   8.318  0.0416  0.7516  0.7426
   27SAPC  H10Y 3643   1.222   5.467   8.363  0.2404 -1.1268 -1.3300
   27SAPC  C311 3644   1.268   5.654   8.466  0.2901  0.5799  0.3400
   27SAPC  H11X 3645   1.159   5.667   8.482  0.3911  0.9117  0.7983
   27SAPC  H11Y 3646   1.297   5.755   8.430 -1.1487  1.6523  2.1168
   27SAPC  C312 3647   1.336   5.608   8.599 -0.5210  0.6566 -0.9506
   27SAPC  H12X 3648   1.349   5.697   8.663 -1.6094  1.4029 -1.7376
   27SAPC  H12Y 3649   1.440   5.578   8.575 -0.4114  1.0701 -0.9922
   27SAPC  C313 3650   1.273   5.491   8.669 -0.4281  0.7654  0.9047
   27SAPC  H13X 3651   1.185   5.454   8.612 -0.1355 -0.8032  1.4434
   27SAPC  H13Y 3652   1.232   5.522   8.767 -0.1400  0.6881  1.0492
   27SAPC  C314 3653   1.368   5.370   8.675  0.4146  0.7208 -0.0270
   27SAPC  H14X 3654   1.436   5.399   8.759 -1.8197  2.8317  1.1033
   27SAPC  H14Y 3655   1.416   5.367   8.575 -0.9004  1.9709 -0.7142
   27SAPC  C315 3656   1.286   5.238   8.706  0.5803 -0.2845 -0.6572
   27SAPC  H15X 3657   1.346   5.147   8.683  1.0564 -0.0216 -0.4556
   27SAPC  H15Y 3658   1.210   5.246   8.626 -0.0989  0.2881  0.0414
   27SAPC  C316 3659   1.225   5.233   8.848 -0.4088 -0.4386  0.3887
   27SAPC  H16X 3660   1.146   5.311   8.844  2.1720  2.2381 -0.1466
   27SAPC  H16Y 3661   1.299   5.240   8.931 -1.6353 -0.8250  1.5400
   27SAPC  C317 3662   1.147   5.098   8.876  0.2439  0.0462  0.8075
   27SAPC  H17X 3663   1.064   5.074   8.807 -1.4870 -3.4315  3.9415
   27SAPC  H17Y 3664   1.106   5.103   8.979  1.4999 -3.8901  1.5707
   27SAPC  C318 3665   1.234   4.977   8.864  0.3358 -0.3417 -0.1984
   27SAPC  H18X 3666   1.332   4.984   8.916  0.9753 -0.6457 -1.3338
   27SAPC  H18Y 3667   1.248   4.961   8.755  0.7114 -0.6328 -0.1103
   27SAPC  H18Z 3668   1.188   4.882   8.898  0.5642 -0.8819 -1.3671
   28SAPC     N 3669   0.277   3.282   6.575  0.2575 -0.2614 -0.2488
   28SAPC   C12 3670   0.179   3.212   6.486  0.0399 -1.0698 -0.3911
   28SAPC  H12A 3671   0.116   3.285   6.437  1.1438 -0.9893 -1.7114
   28SAPC  H12B 3672   0.122   3.148   6.551 -0.9263 -1.1173 -1.2778
   28SAPC   C13 3673   0.218   3.380   6.671 -0.0500 -0.0378  0.1413
   28SAPC  H13A 3674   0.194   3.470   6.616  0.9342  1.3379  1.9034
   28SAPC  H13B 3675   0.130   3.346   6.724 -2.8723  2.4496 -2.7285
   28SAPC  H13C 3676   0.283   3.413   6.750  0.7871  2.3885 -1.4859
   28SAPC   C14 3677   0.346   3.170   6.667 -1.0452  0.4799  0.6039
   28SAPC  H14A 3678   0.433   3.220   6.706  0.7157 -0.1406 -2.3290
   28SAPC  H14B 3679   0.271   3.147   6.741 -1.9410 -0.1024 -0.4646
   28SAPC  H14C 3680   0.377   3.083   6.611 -1.0834  2.0970 -2.0742
   28SAPC   C15 3681   0.380   3.346   6.491 -0.3194  0.1447  0.0462
   28SAPC  H15A 3682   0.334   3.426   6.435 -1.0946  1.1319  2.0395
   28SAPC  H15B 3683   0.455   3.403   6.544 -0.8513  0.5611  0.3579
   28SAPC  H15C 3684   0.437   3.278   6.428 -0.1107  0.5447 -0.2025
   28SAPC   C11 3685   0.222   3.115   6.374  0.0558  0.6288 -0.2487
   28SAPC  H11A 3686   0.277   3.165   6.291 -0.2871 -0.0661 -0.9104
   28SAPC  H11B 3687   0.132   3.074   6.323  0.4999 -0.1653 -0.4172
   28SAPC     P 3688   0.437   2.957   6.377 -0.0979 -0.3262 -0.0776
   28SAPC   O13 3689   0.424   2.849   6.276 -0.0672 -0.2203 -0.1741
   28SAPC   O14 3690   0.527   3.070   6.336 -0.2824  0.1524  0.3115
   28SAPC   O12 3691   0.296   3.003   6.424  0.4201  0.3719 -0.2837
   28SAPC   O11 3692   0.504   2.891   6.507  0.1249 -0.0654 -0.1746
   28SAPC    C1 3693   0.431   2.794   6.582  0.5188  0.2460  0.5226
   28SAPC    HA 3694   0.337   2.843   6.614  0.6040  2.2771 -2.1383
   28SAPC    HB 3695   0.409   2.696   6.534  2.4844 -0.5000  1.0762
   28SAPC    C2 3696   0.515   2.760   6.710 -0.2410  1.0400 -0.4348
   28SAPC    HS 3697   0.603   2.693   6.698 -1.1132 -0.5380  1.5984
   28SAPC   O21 3698   0.430   2.726   6.819 -0.3705 -0.4987  0.8238
   28SAPC   C21 3699   0.382   2.602   6.822 -0.6372 -0.3173  0.6420
   28SAPC   O22 3700   0.412   2.521   6.739 -0.3699 -0.2801 -0.0923
   28SAPC   C22 3701   0.296   2.584   6.946  0.0235 -0.4486  1.0464
   28SAPC   H2R 3702   0.353   2.653   7.010 -0.9558  2.8208 -1.4844
   28SAPC   H2S 3703   0.196   2.626   6.922  1.4179  1.3611 -1.8149
   28SAPC    C3 3704   0.605   2.887   6.750  0.1212  0.2740 -0.1910
   28SAPC    HX 3705   0.552   2.984   6.756 -1.0509 -0.3900  0.3666
   28SAPC    HY 3706   0.686   2.906   6.677  0.3316  2.0719  0.4993
   28SAPC   O31 3707   0.661   2.873   6.882 -0.2645  0.1405 -0.4135
   28SAPC   C31 3708   0.774   2.816   6.903 -0.3268  0.4536 -0.6057
   28SAPC   O32 3709   0.837   2.748   6.825 -0.0974 -0.5702 -0.3566
   28SAPC   C32 3710   0.803   2.827   7.049 -0.0978  0.1010  0.3246
   28SAPC   H2X 3711   0.723   2.875   7.109 -1.6136  0.4944 -1.9486
   28SAPC   H2Y 3712   0.893   2.891   7.059  0.6056 -1.0724  1.8571
   28SAPC   C23 3713   0.285   2.438   6.997  0.2378  0.2612  0.2382
   28SAPC   H3R 3714   0.246   2.374   6.915 -0.9229 -0.3386  1.2353
   28SAPC   H3S 3715   0.207   2.443   7.075  1.4296 -1.6619  1.5700
   28SAPC   C24 3716   0.409   2.372   7.052 -0.6804  0.1875 -0.3712
   28SAPC   H4R 3717   0.492   2.367   6.979  1.9107 -0.0096  2.4824
   28SAPC   H4S 3718   0.455   2.441   7.126 -0.1235 -0.5325 -0.0382
   28SAPC   C25 3719   0.386   2.237   7.113 -0.2936 -0.2338 -0.3434
   28SAPC   H5R 3720   0.400   2.143   7.058 -2.0868 -0.7510  0.0292
   28SAPC   C26 3721   0.357   2.220   7.240 -0.1546 -0.6926 -0.3705
   28SAPC   H6R 3722   0.352   2.117   7.280 -1.4421  0.7513  3.4251
   28SAPC   C27 3723   0.348   2.328   7.345  0.2651 -0.5701 -0.3827
   28SAPC   H7R 3724   0.260   2.313   7.410  0.5559  1.3383  0.4831
   28SAPC   H7S 3725   0.309   2.423   7.303  2.3035  1.0074  1.2166
   28SAPC   C28 3726   0.471   2.346   7.431 -0.8450 -0.1004  0.5972
   28SAPC   H8R 3727   0.551   2.404   7.382 -1.9075  0.1254 -0.9091
   28SAPC   C29 3728   0.498   2.299   7.554  0.1777  0.8597  0.5416
   28SAPC   H9R 3729   0.602   2.313   7.588  1.0069  0.3221 -1.6547
   28SAPC  C210 3730   0.402   2.212   7.635  1.0312  0.4347 -0.3594
   28SAPC  H10R 3731   0.429   2.107   7.610  0.2540 -0.6361  2.9849
   28SAPC  H10S 3732   0.301   2.232   7.593  1.7514  0.9276 -1.9038
   28SAPC  C211 3733   0.398   2.243   7.778  0.2924  0.1980  0.4368
   28SAPC  H11R 3734   0.350   2.339   7.802  1.0432  1.2610 -2.0982
   28SAPC  C212 3735   0.463   2.169   7.872 -0.1529  0.5551  0.1638
   28SAPC  H12R 3736   0.460   2.215   7.972 -0.4470 -1.1276  0.9385
   28SAPC  C213 3737   0.548   2.046   7.857 -0.0827 -0.0429 -0.0055
   28SAPC  H13R 3738   0.651   2.066   7.893 -0.5370 -0.0880  1.3353
   28SAPC  H13S 3739   0.572   2.025   7.750  1.5622  0.6348  0.2196
   28SAPC  C214 3740   0.487   1.917   7.907  0.6446  0.0594  0.3948
   28SAPC  H14R 3741   0.404   1.871   7.851  0.7908  0.9229 -0.5512
   28SAPC  C215 3742   0.541   1.849   8.011 -0.4407  0.1316  1.1879
   28SAPC  H15R 3743   0.490   1.754   8.035  0.5488 -0.6092  0.4134
   28SAPC  C216 3744   0.660   1.877   8.104  0.0640  0.3681 -0.3831
   28SAPC  H16R 3745   0.624   1.867   8.209  0.6290 -0.6041 -0.2791
   28SAPC  H16S 3746   0.690   1.984   8.092  1.5538 -0.0055 -0.0483
   28SAPC  C217 3747   0.792   1.809   8.066 -0.1617 -0.6633 -0.0888
   28SAPC  H17R 3748   0.818   1.831   7.961 -1.0166 -1.6371 -0.5046
   28SAPC  H17S 3749   0.785   1.699   8.077  1.1474 -0.6283  1.1980
   28SAPC  C218 3750   0.922   1.848   8.144  0.3738 -0.0620 -0.0425
   28SAPC  H18R 3751   0.948   1.950   8.109  1.5766  0.3868  2.0027
   28SAPC  H18S 3752   1.001   1.786   8.097  2.1776  2.2873 -0.1988
   28SAPC  C219 3753   0.923   1.820   8.295  0.0130  0.2762 -0.1013
   28SAPC  H19R 3754   0.865   1.731   8.325 -0.1746  1.3177  2.8701
   28SAPC  H19S 3755   0.863   1.902   8.341 -0.7473  0.7513 -1.8896
   28SAPC  C220 3756   1.062   1.819   8.361 -0.4921 -0.1870  0.3559
   28SAPC  H20R 3757   1.114   1.729   8.320 -0.7718  0.8534 -2.4445
   28SAPC  H20S 3758   1.061   1.818   8.472  2.5093 -1.0881  0.4244
   28SAPC  H20T 3759   1.122   1.911   8.341  0.5486 -1.2067 -1.3994
   28SAPC   C33 3760   0.844   2.701   7.126 -0.1724  0.6158  0.6476
   28SAPC   H3X 3761   0.934   2.659   7.075 -2.0208  1.7577 -3.8175
   28SAPC   H3Y 3762   0.762   2.626   7.121  1.3633 -1.0996  0.4202
   28SAPC   C34 3763   0.884   2.734   7.264 -0.0701  0.7263 -0.7301
   28SAPC   H4X 3764   0.814   2.808   7.308  3.7215  3.5951  0.7165
   28SAPC   H4Y 3765   0.984   2.783   7.262 -1.1585  2.9455 -1.6818
   28SAPC   C35 3766   0.886   2.614   7.354  1.0473 -0.0252 -0.7484
   28SAPC   H5X 3767   0.967   2.549   7.315  2.0821  1.3088 -0.8793
   28SAPC   H5Y 3768   0.792   2.555   7.355  1.0996 -0.0954  0.4288
   28SAPC   C36 3769   0.901   2.651   7.506 -0.8687  1.1977 -0.1162
   28SAPC   H6X 3770   0.830   2.735   7.522 -1.2838  0.7037  0.5907
   28SAPC   H6Y 3771   1.001   2.697   7.522 -0.1005 -0.9938  1.5297
   28SAPC   C37 3772   0.873   2.540   7.604  0.1649  0.3122  0.0331
   28SAPC   H7X 3773   0.939   2.452   7.586 -1.1219 -0.7370  0.3529
   28SAPC   H7Y 3774   0.770   2.500   7.589  0.9550 -1.7343 -0.0294
   28SAPC   C38 3775   0.881   2.580   7.753 -0.1711 -0.8423  0.0719
   28SAPC   H8X 3776   0.832   2.679   7.761  0.0832 -0.6620 -0.5539
   28SAPC   H8Y 3777   0.987   2.613   7.766 -0.5352 -0.0454  1.0548
   28SAPC   C39 3778   0.842   2.471   7.855  0.3424 -0.3648  0.3214
   28SAPC   H9X 3779   0.880   2.375   7.814 -0.8711  0.3372 -2.5802
   28SAPC   H9Y 3780   0.733   2.448   7.864 -0.1824  2.2388  1.0270
   28SAPC  C310 3781   0.903   2.479   7.993  0.2017  0.1061  0.3319
   28SAPC  H10X 3782   0.893   2.576   8.046  1.3108  0.2943  0.2078
   28SAPC  H10Y 3783   1.011   2.465   7.970  0.3213  1.1038  0.2755
   28SAPC  C311 3784   0.851   2.370   8.083 -0.1457 -0.0808  0.4477
   28SAPC  H11X 3785   0.815   2.283   8.024 -0.1093  0.7753 -0.8368
   28SAPC  H11Y 3786   0.758   2.401   8.135  0.2937 -0.3519  1.4121
   28SAPC  C312 3787   0.952   2.322   8.190  0.2301 -0.1104  0.2221
   28SAPC  H12X 3788   1.054   2.314   8.148  0.6113  1.3076  0.8499
   28SAPC  H12Y 3789   0.921   2.224   8.231 -0.0558  0.2712  0.9319
   28SAPC  C313 3790   0.949   2.423   8.302  0.2795  0.4279 -0.2811
   28SAPC  H13X 3791   0.850   2.418   8.352  0.6843  1.8571  0.6879
   28SAPC  H13Y 3792   0.981   2.526   8.275  1.1636  0.3672  0.4982
   28SAPC  C314 3793   1.061   2.393   8.404 -0.2126  0.2874 -0.3402
   28SAPC  H14X 3794   1.158   2.416   8.355  0.0836 -0.2720 -0.0135
   28SAPC  H14Y 3795   1.044   2.292   8.446 -1.1175  0.7750  0.4807
   28SAPC  C315 3796   1.079   2.481   8.527 -0.9835 -0.5136 -0.7482
   28SAPC  H15X 3797   1.165   2.459   8.593 -3.1754 -2.0335  1.7388
   28SAPC  H15Y 3798   0.988   2.478   8.591 -0.9059 -0.3113 -0.6293
   28SAPC  C316 3799   1.095   2.626   8.501  0.5330  0.3322  0.2971
   28SAPC  H16X 3800   1.018   2.664   8.431 -0.2459 -3.1531 -0.8169
   28SAPC  H16Y 3801   1.192   2.630   8.447  1.4191 -0.3964  1.7870
   28SAPC  C317 3802   1.104   2.724   8.624  0.1056 -0.2349 -0.4044
   28SAPC  H17X 3803   1.162   2.814   8.596  1.3382 -1.1862 -0.9655
   28SAPC  H17Y 3804   1.173   2.669   8.691 -0.8317 -3.1921 -1.7841
   28SAPC  C318 3805   0.973   2.754   8.687  0.5191 -0.7025 -0.0566
   28SAPC  H18X 3806   0.913   2.828   8.629 -1.2280 -0.6020  1.8096
   28SAPC  H18Y 3807   0.994   2.786   8.792 -0.4498  0.1451 -0.1113
   28SAPC  H18Z 3808   0.919   2.660   8.711  0.7169 -0.7718  0.1102
   29SAPC     N 3809   2.973   0.579   6.284 -0.6678 -0.6281 -0.2004
   29SAPC   C12 3810   2.972   0.493   6.408  0.9832 -0.2847  0.2575
   29SAPC  H12A 3811   2.945   0.391   6.381  2.0163 -0.5061  0.0464
   29SAPC  H12B 3812   2.898   0.530   6.477  0.0116 -3.2635  0.9021
   29SAPC   C13 3813   3.028   0.717   6.318 -0.1243  0.0899 -0.0583
   29SAPC  H13A 3814   2.964   0.767   6.389 -1.2495 -0.9220 -0.3437
   29SAPC  H13B 3815   3.128   0.713   6.360  0.0889  2.5836 -0.2632
   29SAPC  H13C 3816   3.037   0.774   6.227 -2.7597  0.0517 -0.3828
   29SAPC   C14 3817   3.061   0.513   6.179 -0.0450 -0.3891 -0.2562
   29SAPC  H14A 3818   3.155   0.478   6.219 -1.4037 -4.1475 -0.0871
   29SAPC  H14B 3819   3.012   0.425   6.138  4.5433 -1.8939 -2.9201
   29SAPC  H14C 3820   3.073   0.586   6.101  1.0166 -1.2033 -0.8771
   29SAPC   C15 3821   2.840   0.591   6.214 -0.0460 -0.1143  0.0505
   29SAPC  H15A 3822   2.773   0.626   6.290 -1.2283  0.5460 -1.2791
   29SAPC  H15B 3823   2.840   0.661   6.132 -0.3995 -0.0066  0.1434
   29SAPC  H15C 3824   2.803   0.494   6.185 -0.1136  0.3330 -1.3926
   29SAPC   C11 3825   3.100   0.477   6.487 -0.5660  0.3090  0.2169
   29SAPC  H11A 3826   3.084   0.454   6.595  0.2179 -0.3635  0.1916
   29SAPC  H11B 3827   3.151   0.576   6.493  2.1494 -1.1413  2.3653
   29SAPC     P 3828   3.160   0.220   6.436  0.0968  0.1241 -0.0650
   29SAPC   O13 3829   3.055   0.182   6.339  0.1223  0.6411 -0.5836
   29SAPC   O14 3830   3.294   0.159   6.402  0.1352  0.7527  0.0003
   29SAPC   O12 3831   3.186   0.377   6.438  0.4602  0.0816 -0.0459
   29SAPC   O11 3832   3.115   0.179   6.578  0.3427 -1.7157  0.7990
   29SAPC    C1 3833   2.978   0.167   6.617  0.2239  0.1878 -0.1921
   29SAPC    HA 3834   2.958   0.257   6.679 -0.1655 -1.5782  2.3391
   29SAPC    HB 3835   2.900   0.160   6.538 -0.5200 -0.1091  0.5560
   29SAPC    C2 3836   2.955   0.048   6.715 -0.0005 -0.1584  0.3750
   29SAPC    HS 3837   2.863   0.076   6.771 -0.0266  2.5658 -0.9724
   29SAPC   O21 3838   3.071   0.024   6.808 -0.2509 -0.2573  0.0181
   29SAPC   C21 3839   3.096   0.120   6.896  0.0572  0.0653  0.2456
   29SAPC   O22 3840   3.035   0.223   6.914  0.3892 -0.1315  0.4456
   29SAPC   C22 3841   3.222   0.080   6.969  0.0156  0.3613  0.3968
   29SAPC   H2R 3842   3.233  -0.026   7.002  0.1856  0.7212  1.5103
   29SAPC   H2S 3843   3.311   0.109   6.910 -0.7076 -0.6873 -1.2767
   29SAPC    C3 3844   2.933  -0.087   6.651 -0.0237  0.4189  0.2089
   29SAPC    HX 3845   3.013  -0.125   6.584  1.1430  1.9298  0.7237
   29SAPC    HY 3846   2.850  -0.081   6.578 -0.6113 -1.8905  0.6212
   29SAPC   O31 3847   2.912  -0.185   6.755 -0.2163 -0.0970  0.3910
   29SAPC   C31 3848   3.013  -0.262   6.788  0.3216 -0.1567 -0.1185
   29SAPC   O32 3849   3.121  -0.272   6.732 -0.4684  0.2247  0.4817
   29SAPC   C32 3850   2.964  -0.321   6.926 -0.5425 -0.3381  0.0585
   29SAPC   H2X 3851   2.889  -0.400   6.904 -1.0834  0.4829 -1.1287
   29SAPC   H2Y 3852   2.906  -0.244   6.982 -0.4166 -1.4790  1.7927
   29SAPC   C23 3853   3.246   0.157   7.102 -0.4325  0.1477 -1.0897
   29SAPC   H3R 3854   3.262   0.265   7.085  0.8864  0.0687 -0.3485
   29SAPC   H3S 3855   3.339   0.115   7.146 -0.2181  1.8502  0.1560
   29SAPC   C24 3856   3.149   0.136   7.218 -0.3729  0.1861  0.4896
   29SAPC   H4R 3857   3.047   0.175   7.197 -1.1935 -3.8562 -3.7673
   29SAPC   H4S 3858   3.184   0.198   7.304 -1.6040  0.3393  0.8947
   29SAPC   C25 3859   3.122  -0.008   7.246 -0.1373 -0.8471  0.6730
   29SAPC   H5R 3860   3.109  -0.079   7.162 -2.2187  1.6617 -1.2035
   29SAPC   C26 3861   3.131  -0.049   7.371 -0.0422  0.4991 -0.0796
   29SAPC   H6R 3862   3.129  -0.157   7.388 -0.3583  0.5795  0.4047
   29SAPC   C27 3863   3.157   0.021   7.496  0.1754 -0.5976 -0.8973
   29SAPC   H7R 3864   3.252   0.076   7.481 -0.0363  0.2845  0.8758
   29SAPC   H7S 3865   3.183  -0.046   7.581 -0.6786 -0.8385 -0.8197
   29SAPC   C28 3866   3.063   0.127   7.553  0.0724 -0.3581  0.6985
   29SAPC   H8R 3867   2.982   0.164   7.488 -0.0540 -0.6608  0.6847
   29SAPC   C29 3868   3.075   0.179   7.676  0.1860  0.7360 -0.5110
   29SAPC   H9R 3869   2.997   0.246   7.714 -2.5682 -2.7443  0.2877
   29SAPC  C210 3870   3.194   0.160   7.771  0.6190 -0.1129 -0.4481
   29SAPC  H10R 3871   3.261   0.246   7.748 -1.9530  2.2991  0.8624
   29SAPC  H10S 3872   3.243   0.062   7.753  2.5562  1.0254 -1.6254
   29SAPC  C211 3873   3.156   0.172   7.916  0.5886 -0.5841  0.0003
   29SAPC  H11R 3874   3.050   0.195   7.931  0.2371 -1.3662 -1.2219
   29SAPC  C212 3875   3.225   0.130   8.022 -0.3120  0.8116 -0.4765
   29SAPC  H12R 3876   3.181   0.134   8.123 -0.7265 -1.4568 -0.5477
   29SAPC  C213 3877   3.359   0.066   8.014  0.3505 -0.3561  0.1966
   29SAPC  H13R 3878   3.423   0.144   8.060 -1.1395  0.5446  0.7593
   29SAPC  H13S 3879   3.406   0.066   7.914 -0.8897  1.6532 -0.4177
   29SAPC  C214 3880   3.379  -0.060   8.091 -0.3097 -0.6809  0.0319
   29SAPC  H14R 3881   3.357  -0.149   8.029 -1.8967 -1.0469  1.0680
   29SAPC  C215 3882   3.427  -0.065   8.218 -0.5422  0.3724 -0.5052
   29SAPC  H15R 3883   3.443  -0.165   8.261  0.9132  0.9931  0.4590
   29SAPC  C216 3884   3.461   0.060   8.303 -0.4425 -0.2064 -0.3481
   29SAPC  H16R 3885   3.412   0.148   8.257 -2.1915 -1.6628 -1.3464
   29SAPC  H16S 3886   3.570   0.082   8.306 -0.4461 -0.1598 -0.5514
   29SAPC  C217 3887   3.412   0.073   8.451  0.8037  0.2797  0.3497
   29SAPC  H17R 3888   3.453  -0.005   8.519  1.7683  0.5312  0.0592
   29SAPC  H17S 3889   3.305   0.044   8.458  0.9853 -0.4889  0.0681
   29SAPC  C218 3890   3.440   0.216   8.501 -0.1183  0.4761  0.8237
   29SAPC  H18R 3891   3.420   0.284   8.415 -0.4723 -0.3156  0.2656
   29SAPC  H18S 3892   3.548   0.202   8.522 -0.1406 -0.7101  0.2325
   29SAPC  C219 3893   3.361   0.262   8.619 -0.1809 -0.8954 -0.2682
   29SAPC  H19R 3894   3.351   0.197   8.709 -2.8682 -0.3598 -0.1238
   29SAPC  H19S 3895   3.254   0.268   8.587 -0.0169 -0.6079 -0.7710
   29SAPC  C220 3896   3.406   0.401   8.673 -0.2813 -0.2723  0.1297
   29SAPC  H20R 3897   3.359   0.427   8.770  0.6328  1.3045  0.1688
   29SAPC  H20S 3898   3.402   0.486   8.602 -2.2757  0.6821  1.3476
   29SAPC  H20T 3899   3.517   0.397   8.678 -0.3018  1.0255  1.8731
   29SAPC   C33 3900   3.079  -0.371   7.015 -0.7656  0.3637  0.0467
   29SAPC   H3X 3901   3.161  -0.297   7.022  1.6708 -2.3518  1.4433
   29SAPC   H3Y 3902   3.135  -0.456   6.971 -0.2614  1.0903 -0.7414
   29SAPC   C34 3903   3.030  -0.398   7.153 -0.5965  0.2612 -0.1765
   29SAPC   H4X 3904   2.950  -0.475   7.158  0.5700 -0.9536  0.0225
   29SAPC   H4Y 3905   2.981  -0.302   7.180 -1.3603 -0.2248  0.1909
   29SAPC   C35 3906   3.149  -0.419   7.248 -0.2866 -0.3594  0.5919
   29SAPC   H5X 3907   3.195  -0.321   7.269 -1.7765  0.9310 -2.0060
   29SAPC   H5Y 3908   3.226  -0.473   7.188 -0.5773  0.6673 -0.7202
   29SAPC   C36 3909   3.101  -0.505   7.370 -0.1517 -0.6952  0.3244
   29SAPC   H6X 3910   3.054  -0.598   7.330 -1.3327 -0.1663  0.4751
   29SAPC   H6Y 3911   3.022  -0.455   7.430  0.5418  1.3713 -0.4551
   29SAPC   C37 3912   3.210  -0.552   7.471 -1.0418 -0.3126  0.1905
   29SAPC   H7X 3913   3.256  -0.456   7.502 -1.0929  0.2972 -1.5608
   29SAPC   H7Y 3914   3.283  -0.616   7.417  0.5540  0.9875  0.7897
   29SAPC   C38 3915   3.150  -0.626   7.592 -0.4204  0.1328  0.1157
   29SAPC   H8X 3916   3.091  -0.708   7.546  0.5793 -0.7563  0.3829
   29SAPC   H8Y 3917   3.084  -0.557   7.648 -0.8007 -0.6434  0.6305
   29SAPC   C39 3918   3.256  -0.692   7.676  0.8680  0.1163  0.0610
   29SAPC   H9X 3919   3.334  -0.623   7.714  0.1067  2.1618 -2.0199
   29SAPC   H9Y 3920   3.317  -0.766   7.619  0.8474  0.1457  0.0000
   29SAPC  C310 3921   3.189  -0.755   7.804  0.2706  0.1977 -0.3658
   29SAPC  H10X 3922   3.133  -0.848   7.778 -0.6257  0.3216  1.0312
   29SAPC  H10Y 3923   3.128  -0.683   7.863  0.8556  0.0620  0.4080
   29SAPC  C311 3924   3.302  -0.785   7.906 -0.4149 -0.0909 -0.3108
   29SAPC  H11X 3925   3.350  -0.690   7.937 -1.7300  0.0479  1.3480
   29SAPC  H11Y 3926   3.370  -0.856   7.854 -1.6874 -1.8499  0.3716
   29SAPC  C312 3927   3.236  -0.853   8.025  0.4785 -0.1008  0.5821
   29SAPC  H12X 3928   3.167  -0.931   7.988  2.5633 -0.4548 -2.8017
   29SAPC  H12Y 3929   3.170  -0.779   8.077  0.4472  0.8109 -0.7353
   29SAPC  C313 3930   3.333  -0.905   8.129 -0.2793  0.5887  0.3711
   29SAPC  H13X 3931   3.279  -0.943   8.218  3.2510 -0.3566  2.1931
   29SAPC  H13Y 3932   3.405  -0.827   8.162 -0.4253  0.7693  0.2653
   29SAPC  C314 3933   3.419  -1.021   8.058 -0.0715 -0.1265  1.1341
   29SAPC  H14X 3934   3.496  -0.967   7.998  1.0191 -3.3965 -0.5407
   29SAPC  H14Y 3935   3.361  -1.086   7.989 -2.3622  1.3525  1.6320
   29SAPC  C315 3936   3.502  -1.110   8.160 -0.2415  0.2941  0.5215
   29SAPC  H15X 3937   3.564  -1.036   8.215 -1.2049  0.5127  1.3235
   29SAPC  H15Y 3938   3.568  -1.185   8.113  0.8140  1.5652 -0.0656
   29SAPC  C316 3939   3.415  -1.192   8.258 -0.0724  0.1314  0.5712
   29SAPC  H16X 3940   3.331  -1.231   8.199  0.7299  0.6403 -0.9369
   29SAPC  H16Y 3941   3.374  -1.134   8.344 -1.3279 -2.5034  1.7964
   29SAPC  C317 3942   3.479  -1.316   8.317 -0.6912 -0.1150  0.0875
   29SAPC  H17X 3943   3.577  -1.289   8.361 -1.6205 -1.3904  3.1301
   29SAPC  H17Y 3944   3.500  -1.404   8.252 -2.9129 -0.8949  0.3887
   29SAPC  C318 3945   3.397  -1.363   8.440  0.1860  0.6757 -0.0391
   29SAPC  H18X 3946   3.440  -1.317   8.532 -0.2009  0.2405  0.3627
   29SAPC  H18Y 3947   3.398  -1.473   8.450 -0.2309  0.6085 -0.7225
   29SAPC  H18Z 3948   3.296  -1.317   8.442  0.2594  0.8413 -0.0797
   30SAPC     N 3949   4.007   5.470   6.317  0.4142  0.0487  0.2610
   30SAPC   C12 3950   4.115   5.405   6.230 -0.0800 -0.0662  0.9175
   30SAPC  H12A 3951   4.067   5.363   6.142 -2.3721  0.4657  1.8589
   30SAPC  H12B 3952   4.160   5.324   6.286  1.2371 -0.5684 -0.8132
   30SAPC   C13 3953   3.919   5.358   6.362  0.3670 -0.1302  0.0159
   30SAPC  H13A 3954   3.977   5.300   6.432  1.2030 -0.8303 -1.2288
   30SAPC  H13B 3955   3.826   5.395   6.404 -0.5096  2.4694 -3.9314
   30SAPC  H13C 3956   3.881   5.300   6.279 -0.8160  1.3602 -0.5170
   30SAPC   C14 3957   4.063   5.537   6.435  0.2518 -0.0173  0.1714
   30SAPC  H14A 3958   4.121   5.459   6.481  3.1006  1.5780 -0.6227
   30SAPC  H14B 3959   4.128   5.617   6.402  0.6767  0.0536  1.1782
   30SAPC  H14C 3960   3.988   5.582   6.498 -1.1053 -0.3792 -1.1419
   30SAPC   C15 3961   3.940   5.577   6.234  0.1229 -0.4065  0.2038
   30SAPC  H15A 3962   3.886   5.532   6.152  0.2135 -0.5998  0.2494
   30SAPC  H15B 3963   3.867   5.640   6.283 -0.3164  0.8923 -2.0442
   30SAPC  H15C 3964   4.017   5.637   6.188  0.4572 -0.5546  0.5683
   30SAPC   C11 3965   4.234   5.496   6.190  0.1149 -0.4717 -0.2425
   30SAPC  H11A 3966   4.198   5.579   6.126  2.9303  2.2927  1.6006
   30SAPC  H11B 3967   4.298   5.431   6.126 -2.1628 -0.6574 -2.3866
   30SAPC     P 3968   4.407   5.457   6.388  0.5045  0.5741 -0.0425
   30SAPC   O13 3969   4.360   5.318   6.390 -0.2494 -0.3008 -0.1758
   30SAPC   O14 3970   4.541   5.490   6.341 -0.3853 -0.3894 -0.1475
   30SAPC   O12 3971   4.313   5.546   6.300  0.6007  0.1016  0.0345
   30SAPC   O11 3972   4.389   5.510   6.534  1.0752  0.6855  0.0999
   30SAPC    C1 3973   4.419   5.644   6.575  0.1970 -0.5616 -0.9384
   30SAPC    HA 3974   4.428   5.717   6.491  1.7197  1.7240  1.1414
   30SAPC    HB 3975   4.347   5.683   6.650  0.8127 -2.0969  0.4693
   30SAPC    C2 3976   4.563   5.650   6.641 -0.0709  0.0371  0.5665
   30SAPC    HS 3977   4.618   5.602   6.557 -0.1465  0.1580  0.4488
   30SAPC   O21 3978   4.561   5.591   6.766  0.1900 -0.4338 -0.4559
   30SAPC   C21 3979   4.665   5.564   6.840  0.3687 -0.1915  0.3622
   30SAPC   O22 3980   4.781   5.554   6.799  0.2041  0.0612  0.1550
   30SAPC   C22 3981   4.619   5.526   6.982 -0.0277  0.1062  0.3164
   30SAPC   H2R 3982   4.612   5.618   7.043  0.4814 -0.2731  0.9510
   30SAPC   H2S 3983   4.516   5.484   6.976 -0.0101 -0.0293  0.9540
   30SAPC    C3 3984   4.628   5.793   6.652  0.3993  0.1468 -0.1615
   30SAPC    HX 3985   4.601   5.833   6.552 -1.7656 -2.3523 -0.6097
   30SAPC    HY 3986   4.738   5.782   6.659  0.3363  0.7361  2.1974
   30SAPC   O31 3987   4.575   5.878   6.759  0.3530  0.2869 -0.2325
   30SAPC   C31 3988   4.659   5.945   6.829  0.5240  0.7073 -0.3494
   30SAPC   O32 3989   4.778   5.953   6.803 -0.0607 -0.0702  0.3321
   30SAPC   C32 3990   4.594   5.992   6.958  0.2642 -0.5797 -0.1803
   30SAPC   H2X 3991   4.563   5.902   7.016  0.3580 -1.0137 -0.7909
   30SAPC   H2Y 3992   4.498   6.035   6.923 -0.0100 -0.0899  1.1371
   30SAPC   C23 3993   4.717   5.420   7.047  0.5754 -0.1023 -0.1572
   30SAPC   H3R 3994   4.822   5.454   7.029  2.1872 -4.1827  0.9271
   30SAPC   H3S 3995   4.709   5.321   6.996 -0.9674 -0.2100  0.2942
   30SAPC   C24 3996   4.688   5.403   7.197 -0.3218  0.3498  0.2630
   30SAPC   H4R 3997   4.579   5.392   7.219 -1.3541  4.0023 -2.4379
   30SAPC   H4S 3998   4.721   5.501   7.237 -1.1117 -0.3622  2.7251
   30SAPC   C25 3999   4.758   5.282   7.255  0.4845  0.6438 -0.0130
   30SAPC   H5R 4000   4.814   5.229   7.176  0.6594  0.8363 -0.0198
   30SAPC   C26 4001   4.771   5.252   7.385 -0.2130  0.3283  0.0168
   30SAPC   H6R 4002   4.822   5.159   7.416  0.7395  0.7739 -0.2120
   30SAPC   C27 4003   4.726   5.335   7.498  0.1005  0.2288 -0.4708
   30SAPC   H7R 4004   4.672   5.427   7.467 -2.5968 -0.6751  1.4359
   30SAPC   H7S 4005   4.810   5.376   7.558  0.0785  1.1415 -1.0540
   30SAPC   C28 4006   4.636   5.251   7.594  0.7478  1.5169  0.4209
   30SAPC   H8R 4007   4.542   5.220   7.544  0.6037  1.5459  0.6714
   30SAPC   C29 4008   4.653   5.208   7.720  0.3329  0.1564  0.2009
   30SAPC   H9R 4009   4.577   5.137   7.758  1.3033 -0.0679  1.7923
   30SAPC  C210 4010   4.771   5.242   7.817  0.5418 -0.2322  0.7602
   30SAPC  H10R 4011   4.829   5.331   7.783 -0.8143  0.2501 -0.3617
   30SAPC  H10S 4012   4.848   5.163   7.804  0.7590  0.1486 -0.3952
   30SAPC  C211 4013   4.727   5.257   7.961 -0.4710  0.2331  0.6712
   30SAPC  H11R 4014   4.644   5.328   7.975 -1.8188 -1.4920  1.7461
   30SAPC  C212 4015   4.791   5.205   8.068 -0.8719 -0.3137 -0.1982
   30SAPC  H12R 4016   4.751   5.222   8.169 -0.8628 -1.4338 -0.0012
   30SAPC  C213 4017   4.917   5.121   8.065 -1.0943 -0.1104  0.0445
   30SAPC  H13R 4018   4.897   5.046   7.986 -0.1724  0.9329 -1.2044
   30SAPC  H13S 4019   4.931   5.061   8.158 -0.0470  1.1577  0.7322
   30SAPC  C214 4020   5.038   5.199   8.022 -0.6072 -0.4960  0.1721
   30SAPC  H14R 4021   5.042   5.240   7.919  2.1461 -1.3929 -0.1101
   30SAPC  C215 4022   5.143   5.224   8.100 -1.4364  0.3221  0.1921
   30SAPC  H15R 4023   5.229   5.287   8.073 -2.7105  3.4185  2.9745
   30SAPC  C216 4024   5.171   5.171   8.237  0.1274  0.3235  0.4405
   30SAPC  H16R 4025   5.281   5.163   8.252  0.1204 -2.9981 -0.7286
   30SAPC  H16S 4026   5.135   5.067   8.249 -0.3914  0.4913  0.3441
   30SAPC  C217 4027   5.115   5.269   8.346  0.1714  0.4231  0.7766
   30SAPC  H17R 4028   5.027   5.326   8.310 -0.6406 -0.4727  1.3137
   30SAPC  H17S 4029   5.198   5.339   8.370  0.2228 -0.0995  2.2194
   30SAPC  C218 4030   5.104   5.192   8.477  0.1777 -0.0995  0.2733
   30SAPC  H18R 4031   5.058   5.092   8.465 -2.4026  0.9125  1.4860
   30SAPC  H18S 4032   5.060   5.257   8.556  2.1735  0.1963  1.1709
   30SAPC  C219 4033   5.244   5.165   8.545 -0.2288  0.1074 -0.2500
   30SAPC  H19R 4034   5.316   5.250   8.536  0.6850 -0.1394  3.8805
   30SAPC  H19S 4035   5.295   5.089   8.483  1.2808  1.0982 -0.2704
   30SAPC  C220 4036   5.242   5.117   8.692  0.3478 -0.3257  0.4160
   30SAPC  H20R 4037   5.204   5.013   8.694  0.5029 -0.4362 -1.7552
   30SAPC  H20S 4038   5.171   5.173   8.756  0.1576 -0.2312  0.1218
   30SAPC  H20T 4039   5.347   5.131   8.728  0.5768  0.4930 -0.5233
   30SAPC   C33 4040   4.669   6.098   7.031 -0.1014 -0.3590 -0.4314
   30SAPC   H3X 4041   4.690   6.185   6.965 -1.5336 -0.3746 -0.9103
   30SAPC   H3Y 4042   4.768   6.058   7.063 -0.2957 -1.7293 -1.5224
   30SAPC   C34 4043   4.597   6.136   7.161  0.1860  0.5167  0.0054
   30SAPC   H4X 4044   4.588   6.047   7.227  2.8411  0.0371 -0.2269
   30SAPC   H4Y 4045   4.492   6.171   7.150 -0.1965 -0.6142  0.0359
   30SAPC   C35 4046   4.693   6.230   7.249 -0.6077  0.0050  0.9877
   30SAPC   H5X 4047   4.722   6.316   7.185  0.0663 -0.5208  0.5779
   30SAPC   H5Y 4048   4.787   6.173   7.267 -0.1140  0.4127 -0.3021
   30SAPC   C36 4049   4.629   6.266   7.392  0.1820 -0.1612 -0.5488
   30SAPC   H6X 4050   4.519   6.284   7.390 -0.0068 -1.0339  0.9661
   30SAPC   H6Y 4051   4.676   6.363   7.420 -3.4346  1.3119  0.8148
   30SAPC   C37 4052   4.647   6.162   7.499  0.0783 -0.5464 -0.8518
   30SAPC   H7X 4053   4.752   6.161   7.536  0.4198 -2.3349 -1.8066
   30SAPC   H7Y 4054   4.635   6.060   7.456  2.2308 -1.7892  1.3597
   30SAPC   C38 4055   4.557   6.180   7.622  0.0597 -0.0113  0.2124
   30SAPC   H8X 4056   4.556   6.096   7.695  3.2677  0.4204  0.8490
   30SAPC   H8Y 4057   4.449   6.183   7.596 -0.4278 -1.0196  2.0505
   30SAPC   C39 4058   4.570   6.318   7.692  0.1695 -0.0970 -0.6356
   30SAPC   H9X 4059   4.546   6.401   7.622  2.0043  0.9783 -0.0297
   30SAPC   H9Y 4060   4.677   6.337   7.714  0.2204  0.6606 -1.4969
   30SAPC  C310 4061   4.500   6.325   7.829  0.9451 -0.2350 -0.1597
   30SAPC  H10X 4062   4.544   6.416   7.876  0.7527  0.6241 -1.6221
   30SAPC  H10Y 4063   4.532   6.235   7.886 -1.3640 -1.5757 -0.9124
   30SAPC  C311 4064   4.347   6.338   7.814  0.1873 -0.9419  0.2869
   30SAPC  H11X 4065   4.314   6.259   7.742 -0.4603 -1.2383  0.9050
   30SAPC  H11Y 4066   4.321   6.433   7.762  1.7380 -0.1201  1.0056
   30SAPC  C312 4067   4.280   6.317   7.949  0.1143  0.3328  0.5008
   30SAPC  H12X 4068   4.190   6.381   7.955  1.2105  1.7708  2.0152
   30SAPC  H12Y 4069   4.354   6.346   8.027  1.0764  0.1288 -0.3206
   30SAPC  C313 4070   4.236   6.167   7.972 -0.1154  0.3697  0.1433
   30SAPC  H13X 4071   4.319   6.093   7.970 -1.7058 -1.4663  0.6730
   30SAPC  H13Y 4072   4.163   6.155   7.889 -1.9012 -1.0134  1.8808
   30SAPC  C314 4073   4.163   6.150   8.106 -0.2172  0.0250  0.4970
   30SAPC  H14X 4074   4.101   6.058   8.103 -2.7445  1.6147  1.8631
   30SAPC  H14Y 4075   4.085   6.228   8.122  0.8981  0.9819  1.2808
   30SAPC  C315 4076   4.257   6.130   8.222  0.6967 -0.0489  0.1208
   30SAPC  H15X 4077   4.270   6.229   8.271  0.1736  0.6138 -1.0578
   30SAPC  H15Y 4078   4.352   6.086   8.184 -0.2723 -1.4638 -0.7052
   30SAPC  C316 4079   4.204   6.029   8.330 -0.8252 -0.8847  0.0537
   30SAPC  H16X 4080   4.293   6.002   8.392 -0.0274 -1.4307 -1.2913
   30SAPC  H16Y 4081   4.160   5.935   8.291 -0.8289 -0.2410 -1.5461
   30SAPC  C317 4082   4.106   6.103   8.423  0.3504  0.4246  0.4309
   30SAPC  H17X 4083   4.011   6.122   8.370  0.8419  0.7344 -0.3440
   30SAPC  H17Y 4084   4.139   6.205   8.453  2.0366  0.2067 -0.5879
   30SAPC  C318 4085   4.072   6.023   8.547  0.2455 -0.1150  0.9338
   30SAPC  H18X 4086   4.008   5.935   8.528  0.4317  0.0368 -0.4300
   30SAPC  H18Y 4087   4.018   6.091   8.617 -1.9468 -0.2087 -0.6355
   30SAPC  H18Z 4088   4.162   5.984   8.600  0.9006 -0.3654 -0.3313
   31SAPC     N 4089   6.050   0.377   6.036  0.2283  0.7079 -0.3128
   31SAPC   C12 4090   6.139   0.251   6.061 -0.0374 -0.3897  0.7160
   31SAPC  H12A 4091   6.240   0.290   6.068 -0.3166  0.5290 -0.4366
   31SAPC  H12B 4092   6.147   0.193   5.971 -0.4097  2.1261 -0.9660
   31SAPC   C13 4093   6.101   0.456   5.920  0.4015  0.7000  0.4497
   31SAPC  H13A 4094   6.102   0.385   5.839 -0.1107 -1.3993  2.2319
   31SAPC  H13B 4095   6.036   0.537   5.890 -2.0825 -1.2836  0.2893
   31SAPC  H13C 4096   6.202   0.491   5.934  0.9417  0.8335 -3.3032
   31SAPC   C14 4097   5.912   0.342   6.013 -0.2265 -0.4098  0.4288
   31SAPC  H14A 4098   5.845   0.424   5.993  0.4651 -0.1770 -0.9836
   31SAPC  H14B 4099   5.895   0.283   5.924  1.2953 -1.3171  0.7344
   31SAPC  H14C 4100   5.873   0.294   6.102  3.5110  0.4959  2.6492
   31SAPC   C15 4101   6.053   0.470   6.153 -0.4006  0.0434  0.8480
   31SAPC  H15A 4102   6.018   0.570   6.136  0.2400  0.4746  2.0281
   31SAPC  H15B 4103   5.996   0.441   6.240  1.4994 -0.3357  2.0172
   31SAPC  H15C 4104   6.153   0.485   6.191  0.1583 -1.6114  0.0904
   31SAPC   C11 4105   6.101   0.162   6.177 -0.0966  0.1612  0.1988
   31SAPC  H11A 4106   6.099   0.222   6.271  1.2114  0.8850 -0.2202
   31SAPC  H11B 4107   6.188   0.093   6.184  0.7467  1.2701  0.8286
   31SAPC     P 4108   5.936  -0.018   6.267 -0.1678  0.2511 -0.0502
   31SAPC   O13 4109   5.806  -0.085   6.233  0.9208  0.1183  0.0904
   31SAPC   O14 4110   6.053  -0.109   6.290 -0.3863 -0.7278 -0.2991
   31SAPC   O12 4111   5.974   0.092   6.154 -0.2490 -0.3352 -0.2593
   31SAPC   O11 4112   5.916   0.062   6.397  0.0677  0.0713 -0.4106
   31SAPC    C1 4113   5.843   0.188   6.390 -0.1690  0.0307 -0.0951
   31SAPC    HA 4114   5.912   0.275   6.385 -0.6873  0.5414  1.4253
   31SAPC    HB 4115   5.762   0.190   6.314  1.6391  0.4459 -2.0683
   31SAPC    C2 4116   5.764   0.201   6.524  0.2681  0.5543 -0.1014
   31SAPC    HS 4117   5.719   0.301   6.541  0.9046  0.8027  0.1310
   31SAPC   O21 4118   5.836   0.162   6.645 -0.4453 -0.4287  0.0649
   31SAPC   C21 4119   5.938   0.245   6.665 -0.2695  0.7669 -0.2184
   31SAPC   O22 4120   5.958   0.347   6.598  0.3107 -1.0151  0.2234
   31SAPC   C22 4121   5.995   0.218   6.805  0.1686 -0.6616 -0.0429
   31SAPC   H2R 4122   5.926   0.256   6.884 -0.5976  1.0538 -1.5077
   31SAPC   H2S 4123   6.016   0.111   6.824 -1.5274 -0.7462  1.5293
   31SAPC    C3 4124   5.634   0.109   6.508 -0.8149 -0.6716 -0.0149
   31SAPC    HX 4125   5.676   0.013   6.472 -1.9563 -1.6958  1.3190
   31SAPC    HY 4126   5.558   0.154   6.440  0.3727  2.1388  0.4579
   31SAPC   O31 4127   5.566   0.079   6.634  0.1242  0.3012 -0.4577
   31SAPC   C31 4128   5.504   0.183   6.695  0.2998  0.4038 -0.5426
   31SAPC   O32 4129   5.492   0.291   6.648 -0.0657 -0.2391  0.0571
   31SAPC   C32 4130   5.442   0.139   6.829  0.1751 -0.4584  0.1274
   31SAPC   H2X 4131   5.445   0.029   6.813  1.7360  0.0066 -3.3456
   31SAPC   H2Y 4132   5.339   0.178   6.827 -0.0090 -0.9098  0.8675
   31SAPC   C23 4133   6.136   0.287   6.823  0.1185  0.4901 -0.2191
   31SAPC   H3R 4134   6.113   0.390   6.789 -2.3021 -0.6348 -2.1629
   31SAPC   H3S 4135   6.216   0.252   6.755  0.1990 -0.5898  0.4189
   31SAPC   C24 4136   6.184   0.291   6.970  0.1165  0.2741 -0.0870
   31SAPC   H4R 4137   6.106   0.332   7.038 -0.5842 -0.3874 -0.4778
   31SAPC   H4S 4138   6.264   0.367   6.981  1.4618 -1.1846  0.3816
   31SAPC   C25 4139   6.242   0.155   7.015 -0.7021  0.2821  0.1450
   31SAPC   H5R 4140   6.293   0.106   6.930 -0.6436 -2.8067  1.8839
   31SAPC   C26 4141   6.250   0.107   7.137  0.2538 -0.0235  0.2463
   31SAPC   H6R 4142   6.292   0.006   7.141  1.2560  0.3916  0.3035
   31SAPC   C27 4143   6.200   0.166   7.261 -1.2598 -0.2814 -0.0926
   31SAPC   H7R 4144   6.115   0.236   7.242 -0.6169  0.5398  0.0391
   31SAPC   H7S 4145   6.287   0.229   7.289 -2.1970  0.1032  2.0084
   31SAPC   C28 4146   6.176   0.057   7.365  0.5206 -0.2629  0.1263
   31SAPC   H8R 4147   6.156  -0.042   7.321 -3.9721  0.6882 -0.2682
   31SAPC   C29 4148   6.192   0.077   7.495 -0.7459  0.0064 -0.3337
   31SAPC   H9R 4149   6.156   0.002   7.567  0.7262 -0.0492  0.3556
   31SAPC  C210 4150   6.228   0.205   7.556 -0.1498  0.8272  0.4045
   31SAPC  H10R 4151   6.163   0.205   7.647 -0.3325  1.2693  0.2756
   31SAPC  H10S 4152   6.201   0.291   7.492  1.0210  0.5257 -0.4977
   31SAPC  C211 4153   6.376   0.221   7.582 -0.1655  0.0335 -0.2212
   31SAPC  H11R 4154   6.442   0.238   7.496  1.2768  1.7697  1.1832
   31SAPC  C212 4155   6.432   0.213   7.705 -0.0738 -0.9008 -0.5097
   31SAPC  H12R 4156   6.542   0.206   7.705 -0.0078 -0.0331  1.8175
   31SAPC  C213 4157   6.364   0.202   7.840 -0.0385 -0.4961 -0.3100
   31SAPC  H13R 4158   6.273   0.143   7.817 -1.1962  0.6541  1.1807
   31SAPC  H13S 4159   6.330   0.304   7.866 -1.4684 -1.0400  0.0464
   31SAPC  C214 4160   6.433   0.122   7.949 -0.2268  0.0520  0.9940
   31SAPC  H14R 4161   6.400   0.017   7.956 -0.9448  0.1745 -0.2506
   31SAPC  C215 4162   6.500   0.177   8.048 -0.3930 -0.4891  0.4077
   31SAPC  H15R 4163   6.551   0.115   8.124  1.3072 -0.3236 -0.5593
   31SAPC  C216 4164   6.519   0.319   8.072  0.0210 -0.7516 -0.4933
   31SAPC  H16R 4165   6.476   0.386   7.995  0.6886  1.5249  1.0528
   31SAPC  H16S 4166   6.628   0.335   8.068  0.2501 -1.1145  2.5852
   31SAPC  C217 4167   6.473   0.359   8.209  0.3878  0.2912 -0.0893
   31SAPC  H17R 4168   6.371   0.314   8.213 -0.2263  1.1726 -3.7790
   31SAPC  H17S 4169   6.445   0.466   8.218 -1.3608 -0.2090  0.7120
   31SAPC  C218 4170   6.568   0.313   8.319 -0.3150  0.1986  0.0950
   31SAPC  H18R 4171   6.674   0.321   8.285  0.0837  1.0282  1.4728
   31SAPC  H18S 4172   6.550   0.206   8.342 -0.3510 -0.3207 -2.2183
   31SAPC  C219 4173   6.562   0.407   8.444  0.7221  0.5315  0.2818
   31SAPC  H19R 4174   6.455   0.402   8.473  0.5982  0.4925 -0.1773
   31SAPC  H19S 4175   6.601   0.509   8.429  0.0238  0.8312  0.4774
   31SAPC  C220 4176   6.645   0.343   8.559 -0.2415 -0.0477  0.1930
   31SAPC  H20R 4177   6.745   0.318   8.518 -1.0499 -1.4813 -0.9398
   31SAPC  H20S 4178   6.591   0.251   8.590  0.3818 -0.3160  0.5135
   31SAPC  H20T 4179   6.639   0.409   8.649 -0.6783  0.7964 -0.4558
   31SAPC   C33 4180   5.532   0.190   6.959 -0.4338 -0.1169 -0.1810
   31SAPC   H3X 4181   5.549   0.299   6.946 -1.2042 -0.0911 -1.0684
   31SAPC   H3Y 4182   5.625   0.131   6.957  0.1377  0.7919 -0.8236
   31SAPC   C34 4183   5.458   0.158   7.091 -0.3397 -0.0391  0.0464
   31SAPC   H4X 4184   5.422   0.053   7.096  0.8527 -0.3992  1.2613
   31SAPC   H4Y 4185   5.373   0.229   7.099 -0.3299  0.5056 -3.6224
   31SAPC   C35 4186   5.553   0.171   7.209 -0.3787 -0.2919 -1.0202
   31SAPC   H5X 4187   5.582   0.278   7.206 -1.4235  0.0152 -0.3895
   31SAPC   H5Y 4188   5.648   0.116   7.194  0.6107  0.9521  0.6516
   31SAPC   C36 4189   5.497   0.123   7.347  0.2494  0.7392 -0.2074
   31SAPC   H6X 4190   5.553   0.158   7.436  1.8115 -1.8373 -0.1383
   31SAPC   H6Y 4191   5.509   0.013   7.343 -1.1385  0.5303  1.2197
   31SAPC   C37 4192   5.354   0.168   7.367  0.4477 -0.0986  0.0466
   31SAPC   H7X 4193   5.292   0.130   7.282  0.1773 -1.5440  0.8765
   31SAPC   H7Y 4194   5.353   0.279   7.364  0.1457  0.0890  4.6186
   31SAPC   C38 4195   5.303   0.142   7.512 -0.3531 -0.5739  0.1238
   31SAPC   H8X 4196   5.325   0.037   7.540 -0.3987 -0.4130  0.7663
   31SAPC   H8Y 4197   5.193   0.156   7.505 -0.2653 -0.2524 -0.7726
   31SAPC   C39 4198   5.364   0.246   7.610 -0.0448 -0.3901 -0.3582
   31SAPC   H9X 4199   5.332   0.347   7.577 -2.6322 -0.0081  2.9647
   31SAPC   H9Y 4200   5.475   0.236   7.617 -0.0191 -0.7969 -1.2547
   31SAPC  C310 4201   5.310   0.231   7.754 -0.0092  0.5465  0.5184
   31SAPC  H10X 4202   5.203   0.203   7.753  0.2320 -0.3356 -0.9724
   31SAPC  H10Y 4203   5.322   0.333   7.798 -0.8484  1.5372 -1.4547
   31SAPC  C311 4204   5.390   0.121   7.829 -0.4029  0.5189  0.2812
   31SAPC  H11X 4205   5.500   0.140   7.824 -0.4254  0.2331 -1.6814
   31SAPC  H11Y 4206   5.366   0.024   7.780 -1.3945  1.0610 -0.3193
   31SAPC  C312 4207   5.350   0.117   7.979  0.2934 -0.2983 -0.7477
   31SAPC  H12X 4208   5.243   0.095   8.003  0.7855 -0.3737  1.4671
   31SAPC  H12Y 4209   5.359   0.218   8.025  0.2603  0.5576 -2.5950
   31SAPC  C313 4210   5.436   0.011   8.051 -0.1654 -0.0259  0.1782
   31SAPC  H13X 4211   5.538   0.054   8.056 -0.2542  0.3927 -1.2646
   31SAPC  H13Y 4212   5.429  -0.089   8.003 -1.4944  0.2564 -0.2358
   31SAPC  C314 4213   5.400  -0.006   8.195 -0.4186 -0.4798 -0.6104
   31SAPC  H14X 4214   5.300  -0.054   8.206 -1.8852  2.5398 -0.0644
   31SAPC  H14Y 4215   5.389   0.099   8.231  0.4878 -0.4310 -0.4871
   31SAPC  C315 4216   5.518  -0.073   8.274  0.2935  0.2959  1.1622
   31SAPC  H15X 4217   5.493  -0.052   8.380  0.5500  0.5475  1.1728
   31SAPC  H15Y 4218   5.607  -0.017   8.239 -0.2060 -0.2185 -1.0047
   31SAPC  C316 4219   5.522  -0.223   8.265 -0.6862  0.4233  0.0065
   31SAPC  H16X 4220   5.548  -0.256   8.162  0.8204  3.2084 -0.5421
   31SAPC  H16Y 4221   5.419  -0.257   8.291 -1.2867  2.2431  0.0481
   31SAPC  C317 4222   5.630  -0.294   8.349  0.5345  0.5462  0.2257
   31SAPC  H17X 4223   5.730  -0.271   8.308 -0.0295  2.3205 -0.2260
   31SAPC  H17Y 4224   5.617  -0.404   8.339  0.1131  0.5368  0.8874
   31SAPC  C318 4225   5.610  -0.282   8.496  0.5053  0.9405  0.0152
   31SAPC  H18X 4226   5.660  -0.365   8.550  1.0804  0.4678 -1.2158
   31SAPC  H18Y 4227   5.503  -0.284   8.525  1.1534 -0.2107  2.4896
   31SAPC  H18Z 4228   5.651  -0.184   8.530 -1.0330  1.8091 -0.5624
   32SAPC     N 4229   0.019   2.085   6.020  0.7135  0.2955 -0.1911
   32SAPC   C12 4230   0.115   2.158   6.116 -0.0639 -0.1523 -0.1740
   32SAPC  H12A 4231   0.111   2.098   6.206  0.7648 -1.8462 -1.2379
   32SAPC  H12B 4232   0.072   2.254   6.138 -2.9446 -1.0408 -1.6949
   32SAPC   C13 4233  -0.000   2.155   5.889 -0.7928  0.6729 -0.4105
   32SAPC  H13A 4234   0.013   2.262   5.896 -0.7598  0.6252  0.3663
   32SAPC  H13B 4235   0.076   2.119   5.821  0.1240 -1.0772  1.4658
   32SAPC  H13C 4236  -0.097   2.139   5.846  1.0361 -0.8437 -4.1217
   32SAPC   C14 4237   0.067   1.948   5.985 -0.5164 -0.1775 -0.1158
   32SAPC  H14A 4238   0.167   1.963   5.946  0.6404 -1.7941  2.1434
   32SAPC  H14B 4239   0.058   1.878   6.066 -3.3267  0.6509  0.3192
   32SAPC  H14C 4240   0.017   1.894   5.906 -1.9100 -1.1650  1.4048
   32SAPC   C15 4241  -0.117   2.076   6.084  0.0069  0.0512 -0.2504
   32SAPC  H15A 4242  -0.170   2.023   6.006 -1.5269  2.2591 -0.7654
   32SAPC  H15B 4243  -0.125   2.000   6.160  1.0946  0.5750  0.3951
   32SAPC  H15C 4244  -0.155   2.172   6.116  2.8365  1.7845 -1.8819
   32SAPC   C11 4245   0.269   2.159   6.079 -0.7757 -0.2611  0.2605
   32SAPC  H11A 4246   0.312   2.218   6.163 -1.3551 -0.3577  0.6288
   32SAPC  H11B 4247   0.295   2.224   5.992  0.0567  0.2894  0.8999
   32SAPC     P 4248   0.357   1.941   6.198  0.0571  0.1245  0.1046
   32SAPC   O13 4249   0.332   1.800   6.162  0.8644 -0.0609 -0.8685
   32SAPC   O14 4250   0.487   1.978   6.266 -0.2318 -0.3383  0.4932
   32SAPC   O12 4251   0.328   2.028   6.071  0.3926  0.8053 -0.3261
   32SAPC   O11 4252   0.243   1.986   6.302  0.0463  0.3378  0.2863
   32SAPC    C1 4253   0.265   2.060   6.421  0.3275  0.3405 -0.1693
   32SAPC    HA 4254   0.341   2.140   6.412  1.3470 -0.3743  1.7770
   32SAPC    HB 4255   0.171   2.116   6.440 -0.1833 -0.2169 -0.9803
   32SAPC    C2 4256   0.288   1.957   6.533 -0.4768 -0.6410 -0.5209
   32SAPC    HS 4257   0.390   1.921   6.508 -0.8012 -1.5013 -0.6028
   32SAPC   O21 4258   0.183   1.860   6.540  0.1652  0.4211 -0.5289
   32SAPC   C21 4259   0.221   1.740   6.578  0.3896 -0.0438  0.4467
   32SAPC   O22 4260   0.337   1.709   6.598 -0.0389 -0.0764 -0.2726
   32SAPC   C22 4261   0.098   1.652   6.595 -0.2139 -0.3162 -0.0903
   32SAPC   H2R 4262   0.036   1.653   6.502  1.3912 -0.1093 -1.1754
   32SAPC   H2S 4263   0.132   1.550   6.622 -0.0207 -0.0775  0.5813
   32SAPC    C3 4264   0.287   2.045   6.671  0.2015  0.5776  0.1352
   32SAPC    HX 4265   0.180   2.072   6.686  0.4994  1.7837  0.1472
   32SAPC    HY 4266   0.349   2.136   6.661 -1.6806  1.8894  0.1016
   32SAPC   O31 4267   0.317   1.952   6.777 -0.0643  0.6561 -0.5985
   32SAPC   C31 4268   0.448   1.938   6.798  0.3049  0.7040 -0.2582
   32SAPC   O32 4269   0.540   2.001   6.741 -0.2308 -0.0373 -0.0450
   32SAPC   C32 4270   0.480   1.842   6.907  0.3775 -0.3473  0.2844
   32SAPC   H2X 4271   0.435   1.745   6.875 -0.6526  0.1518  0.1995
   32SAPC   H2Y 4272   0.431   1.879   7.000  1.9854 -0.5953  1.2360
   32SAPC   C23 4273  -0.003   1.705   6.699  0.2519  0.4817 -0.9827
   32SAPC   H3R 4274  -0.098   1.648   6.684  1.8751 -2.4107 -0.6790
   32SAPC   H3S 4275  -0.020   1.811   6.671  0.9320  0.1175 -2.8438
   32SAPC   C24 4276   0.029   1.677   6.845 -0.6674  0.4626  0.2731
   32SAPC   H4R 4277  -0.065   1.709   6.896  0.0026  1.9154  0.6148
   32SAPC   H4S 4278   0.111   1.750   6.863  1.9015 -2.3341  0.2018
   32SAPC   C25 4279   0.077   1.538   6.884  0.2191  0.1505  0.3285
   32SAPC   H5R 4280   0.025   1.458   6.829 -0.0429 -0.6183  1.6735
   32SAPC   C26 4281   0.180   1.508   6.969 -0.0379  0.1317  0.0761
   32SAPC   H6R 4282   0.205   1.401   6.977 -1.0591 -0.1703 -0.6358
   32SAPC   C27 4283   0.271   1.600   7.048  0.2511 -0.0477 -0.0531
   32SAPC   H7R 4284   0.263   1.704   7.011  1.0627  0.0693  0.0941
   32SAPC   H7S 4285   0.375   1.565   7.032  0.3206 -0.6572  1.6014
   32SAPC   C28 4286   0.216   1.590   7.192  0.0207 -0.1910 -0.6581
   32SAPC   H8R 4287   0.112   1.558   7.209  0.6668 -0.8748  2.2528
   32SAPC   C29 4288   0.293   1.619   7.306  0.9646 -0.0945  0.1455
   32SAPC   H9R 4289   0.247   1.615   7.406  0.4885 -0.9614 -0.1097
   32SAPC  C210 4290   0.434   1.666   7.315 -0.2687 -0.2451  0.0293
   32SAPC  H10R 4291   0.448   1.717   7.217 -0.0559 -2.0298 -0.8863
   32SAPC  H10S 4292   0.496   1.575   7.306 -0.5223 -0.3149 -1.1820
   32SAPC  C211 4293   0.474   1.763   7.427  0.0984  0.4124  0.3925
   32SAPC  H11R 4294   0.427   1.862   7.426 -0.0356  0.4312  3.6759
   32SAPC  C212 4295   0.544   1.733   7.535 -0.1136  0.2741 -0.9335
   32SAPC  H12R 4296   0.542   1.814   7.609 -1.6671 -0.1301 -0.5159
   32SAPC  C213 4297   0.601   1.598   7.569 -0.0981 -1.0484 -0.3661
   32SAPC  H13R 4298   0.664   1.563   7.485 -1.3255 -0.2967 -1.6177
   32SAPC  H13S 4299   0.516   1.528   7.581 -0.9369 -0.0764 -0.5206
   32SAPC  C214 4300   0.686   1.606   7.696  0.1076  0.2767 -0.1330
   32SAPC  H14R 4301   0.727   1.705   7.720  0.8159  0.1479 -0.8329
   32SAPC  C215 4302   0.716   1.494   7.777 -0.7231  0.2153  0.6349
   32SAPC  H15R 4303   0.776   1.507   7.868  1.0379  1.0481 -0.6074
   32SAPC  C216 4304   0.680   1.348   7.751 -0.3595  0.5633  0.0793
   32SAPC  H16R 4305   0.773   1.292   7.726  0.1905  1.3613  0.3065
   32SAPC  H16S 4306   0.613   1.335   7.663  0.6204 -0.5685 -0.5212
   32SAPC  C217 4307   0.623   1.275   7.872  0.2438  0.2425 -0.0494
   32SAPC  H17R 4308   0.594   1.172   7.840  4.3969 -1.3973  1.0614
   32SAPC  H17S 4309   0.534   1.327   7.912  0.1464  0.9573 -1.1863
   32SAPC  C218 4310   0.730   1.257   7.969 -0.7843  0.0890  0.6111
   32SAPC  H18R 4311   0.778   1.352   8.000 -2.3921  0.9010  0.6417
   32SAPC  H18S 4312   0.812   1.195   7.926  0.0469  1.0102  0.8449
   32SAPC  C219 4313   0.684   1.188   8.102 -0.0656 -0.4199  0.7804
   32SAPC  H19R 4314   0.586   1.230   8.136 -0.3223 -1.2719  1.1132
   32SAPC  H19S 4315   0.761   1.209   8.179  1.8551 -1.2332 -0.8565
   32SAPC  C220 4316   0.667   1.040   8.092 -0.1146 -0.9413  0.0024
   32SAPC  H20R 4317   0.588   1.020   8.017  0.4669  0.3227 -0.9711
   32SAPC  H20S 4318   0.643   0.990   8.189 -3.2571  1.3669  0.4986
   32SAPC  H20T 4319   0.756   0.988   8.051 -1.0407 -0.6498 -2.4439
   32SAPC   C33 4320   0.625   1.838   6.937 -0.1574 -0.0713  0.0612
   32SAPC   H3X 4321   0.667   1.940   6.947  2.9470 -1.2838 -0.1252
   32SAPC   H3Y 4322   0.673   1.790   6.849  1.1708  1.3169  0.0161
   32SAPC   C34 4323   0.660   1.776   7.066  0.3635 -0.2215 -0.5196
   32SAPC   H4X 4324   0.623   1.672   7.074  0.1142 -0.0496  0.7711
   32SAPC   H4Y 4325   0.609   1.827   7.151  0.5669 -0.8202 -0.0299
   32SAPC   C35 4326   0.812   1.763   7.093  0.2046 -0.8350  0.1252
   32SAPC   H5X 4327   0.836   1.871   7.104 -1.7439 -0.2903 -0.7702
   32SAPC   H5Y 4328   0.865   1.712   7.009 -0.2844 -0.0250 -0.6853
   32SAPC   C36 4329   0.834   1.695   7.220 -0.3913  0.4864 -0.2709
   32SAPC   H6X 4330   0.801   1.589   7.216 -0.8009  0.6039 -0.1101
   32SAPC   H6Y 4331   0.773   1.747   7.298 -0.6667 -2.0420  1.2508
   32SAPC   C37 4332   0.975   1.717   7.269 -0.2583  0.7601 -0.5363
   32SAPC   H7X 4333   0.996   1.825   7.254 -0.6539  0.9370  0.1381
   32SAPC   H7Y 4334   1.051   1.654   7.218  0.7484  4.2497 -3.5988
   32SAPC   C38 4335   0.977   1.687   7.418 -0.0490  0.3999  0.0868
   32SAPC   H8X 4336   0.946   1.582   7.432 -0.1907  0.5554  1.0048
   32SAPC   H8Y 4337   0.903   1.748   7.474 -2.3853 -0.7542 -1.6624
   32SAPC   C39 4338   1.112   1.706   7.491  1.0672 -0.2195  0.3469
   32SAPC   H9X 4339   1.127   1.816   7.488  2.2332 -0.4035 -0.6501
   32SAPC   H9Y 4340   1.190   1.656   7.431 -0.7634 -1.7302 -0.8555
   32SAPC  C310 4341   1.121   1.669   7.638 -0.2852  0.2034 -0.5132
   32SAPC  H10X 4342   1.033   1.610   7.669  1.0449 -1.1629  0.7059
   32SAPC  H10Y 4343   1.109   1.762   7.698 -1.5376  1.8023 -3.1529
   32SAPC  C311 4344   1.242   1.595   7.688 -0.1693 -0.9284 -0.1190
   32SAPC  H11X 4345   1.336   1.638   7.646 -0.4352  0.5738  0.8024
   32SAPC  H11Y 4346   1.254   1.491   7.652  2.3772  0.0308 -2.2383
   32SAPC  C312 4347   1.260   1.603   7.845 -0.2374  0.2084 -0.5941
   32SAPC  H12X 4348   1.279   1.708   7.875 -0.1928 -0.6848  2.6728
   32SAPC  H12Y 4349   1.349   1.539   7.868 -0.2766  0.1546 -0.5925
   32SAPC  C313 4350   1.131   1.570   7.920  0.1133 -0.1337 -0.3546
   32SAPC  H13X 4351   1.067   1.492   7.873 -1.1938  0.3664  0.5621
   32SAPC  H13Y 4352   1.057   1.652   7.911 -0.9653 -1.1614 -1.0424
   32SAPC  C314 4353   1.156   1.527   8.064 -1.1151 -0.1561 -0.4755
   32SAPC  H14X 4354   1.191   1.615   8.123  2.3572 -1.7385 -0.0742
   32SAPC  H14Y 4355   1.244   1.460   8.072  0.0251  1.3760  0.2443
   32SAPC  C315 4356   1.035   1.454   8.134  0.2537  0.0075  0.3960
   32SAPC  H15X 4357   1.019   1.369   8.064  1.1728  0.1968 -0.0499
   32SAPC  H15Y 4358   0.944   1.518   8.128  0.0518 -0.3476 -0.4894
   32SAPC  C316 4359   1.077   1.409   8.268  0.0793  0.3988  0.0101
   32SAPC  H16X 4360   1.095   1.489   8.342 -1.8493  1.7453 -0.9458
   32SAPC  H16Y 4361   1.170   1.349   8.254  0.4720  0.9844  0.1287
   32SAPC  C317 4362   0.973   1.318   8.340  0.1333  0.0597  0.3682
   32SAPC  H17X 4363   1.011   1.274   8.434 -0.3353 -0.2935  0.3920
   32SAPC  H17Y 4364   0.948   1.234   8.272 -0.9263  0.2597  0.5031
   32SAPC  C318 4365   0.834   1.383   8.377 -0.0885 -0.3158 -0.3119
   32SAPC  H18X 4366   0.769   1.308   8.426  2.3318 -1.0367  1.8937
   32SAPC  H18Y 4367   0.796   1.424   8.281  1.3041  0.6931 -0.4449
   32SAPC  H18Z 4368   0.848   1.472   8.441  0.7616  0.6250 -1.7649
   33POPC     N 4369   3.839   2.258  10.750 -0.2952 -0.5410 -0.0991
   33POPC   C12 4370   3.823   2.254  10.602  0.1705  0.3026  0.0686
   33POPC  H12A 4371   3.897   2.186  10.562 -0.6859 -1.2268  1.0110
   33POPC  H12B 4372   3.841   2.353  10.563 -0.5693  0.7363  0.8163
   33POPC   C13 4373   3.817   2.130  10.822  0.0882 -0.5566 -0.1722
   33POPC  H13A 4374   3.730   2.072  10.795  0.2630 -0.3147 -1.2979
   33POPC  H13B 4375   3.900   2.063  10.807  0.5308 -0.0922  0.2013
   33POPC  H13C 4376   3.806   2.148  10.928 -2.0596  0.1406 -0.4888
   33POPC   C14 4377   3.977   2.305  10.786 -0.9304  1.1504  0.2166
   33POPC  H14A 4378   4.043   2.229  10.747 -0.7556  1.3825  0.0514
   33POPC  H14B 4379   4.006   2.392  10.728  0.7485  0.0562 -0.6337
   33POPC  H14C 4380   3.983   2.314  10.893  1.4524  0.3946  0.1690
   33POPC   C15 4381   3.749   2.367  10.802 -1.0253 -0.2087  0.6596
   33POPC  H15A 4382   3.659   2.348  10.745  0.3135 -3.0569 -0.5833
   33POPC  H15B 4383   3.781   2.457  10.752  0.5347 -1.3510 -0.4507
   33POPC  H15C 4384   3.741   2.374  10.909  0.7301 -1.1975  0.8676
   33POPC   C11 4385   3.682   2.200  10.544  0.0592 -0.0956 -0.5356
   33POPC  H11A 4386   3.655   2.100  10.585 -2.1654  1.1684  1.2410
   33POPC  H11B 4387   3.706   2.174  10.438  1.3257 -4.6266  0.7619
   33POPC     P 4388   3.568   2.429  10.480  0.1162  0.0630 -0.1447
   33POPC   O13 4389   3.622   2.538  10.564 -0.1446  0.4314  0.0044
   33POPC   O14 4390   3.433   2.447  10.415  0.1327 -0.0371 -0.0101
   33POPC   O12 4391   3.573   2.292  10.563  0.5038  0.3746  0.3399
   33POPC   O11 4392   3.666   2.399  10.356  0.7666 -0.3023  0.2132
   33POPC    C1 4393   3.735   2.514  10.304 -0.2969 -0.7038 -0.5322
   33POPC    HA 4394   3.670   2.604  10.298  1.8935  0.8886 -0.9045
   33POPC    HB 4395   3.812   2.547  10.377 -1.5970 -1.4564  1.2373
   33POPC    C2 4396   3.814   2.468  10.178  0.2845 -0.3266  0.0746
   33POPC    HS 4397   3.738   2.440  10.103  0.0795  2.2031 -0.7231
   33POPC   O21 4398   3.890   2.347  10.189 -0.3281 -0.5709  1.1022
   33POPC   C21 4399   3.982   2.323  10.284  0.2049 -0.1785  0.6689
   33POPC   O22 4400   4.016   2.397  10.373 -0.4021 -0.1100 -0.1176
   33POPC   C22 4401   4.023   2.171  10.271 -0.3180 -0.2238 -0.9402
   33POPC   H2R 4402   3.922   2.124  10.274  0.0132 -0.9404 -1.0733
   33POPC   H2S 4403   4.074   2.149  10.367 -0.0690  1.8426 -0.5733
   33POPC    C3 4404   3.896   2.585  10.121  0.2256  0.3665  0.9565
   33POPC    HX 4405   3.968   2.626  10.196 -1.5651  0.7470  2.5033
   33POPC    HY 4406   3.833   2.669  10.086  1.8507 -0.1422 -3.5174
   33POPC   O31 4407   3.951   2.531  10.001  0.0454  0.4036  0.2419
   33POPC   C31 4408   4.084   2.531   9.979  0.4844  0.2642  0.5669
   33POPC   O32 4409   4.169   2.587  10.044  0.6662  0.0041  0.3008
   33POPC   C32 4410   4.101   2.442   9.853 -0.0254 -0.2487  1.1264
   33POPC   H2X 4411   4.081   2.509   9.766 -0.6868 -1.6956  0.1408
   33POPC   H2Y 4412   4.025   2.361   9.849  0.9179 -1.0472 -1.2372
   33POPC   C23 4413   4.114   2.137  10.153  0.5301 -0.1990 -0.0731
   33POPC   H3R 4414   4.195   2.211  10.137 -1.6578  1.9914 -1.2781
   33POPC   H3S 4415   4.055   2.127  10.060  0.5959  1.0628 -0.2536
   33POPC   C24 4416   4.178   1.997  10.174 -0.4307  0.6991  0.7417
   33POPC   H4R 4417   4.093   1.936  10.213 -0.8740  1.4139  0.9057
   33POPC   H4S 4418   4.249   1.990  10.259 -1.1885 -2.4298  1.1926
   33POPC   C25 4419   4.233   1.919  10.052  0.2368 -0.0188 -0.6769
   33POPC   H5R 4420   4.151   1.928   9.977 -0.4148 -0.3617 -0.0123
   33POPC   H5S 4421   4.257   1.813  10.077  0.9244 -0.3328 -2.5750
   33POPC   C26 4422   4.359   1.983   9.990  0.3894 -0.2206 -1.2838
   33POPC   H6R 4423   4.431   1.978  10.075 -0.8801  2.4268  0.0002
   33POPC   H6S 4424   4.334   2.091   9.982 -0.7101 -0.4259 -0.7712
   33POPC   C27 4425   4.410   1.911   9.867 -0.0514 -0.0972 -0.0567
   33POPC   H7R 4426   4.335   1.934   9.788  0.7279  1.8118 -0.2507
   33POPC   H7S 4427   4.422   1.805   9.898  0.2779  0.0475  0.3117
   33POPC   C28 4428   4.543   1.971   9.816  0.1176 -0.4430  0.8464
   33POPC   H8R 4429   4.627   1.965   9.889  2.1163  1.9598 -1.1810
   33POPC   H8S 4430   4.530   2.081   9.816  0.2402 -0.4296  0.6768
   33POPC   C29 4431   4.589   1.899   9.692 -0.3017  0.1059 -0.7401
   33POPC   H91 4432   4.563   1.792   9.693 -0.8039  0.2338  0.1009
   33POPC  C210 4433   4.640   1.954   9.583 -0.3467  0.2858  0.9943
   33POPC  H101 4434   4.689   1.895   9.505  2.0280 -1.8329  3.9568
   33POPC  C211 4435   4.661   2.105   9.561 -0.2705 -0.1862  0.0205
   33POPC  H11R 4436   4.751   2.130   9.501  0.3191 -0.5186  0.7548
   33POPC  H11S 4437   4.677   2.159   9.657 -1.5312 -1.0673  0.7375
   33POPC  C212 4438   4.541   2.157   9.488  0.2306  0.2443 -0.1445
   33POPC  H12R 4439   4.558   2.267   9.478 -0.5727  0.2329 -1.8346
   33POPC  H12S 4440   4.445   2.143   9.542 -0.1524 -2.7261 -1.4971
   33POPC  C213 4441   4.534   2.114   9.338 -0.0594  0.8464 -0.3572
   33POPC  H13R 4442   4.511   2.005   9.336 -1.9188  1.1045  2.6975
   33POPC  H13S 4443   4.640   2.125   9.306  0.7895  0.7515  2.2980
   33POPC  C214 4444   4.447   2.203   9.248 -0.2235 -0.9223 -0.0026
   33POPC  H14R 4445   4.476   2.310   9.243 -1.3676 -0.5951  0.0951
   33POPC  H14S 4446   4.347   2.200   9.296 -0.5242  0.9726 -0.4509
   33POPC  C215 4447   4.436   2.157   9.103 -0.5143 -0.5270  0.3162
   33POPC  H15R 4448   4.338   2.192   9.064 -2.1202 -2.9562  1.9317
   33POPC  H15S 4449   4.430   2.046   9.106 -0.3513 -0.5253  0.7998
   33POPC  C216 4450   4.561   2.202   9.023 -0.3581 -0.4148 -0.0087
   33POPC  H16R 4451   4.657   2.162   9.062  0.1864 -0.7749 -1.6572
   33POPC  H16S 4452   4.560   2.312   9.011  1.2604 -0.3823  0.1479
   33POPC  C217 4453   4.558   2.145   8.878  0.3066 -0.3640 -0.1857
   33POPC  H17R 4454   4.535   2.036   8.871 -1.7734  0.0457 -0.1051
   33POPC  H17S 4455   4.649   2.169   8.820  1.3810 -0.1156  1.5895
   33POPC  C218 4456   4.447   2.215   8.797  0.7726 -0.6760  0.0884
   33POPC  H18R 4457   4.444   2.177   8.693 -2.2010  1.0791 -0.5302
   33POPC  H18S 4458   4.446   2.326   8.789 -2.1677 -0.5415  1.3032
   33POPC  H18T 4459   4.343   2.191   8.830  0.8692 -1.2899 -0.0478
   33POPC   C33 4460   4.239   2.380   9.842 -0.3242  0.1805 -0.6197
   33POPC   H3X 4461   4.282   2.350   9.939 -0.3041 -0.6297 -0.8775
   33POPC   H3Y 4462   4.318   2.434   9.786 -1.8804  2.0888 -1.0513
   33POPC   C34 4463   4.224   2.252   9.762  0.9828  0.8406  0.2429
   33POPC   H4X 4464   4.169   2.176   9.822  3.8252 -0.8554  0.7527
   33POPC   H4Y 4465   4.323   2.206   9.742 -0.2830 -0.9247 -2.3398
   33POPC   C35 4466   4.167   2.268   9.613  0.7185 -0.2288  0.3687
   33POPC   H5X 4467   4.056   2.268   9.612  0.6947 -0.8453  1.5709
   33POPC   H5Y 4468   4.189   2.175   9.557  0.1987 -0.0792 -0.0847
   33POPC   C36 4469   4.224   2.389   9.534 -0.4320 -0.1568 -0.3537
   33POPC   H6X 4470   4.335   2.392   9.531 -0.2997 -0.3709  2.7032
   33POPC   H6Y 4471   4.194   2.484   9.582 -0.2180  0.4799 -1.4836
   33POPC   C37 4472   4.165   2.409   9.395  0.3957  0.7634 -0.5886
   33POPC   H7X 4473   4.056   2.430   9.389 -0.0998 -1.4850  0.0241
   33POPC   H7Y 4474   4.179   2.314   9.339 -0.5974  0.1678  0.1468
   33POPC   C38 4475   4.241   2.523   9.329  0.3751 -0.1876  0.1522
   33POPC   H8X 4476   4.348   2.498   9.316  0.6806 -0.0547  2.2620
   33POPC   H8Y 4477   4.226   2.615   9.389 -0.0012  0.4554 -0.9053
   33POPC   C39 4478   4.198   2.559   9.186 -0.0567 -0.0842  0.1086
   33POPC   H9X 4479   4.273   2.637   9.160  1.1801 -1.3167 -0.0835
   33POPC   H9Y 4480   4.097   2.604   9.179  0.0143  0.1787  0.7187
   33POPC  C310 4481   4.190   2.446   9.092  0.0430 -0.2450  0.8255
   33POPC  H10X 4482   4.128   2.365   9.136 -1.6420 -0.5836 -1.9844
   33POPC  H10Y 4483   4.291   2.401   9.081 -0.9081 -2.3954  0.4686
   33POPC  C311 4484   4.126   2.493   8.957 -0.1696 -0.4943 -0.1080
   33POPC  H11X 4485   4.202   2.567   8.923  2.4481 -2.0241  2.2461
   33POPC  H11Y 4486   4.029   2.538   8.984 -0.5564 -1.4369  0.0952
   33POPC  C312 4487   4.106   2.400   8.836 -0.0859  0.1513 -0.0881
   33POPC  H12X 4488   4.207   2.368   8.804 -0.2860 -1.4988  0.8212
   33POPC  H12Y 4489   4.049   2.453   8.757 -1.5236 -2.2839 -0.7453
   33POPC  C313 4490   4.020   2.277   8.870  0.3073  0.7035 -0.0409
   33POPC  H13X 4491   3.926   2.318   8.912 -0.6514  0.7733 -2.2087
   33POPC  H13Y 4492   4.061   2.221   8.958 -0.3811  0.3084  0.0320
   33POPC  C314 4493   3.989   2.187   8.749  0.0485  0.5267  0.1509
   33POPC  H14X 4494   3.960   2.092   8.799  2.0779  0.6015  1.5403
   33POPC  H14Y 4495   4.078   2.166   8.686 -0.0477 -3.3976  1.1672
   33POPC  C315 4496   3.875   2.227   8.659 -0.2617  0.1614  0.6620
   33POPC  H15X 4497   3.904   2.316   8.600  0.6387 -0.1518  0.6168
   33POPC  H15Y 4498   3.781   2.244   8.716  0.3244  0.5435  1.5227
   33POPC  C316 4499   3.849   2.113   8.554  0.1733 -0.0624  0.8463
   33POPC  H16X 4500   3.799   2.030   8.608 -0.8418  0.2424  0.3911
   33POPC  H16Y 4501   3.947   2.085   8.510 -0.1432  1.5803 -0.9925
   33POPC  H16Z 4502   3.785   2.148   8.471 -0.0080 -0.7354  0.7019
   34POPC     N 4503   2.783   2.112  10.955  0.1475  0.2888  0.0493
   34POPC   C12 4504   2.899   2.208  10.972 -0.9534  0.0025  0.6265
   34POPC  H12A 4505   2.930   2.210  11.075  0.0424 -0.1822  0.3479
   34POPC  H12B 4506   2.872   2.309  10.945 -0.0689 -0.2641 -1.3528
   34POPC   C13 4507   2.741   2.087  10.810 -0.3054  0.7932  0.3411
   34POPC  H13A 4508   2.694   2.179  10.777  2.5236  1.2755 -2.6595
   34POPC  H13B 4509   2.827   2.073  10.747  0.4304  1.0348  1.2875
   34POPC  H13C 4510   2.689   1.995  10.790  2.7438 -0.9190 -0.0213
   34POPC   C14 4511   2.829   1.973  11.009 -0.3058 -0.6189  1.1893
   34POPC  H14A 4512   2.757   1.895  10.989  0.4270 -0.5176 -2.0045
   34POPC  H14B 4513   2.916   1.931  10.960  0.2375  0.7996  0.9099
   34POPC  H14C 4514   2.863   1.985  11.111 -1.7478  0.2110  1.5874
   34POPC   C15 4515   2.668   2.153  11.037  0.9245 -0.0988  0.0221
   34POPC  H15A 4516   2.695   2.155  11.142  1.8839 -0.6373 -0.2111
   34POPC  H15B 4517   2.582   2.092  11.014 -0.7218  2.1533  0.0744
   34POPC  H15C 4518   2.638   2.254  11.012  2.2237  0.9826  2.6735
   34POPC   C11 4519   3.031   2.182  10.890 -0.6458  0.3266  0.5547
   34POPC  H11A 4520   3.058   2.076  10.877  3.3175  0.9814  2.7278
   34POPC  H11B 4521   3.112   2.220  10.956 -1.3432  0.4708  1.3535
   34POPC     P 4522   3.097   2.385  10.744 -0.4136  0.1058  0.4307
   34POPC   O13 4523   3.242   2.355  10.722  0.4496  0.1738  0.5093
   34POPC   O14 4524   3.056   2.466  10.857  0.1400  0.3342 -0.5895
   34POPC   O12 4525   3.027   2.243  10.761 -0.1172 -0.2225 -0.4033
   34POPC   O11 4526   3.039   2.450  10.611  0.4450 -0.3100  0.3896
   34POPC    C1 4527   2.900   2.428  10.584 -0.4518  0.3972 -0.0130
   34POPC    HA 4528   2.831   2.472  10.658 -1.7295 -2.2031  0.4146
   34POPC    HB 4529   2.871   2.321  10.572 -0.3421  0.6133 -2.6360
   34POPC    C2 4530   2.868   2.496  10.438  0.0614  0.2304 -0.0500
   34POPC    HS 4531   2.762   2.473  10.417  0.6416 -1.4999 -1.1817
   34POPC   O21 4532   2.951   2.454  10.326  0.0809 -0.4500 -0.1141
   34POPC   C21 4533   2.930   2.343  10.265  0.0737 -0.1002 -0.5979
   34POPC   O22 4534   2.845   2.260  10.289 -0.2594  0.2515  0.0687
   34POPC   C22 4535   3.020   2.351  10.136 -0.1121 -0.1628 -0.2499
   34POPC   H2R 4536   3.128   2.356  10.159 -0.0275 -2.6282  0.1356
   34POPC   H2S 4537   2.977   2.435  10.079  0.1335  0.8594  1.0570
   34POPC    C3 4538   2.881   2.652  10.448  0.3986  0.2788 -0.2127
   34POPC    HX 4539   2.980   2.687  10.485 -0.8896  0.4385  3.2926
   34POPC    HY 4540   2.813   2.685  10.530 -1.2473  0.0928 -1.4941
   34POPC   O31 4541   2.835   2.721  10.328  0.2373  0.6862  1.0489
   34POPC   C31 4542   2.936   2.757  10.250 -0.3033 -0.3526  0.5587
   34POPC   O32 4543   3.052   2.764  10.280 -0.2167  0.3753 -0.6176
   34POPC   C32 4544   2.882   2.800  10.115  0.0640 -1.2573  0.5599
   34POPC   H2X 4545   2.808   2.730  10.071  0.5799 -0.5257 -1.5178
   34POPC   H2Y 4546   2.966   2.810  10.043  0.8969  0.4608  1.7237
   34POPC   C23 4547   2.994   2.231  10.046 -0.1175 -0.1473  0.2825
   34POPC   H3R 4548   2.889   2.195  10.039  0.1559 -0.5656 -1.9053
   34POPC   H3S 4549   3.040   2.143  10.095  1.4813  0.4189 -0.1693
   34POPC   C24 4550   3.056   2.262   9.908  0.5647  0.3689 -0.2765
   34POPC   H4R 4551   3.073   2.170   9.847  1.0103 -0.5582  1.2362
   34POPC   H4S 4552   3.157   2.307   9.920  0.2690  1.2492 -1.0010
   34POPC   C25 4553   2.968   2.365   9.833 -0.3077 -0.4653  0.0739
   34POPC   H5R 4554   2.983   2.469   9.869  0.7850  0.0583 -1.8595
   34POPC   H5S 4555   2.862   2.341   9.853 -0.2143  0.7358  2.1471
   34POPC   C26 4556   3.000   2.364   9.681  0.2058 -0.7004  0.5215
   34POPC   H6R 4557   3.004   2.258   9.647 -0.1043 -0.4172 -0.4067
   34POPC   H6S 4558   3.104   2.399   9.665 -0.3215 -0.9011 -4.3016
   34POPC   C27 4559   2.922   2.466   9.597 -0.2488  0.2498 -0.1307
   34POPC   H7R 4560   2.967   2.565   9.619  1.7226 -1.2589  3.0163
   34POPC   H7S 4561   2.824   2.452   9.647  0.0391  0.8093  0.6043
   34POPC   C28 4562   2.921   2.424   9.448 -0.1989 -0.0147  0.1386
   34POPC   H8R 4563   2.902   2.315   9.457  0.0389  0.0130  0.9962
   34POPC   H8S 4564   3.019   2.441   9.399 -0.3171 -0.9175 -0.4301
   34POPC   C29 4565   2.804   2.492   9.378 -0.3479  0.1262 -0.5834
   34POPC   H91 4566   2.708   2.485   9.431 -1.3046  0.9704 -2.1924
   34POPC  C210 4567   2.820   2.580   9.277 -0.3878 -0.7866  0.5203
   34POPC  H101 4568   2.728   2.629   9.241 -0.0473 -1.1123 -0.8008
   34POPC  C211 4569   2.945   2.611   9.196  0.1736  0.6044 -0.2511
   34POPC  H11R 4570   3.037   2.571   9.243 -0.1274 -1.4196 -1.3606
   34POPC  H11S 4571   2.955   2.722   9.189  1.8801  0.7676  3.4569
   34POPC  C212 4572   2.929   2.550   9.061 -0.2784  0.3709  0.2721
   34POPC  H12R 4573   2.822   2.548   9.032  0.1751 -0.1227 -1.4245
   34POPC  H12S 4574   2.954   2.442   9.065 -0.7274  0.3288  3.4322
   34POPC  C213 4575   3.024   2.629   8.962 -0.0687  0.2422 -0.2608
   34POPC  H13R 4576   3.115   2.630   9.025  0.7235 -0.7309 -1.3578
   34POPC  H13S 4577   2.988   2.733   8.949  0.9423  0.6474  0.1213
   34POPC  C214 4578   3.042   2.551   8.830  0.0095 -0.0946 -1.1738
   34POPC  H14R 4579   2.941   2.532   8.789 -0.8373  1.8657 -0.0727
   34POPC  H14S 4580   3.081   2.449   8.848 -0.9861 -0.1498  0.7264
   34POPC  C215 4581   3.123   2.627   8.721 -0.1871 -0.1058  0.6639
   34POPC  H15R 4582   3.143   2.552   8.641 -2.6311 -0.6424  0.5153
   34POPC  H15S 4583   3.218   2.661   8.768  0.9079  0.0352 -1.5975
   34POPC  C216 4584   3.056   2.750   8.661 -0.8378 -0.0619 -0.0926
   34POPC  H16R 4585   3.125   2.789   8.583 -0.1721  1.2232  1.1046
   34POPC  H16S 4586   3.044   2.832   8.736  1.4799  0.4279 -0.1964
   34POPC  C217 4587   2.916   2.710   8.600 -0.4966 -0.6801 -0.8363
   34POPC  H17R 4588   2.892   2.796   8.534  1.0300 -1.7704 -2.8687
   34POPC  H17S 4589   2.847   2.705   8.687  0.7206 -2.9279  0.0332
   34POPC  C218 4590   2.898   2.579   8.521  0.0512 -0.0457  0.7670
   34POPC  H18R 4591   2.975   2.563   8.442  1.0181  2.6386  1.1023
   34POPC  H18S 4592   2.800   2.575   8.470  2.0521  0.2505 -3.3347
   34POPC  H18T 4593   2.889   2.488   8.585  1.4425 -0.2974  0.6264
   34POPC   C33 4594   2.809   2.933  10.123  0.0811  0.4753 -0.1670
   34POPC   H3X 4595   2.885   3.002  10.167 -1.2168  1.1900  0.9807
   34POPC   H3Y 4596   2.721   2.924  10.190 -0.3404 -0.0916 -0.7858
   34POPC   C34 4597   2.759   2.995   9.992  0.3290 -0.3988 -0.9262
   34POPC   H4X 4598   2.846   3.000   9.924  0.6341  0.6224 -0.4671
   34POPC   H4Y 4599   2.737   3.099  10.024  4.4953  0.7197 -1.4035
   34POPC   C35 4600   2.638   2.935   9.917 -0.3903  0.2956  0.0460
   34POPC   H5X 4601   2.544   2.948   9.974 -0.4473 -3.1291  0.8265
   34POPC   H5Y 4602   2.653   2.825   9.905 -1.5746  0.2984 -1.5555
   34POPC   C36 4603   2.613   3.003   9.781 -0.4490  0.1888  0.4442
   34POPC   H6X 4604   2.626   3.111   9.803 -0.0867  0.3840 -0.7110
   34POPC   H6Y 4605   2.506   2.990   9.752  0.1720 -2.2607 -0.8371
   34POPC   C37 4606   2.713   2.965   9.672 -0.4157 -0.6825  0.5396
   34POPC   H7X 4607   2.735   2.858   9.651  1.6690  0.2661 -2.5497
   34POPC   H7Y 4608   2.809   3.005   9.713 -1.6343  2.1536  0.7225
   34POPC   C38 4609   2.686   3.038   9.542  1.0940  0.4224 -0.7633
   34POPC   H8X 4610   2.713   3.146   9.532  1.4480  0.3329 -0.7801
   34POPC   H8Y 4611   2.577   3.037   9.521  0.5036 -0.1411  2.1544
   34POPC   C39 4612   2.747   2.969   9.414 -0.4375  0.8608  0.6085
   34POPC   H9X 4613   2.730   2.860   9.429  0.6706  0.6864  0.6652
   34POPC   H9Y 4614   2.856   2.990   9.415 -0.3374  0.3553  0.7377
   34POPC  C310 4615   2.682   3.002   9.282  0.1766  0.4470 -0.2793
   34POPC  H10X 4616   2.668   3.111   9.300  1.8425  0.8240 -1.2592
   34POPC  H10Y 4617   2.580   2.957   9.276 -0.7312  2.5185 -1.1213
   34POPC  C311 4618   2.766   2.970   9.162 -0.3535  0.3227  0.1561
   34POPC  H11X 4619   2.780   2.860   9.152 -0.0793  0.3432  0.3125
   34POPC  H11Y 4620   2.870   3.009   9.169 -0.1884  0.1191 -1.0424
   34POPC  C312 4621   2.707   3.017   9.026 -0.7917 -0.1377 -0.6101
   34POPC  H12X 4622   2.658   3.113   9.053 -1.1803 -1.2222  2.7866
   34POPC  H12Y 4623   2.617   2.960   8.996 -1.1394 -0.0964  0.3363
   34POPC  C313 4624   2.813   3.021   8.916 -0.1620  0.6526 -0.6407
   34POPC  H13X 4625   2.850   2.918   8.897 -1.9831 -0.3204  0.8774
   34POPC  H13Y 4626   2.895   3.080   8.961 -1.4118  1.1754  1.0019
   34POPC  C314 4627   2.765   3.093   8.789  0.4048  0.2623 -0.5676
   34POPC  H14X 4628   2.699   3.177   8.816 -1.3527 -0.3145 -2.9211
   34POPC  H14Y 4629   2.702   3.019   8.735 -0.7927  0.1532  0.9680
   34POPC  C315 4630   2.895   3.137   8.709  0.2881  0.0265 -0.1625
   34POPC  H15X 4631   2.939   3.038   8.687  1.1828 -0.1214  2.1384
   34POPC  H15Y 4632   2.960   3.196   8.778 -1.0076 -0.3694  1.4260
   34POPC  C316 4633   2.867   3.221   8.579  0.7799  0.0305 -0.3868
   34POPC  H16X 4634   2.831   3.323   8.605 -4.7927 -1.3545 -2.0107
   34POPC  H16Y 4635   2.786   3.164   8.528  1.2188 -0.4606 -0.5374
   34POPC  H16Z 4636   2.960   3.226   8.519 -0.3540  2.8194 -1.9879
   35POPC     N 4637   2.102   6.750  11.073 -0.6676 -0.4594 -0.1051
   35POPC   C12 4638   2.045   6.880  11.024  0.0754 -0.2482  0.2668
   35POPC  H12A 4639   1.972   6.875  10.945  0.0268  2.8672  0.0543
   35POPC  H12B 4640   2.132   6.931  10.985  1.4909 -1.1751  2.1267
   35POPC   C13 4641   2.169   6.683  10.959 -0.1758  0.5217 -1.0580
   35POPC  H13A 4642   2.241   6.754  10.919  0.6070  0.1750 -0.2640
   35POPC  H13B 4643   2.206   6.584  10.979 -0.9836 -0.0187 -2.1997
   35POPC  H13C 4644   2.096   6.675  10.879 -1.9504  0.3091  0.5397
   35POPC   C14 4645   2.207   6.775  11.178  0.2209  0.1161  0.0732
   35POPC  H14A 4646   2.178   6.856  11.242  1.5172  0.3371  0.3830
   35POPC  H14B 4647   2.229   6.684  11.232  0.7960 -0.8494 -1.7429
   35POPC  H14C 4648   2.305   6.790  11.136 -0.8512  1.5680 -1.9421
   35POPC   C15 4649   1.991   6.671  11.136 -0.0231 -0.0037  0.3745
   35POPC  H15A 4650   1.902   6.688  11.077  0.1127  0.0495  0.1866
   35POPC  H15B 4651   1.981   6.705  11.238 -0.5738 -1.9884  1.0083
   35POPC  H15C 4652   2.019   6.567  11.144 -1.9534 -0.6096 -0.6052
   35POPC   C11 4653   1.999   6.987  11.123  0.5224  1.1435  0.5082
   35POPC  H11A 4654   1.909   6.962  11.185 -0.4000 -2.1419 -2.0303
   35POPC  H11B 4655   1.954   7.060  11.053 -0.2230 -1.3639 -1.7041
   35POPC     P 4656   2.207   7.143  11.178  0.0333  0.0870 -0.0153
   35POPC   O13 4657   2.339   7.098  11.224  0.1710  0.0771  0.1360
   35POPC   O14 4658   2.163   7.278  11.220 -0.6675  0.1192 -0.4396
   35POPC   O12 4659   2.093   7.043  11.212 -0.1460 -0.2836 -0.1183
   35POPC   O11 4660   2.211   7.134  11.022 -0.2073 -0.6300 -0.8202
   35POPC    C1 4661   2.172   7.231  10.929 -0.3051  0.1125  0.9362
   35POPC    HA 4662   2.244   7.316  10.922  0.3108 -0.5882 -1.6181
   35POPC    HB 4663   2.075   7.278  10.956 -0.1865  1.5074 -0.9362
   35POPC    C2 4664   2.167   7.166  10.784  0.4702  0.1833  0.2880
   35POPC    HS 4665   2.082   7.094  10.784 -1.1635  2.0158 -2.0393
   35POPC   O21 4666   2.302   7.114  10.746  0.8482 -0.0107  0.0907
   35POPC   C21 4667   2.301   6.982  10.762 -0.0585  0.1309 -0.2115
   35POPC   O22 4668   2.213   6.909  10.809 -0.1035 -0.6017 -0.5652
   35POPC   C22 4669   2.429   6.917  10.703 -0.3893  0.0576  0.3868
   35POPC   H2R 4670   2.500   6.911  10.788 -0.4292  0.1334  0.4268
   35POPC   H2S 4671   2.472   6.984  10.625 -5.6170  0.4009 -2.4775
   35POPC    C3 4672   2.135   7.278  10.681 -0.0064  0.1415  0.1089
   35POPC    HX 4673   2.224   7.344  10.672  0.4843 -0.9609 -4.0358
   35POPC    HY 4674   2.041   7.327  10.713 -0.6047 -2.3617  2.4022
   35POPC   O31 4675   2.111   7.221  10.556  0.3907 -0.1795 -0.5689
   35POPC   C31 4676   2.093   7.308  10.458 -0.2341  0.0611  0.0441
   35POPC   O32 4677   2.072   7.426  10.472 -0.5087  0.0429  0.2609
   35POPC   C32 4678   2.105   7.228  10.325 -0.9082 -0.8452 -0.3795
   35POPC   H2X 4679   2.019   7.158  10.329 -0.1545 -1.7209  0.9851
   35POPC   H2Y 4680   2.192   7.159  10.336  0.0357  0.0352 -2.0445
   35POPC   C23 4681   2.402   6.779  10.632 -0.6116  0.7573 -0.1907
   35POPC   H3R 4682   2.333   6.719  10.695 -0.8853 -0.0235 -1.2155
   35POPC   H3S 4683   2.499   6.727  10.620 -1.6979 -1.6304  1.0498
   35POPC   C24 4684   2.339   6.798  10.495  0.6447 -0.5170  0.7269
   35POPC   H4R 4685   2.248   6.863  10.497  0.9115 -0.1885  3.4876
   35POPC   H4S 4686   2.305   6.696  10.466  0.2705 -1.3725  4.0406
   35POPC   C25 4687   2.433   6.844  10.381  0.0820 -0.3825  0.7769
   35POPC   H5R 4688   2.531   6.793  10.385  1.0552  1.5336  2.2368
   35POPC   H5S 4689   2.446   6.953  10.399 -0.7981 -0.3272  1.1223
   35POPC   C26 4690   2.366   6.825  10.245 -0.1706 -0.0823 -0.0387
   35POPC   H6R 4691   2.277   6.891  10.240  1.2406  2.0868  2.3360
   35POPC   H6S 4692   2.341   6.717  10.236 -0.8820 -0.2708  3.5659
   35POPC   C27 4693   2.462   6.860  10.125  0.6545 -0.1549 -0.4285
   35POPC   H7R 4694   2.535   6.777  10.125 -0.0569 -0.7923 -0.7451
   35POPC   H7S 4695   2.513   6.954  10.154  0.0354  0.5471 -1.5651
   35POPC   C28 4696   2.394   6.896   9.990  0.2902 -0.0383 -0.3474
   35POPC   H8R 4697   2.471   6.942   9.925  0.4009  1.4585  0.8082
   35POPC   H8S 4698   2.323   6.979  10.010  1.1946  0.2281  1.9458
   35POPC   C29 4699   2.332   6.766   9.956  0.5788 -0.1717 -0.0452
   35POPC   H91 4700   2.245   6.738  10.017  1.6697 -0.8726  1.2353
   35POPC  C210 4701   2.364   6.689   9.852  0.3973  0.5815  0.4040
   35POPC  H101 4702   2.297   6.604   9.830  0.7348 -0.0959  1.8969
   35POPC  C211 4703   2.470   6.713   9.750 -0.3924 -0.1798 -0.0602
   35POPC  H11R 4704   2.571   6.675   9.778 -0.2243  0.9309  0.8782
   35POPC  H11S 4705   2.494   6.821   9.744 -0.2690 -0.1378  1.0481
   35POPC  C212 4706   2.426   6.655   9.611 -0.4014 -0.1796 -0.5570
   35POPC  H12R 4707   2.335   6.714   9.586 -1.2871  0.0479  2.9347
   35POPC  H12S 4708   2.386   6.552   9.623  0.1895 -0.2863  0.5304
   35POPC  C213 4709   2.540   6.665   9.509 -0.6368 -0.1422  0.0454
   35POPC  H13R 4710   2.629   6.606   9.542  0.1976  0.4065 -1.1885
   35POPC  H13S 4711   2.577   6.769   9.513  1.3050 -0.8288  0.8680
   35POPC  C214 4712   2.500   6.639   9.360 -0.0270  0.2412  0.2661
   35POPC  H14R 4713   2.408   6.693   9.331 -0.3762 -0.5136 -0.0362
   35POPC  H14S 4714   2.496   6.530   9.339 -1.8952  0.7248 -2.0423
   35POPC  C215 4715   2.625   6.675   9.278  0.4448 -0.6107  0.4585
   35POPC  H15R 4716   2.722   6.654   9.327  1.7944  0.4631 -1.6845
   35POPC  H15S 4717   2.613   6.783   9.256 -2.2358 -1.0891 -0.5908
   35POPC  C216 4718   2.628   6.604   9.142  0.7420 -0.0017  0.0927
   35POPC  H16R 4719   2.702   6.661   9.081  0.6670 -0.9239 -0.8671
   35POPC  H16S 4720   2.533   6.612   9.084  1.4039  0.1298 -0.9847
   35POPC  C217 4721   2.652   6.454   9.145 -0.1835  0.7761 -0.9602
   35POPC  H17R 4722   2.569   6.404   9.199  0.5973 -0.0275 -0.4912
   35POPC  H17S 4723   2.751   6.435   9.191  0.6834  0.0787 -3.0529
   35POPC  C218 4724   2.652   6.403   9.000 -1.0626 -0.2105 -0.2268
   35POPC  H18R 4725   2.702   6.473   8.931 -1.2563 -0.6044 -0.7730
   35POPC  H18S 4726   2.548   6.387   8.962 -1.5732 -1.1217  1.4743
   35POPC  H18T 4727   2.698   6.302   9.001  0.3769  0.4443  0.7792
   35POPC   C33 4728   2.121   7.327  10.208 -0.2098 -0.0029 -0.5109
   35POPC   H3X 4729   2.193   7.403  10.243  0.7922 -1.5494  0.8889
   35POPC   H3Y 4730   2.025   7.376  10.180  0.0876  1.0045  0.2099
   35POPC   C34 4731   2.175   7.258  10.085  0.1803  0.1480  0.5926
   35POPC   H4X 4732   2.124   7.161  10.065 -2.0261  1.8201 -2.3450
   35POPC   H4Y 4733   2.284   7.235  10.093 -0.4868 -2.8551  1.6544
   35POPC   C35 4734   2.149   7.339   9.951 -0.5070 -0.2446  0.1872
   35POPC   H5X 4735   2.216   7.428   9.954  0.9653 -1.3545  0.6491
   35POPC   H5Y 4736   2.045   7.378   9.962 -0.2076  0.4806  0.4922
   35POPC   C36 4737   2.175   7.260   9.824 -0.0546 -0.0339  0.0813
   35POPC   H6X 4738   2.103   7.303   9.750 -2.2460 -1.6101  1.2250
   35POPC   H6Y 4739   2.148   7.154   9.844 -2.3672  0.2586 -1.2094
   35POPC   C37 4740   2.318   7.261   9.771  1.0014 -0.2950  0.5926
   35POPC   H7X 4741   2.383   7.249   9.861  0.5788 -0.2979  0.9007
   35POPC   H7Y 4742   2.342   7.355   9.717  1.8057 -0.3298  0.8743
   35POPC   C38 4743   2.348   7.131   9.698 -0.7393 -0.1566  0.5412
   35POPC   H8X 4744   2.268   7.098   9.629 -0.0162 -0.5186 -0.1252
   35POPC   H8Y 4745   2.352   7.051   9.775  0.1592 -0.6401 -0.0097
   35POPC   C39 4746   2.484   7.125   9.626  0.0047  0.5595 -0.2827
   35POPC   H9X 4747   2.512   7.018   9.613 -0.5441  0.5722 -1.6962
   35POPC   H9Y 4748   2.557   7.172   9.696  0.3163  3.2003 -2.2779
   35POPC  C310 4749   2.496   7.191   9.492  0.0869  0.4512 -0.0348
   35POPC  H10X 4750   2.594   7.166   9.444 -0.5542  0.9520 -1.6532
   35POPC  H10Y 4751   2.478   7.300   9.497  2.8043  1.1141 -2.8959
   35POPC  C311 4752   2.406   7.116   9.385 -0.4783 -0.5736  0.3178
   35POPC  H11X 4753   2.301   7.117   9.419 -0.0900 -1.3229  1.5587
   35POPC  H11Y 4754   2.445   7.012   9.376  1.2922  0.2495 -2.1840
   35POPC  C312 4755   2.409   7.191   9.254 -0.1310 -0.3138  0.0444
   35POPC  H12X 4756   2.510   7.188   9.208 -0.5845  0.9960 -1.0879
   35POPC  H12Y 4757   2.382   7.298   9.268  1.0340  0.1043 -0.8029
   35POPC  C313 4758   2.329   7.125   9.147 -0.2044 -0.0331  0.4335
   35POPC  H13X 4759   2.340   7.189   9.058  2.1515 -3.5793 -1.9729
   35POPC  H13Y 4760   2.221   7.126   9.176 -0.3343 -3.1986  0.2391
   35POPC  C314 4761   2.394   6.990   9.091  0.1699 -0.3754  0.1148
   35POPC  H14X 4762   2.373   6.896   9.145  1.7680 -0.0426  1.3602
   35POPC  H14Y 4763   2.503   7.007   9.108 -0.2687  1.7089  1.0365
   35POPC  C315 4764   2.365   6.959   8.945 -0.4502  0.3267 -0.2768
   35POPC  H15X 4765   2.416   7.036   8.883  0.7020 -1.6043 -1.7403
   35POPC  H15Y 4766   2.256   6.959   8.922 -0.6875  1.8239  0.7442
   35POPC  C316 4767   2.427   6.830   8.901  0.2531 -0.3550 -0.2820
   35POPC  H16X 4768   2.386   6.799   8.803 -1.0042 -0.5444  0.2990
   35POPC  H16Y 4769   2.409   6.747   8.973 -1.3987 -0.9993 -1.4098
   35POPC  H16Z 4770   2.537   6.840   8.890  0.2681 -0.3143 -0.0900
   36POPC     N 4771   2.812   5.475  11.104 -0.2459 -0.0758 -0.3550
   36POPC   C12 4772   2.853   5.409  10.973 -0.7482  0.1648 -0.3237
   36POPC  H12A 4773   2.944   5.455  10.939  0.6161 -0.7108  2.0217
   36POPC  H12B 4774   2.778   5.430  10.898  2.7349  1.8820 -3.4797
   36POPC   C13 4775   2.800   5.624  11.087  1.0051  0.3060  0.0137
   36POPC  H13A 4776   2.795   5.671  11.185  0.6488  1.7928 -0.7018
   36POPC  H13B 4777   2.887   5.665  11.037 -0.4020  2.6178 -0.5999
   36POPC  H13C 4778   2.711   5.648  11.031  0.6985 -2.1985 -0.6339
   36POPC   C14 4779   2.682   5.414  11.148 -0.0996 -0.1513 -0.0486
   36POPC  H14A 4780   2.640   5.469  11.231  1.9184  2.7962 -0.9131
   36POPC  H14B 4781   2.604   5.414  11.074 -0.1551 -0.1066  0.0080
   36POPC  H14C 4782   2.702   5.311  11.174  1.6925 -0.0493 -0.9910
   36POPC   C15 4783   2.919   5.457  11.203 -0.3210  0.3637  0.1538
   36POPC  H15A 4784   3.016   5.499  11.179  1.3657 -1.5968  3.1872
   36POPC  H15B 4785   2.925   5.355  11.239 -1.2760  0.2816  0.0856
   36POPC  H15C 4786   2.892   5.502  11.297  0.7705 -0.8935  1.0873
   36POPC   C11 4787   2.867   5.253  10.978 -0.0675  0.3375 -0.9967
   36POPC  H11A 4788   2.885   5.214  10.876 -0.0460  1.6243 -1.4906
   36POPC  H11B 4789   2.777   5.206  11.023 -0.4564  1.3297 -0.7380
   36POPC     P 4790   3.130   5.220  11.006 -0.0227  0.4141  0.0884
   36POPC   O13 4791   3.192   5.089  11.008 -0.2984  0.4269  0.3093
   36POPC   O14 4792   3.208   5.329  11.066 -0.9840 -0.0978 -0.1442
   36POPC   O12 4793   2.982   5.205  11.062  0.3239  0.5845 -0.0451
   36POPC   O11 4794   3.108   5.261  10.853  0.1136  1.2915 -0.3574
   36POPC    C1 4795   3.217   5.258  10.756  0.2018  0.0376  0.2501
   36POPC    HA 4796   3.176   5.235  10.655 -0.6503  2.0713  0.0894
   36POPC    HB 4797   3.284   5.173  10.778 -3.2199 -2.6710  0.6161
   36POPC    C2 4798   3.286   5.397  10.747  0.5212  0.2045  0.5960
   36POPC    HS 4799   3.272   5.444  10.847 -3.7750 -1.6277  0.9600
   36POPC   O21 4800   3.216   5.472  10.646  0.1038  0.3548 -0.3627
   36POPC   C21 4801   3.239   5.606  10.646  0.3130  0.6061  0.1368
   36POPC   O22 4802   3.307   5.663  10.732 -0.2209  0.0427  0.3650
   36POPC   C22 4803   3.144   5.668  10.541 -0.0029  0.0473 -0.0318
   36POPC   H2R 4804   3.186   5.768  10.517 -0.1246  0.4938  1.5808
   36POPC   H2S 4805   3.053   5.691  10.600 -0.4011  1.2522 -1.0890
   36POPC    C3 4806   3.437   5.376  10.704 -0.1398  0.3002 -0.3009
   36POPC    HX 4807   3.476   5.296  10.772 -4.2485 -1.5969 -0.0130
   36POPC    HY 4808   3.499   5.466  10.721  0.4873 -0.0333 -0.7820
   36POPC   O31 4809   3.437   5.323  10.567  0.5761 -0.4848 -0.0530
   36POPC   C31 4810   3.473   5.410  10.471  0.1849  0.3334  0.2233
   36POPC   O32 4811   3.479   5.530  10.488 -0.3641 -0.6795 -0.3172
   36POPC   C32 4812   3.512   5.338  10.345 -0.0920  0.2102 -0.2664
   36POPC   H2X 4813   3.546   5.233  10.359  1.3437  0.7600  0.5229
   36POPC   H2Y 4814   3.592   5.391  10.289  0.4710  0.4891  0.7931
   36POPC   C23 4815   3.113   5.596  10.401  0.3977  0.1233 -0.8011
   36POPC   H3R 4816   3.085   5.491  10.422  0.7404  0.3843  1.1081
   36POPC   H3S 4817   3.205   5.593  10.338  0.0390  2.2559 -1.4612
   36POPC   C24 4818   3.007   5.664  10.308  0.3208 -0.3238 -0.7987
   36POPC   H4R 4819   3.052   5.764  10.292 -0.3497  0.4353  1.8712
   36POPC   H4S 4820   2.915   5.668  10.371  0.9437  2.5333 -0.0208
   36POPC   C25 4821   2.962   5.596  10.174 -0.6998 -0.5839 -0.0453
   36POPC   H5R 4822   2.926   5.492  10.190  0.3552 -0.6514  1.9797
   36POPC   H5S 4823   3.047   5.591  10.103 -2.0268 -0.9982 -1.6427
   36POPC   C26 4824   2.868   5.686  10.092 -0.1356 -0.3748  0.4669
   36POPC   H6R 4825   2.923   5.778  10.063 -1.7304  0.0833 -1.2159
   36POPC   H6S 4826   2.794   5.716  10.169 -0.2041 -2.8063  1.3793
   36POPC   C27 4827   2.800   5.621   9.962 -0.2743 -0.0591  0.4116
   36POPC   H7R 4828   2.735   5.539  10.001  0.7150 -1.8380 -1.5894
   36POPC   H7S 4829   2.872   5.566   9.898 -0.1211  2.3560 -1.5519
   36POPC   C28 4830   2.727   5.723   9.860 -0.1478  0.8553 -0.3706
   36POPC   H8R 4831   2.674   5.657   9.787  0.6258 -1.7001  1.2941
   36POPC   H8S 4832   2.796   5.795   9.811 -0.4238  1.8632  0.7114
   36POPC   C29 4833   2.623   5.800   9.928 -0.7452 -0.1260  0.0931
   36POPC   H91 4834   2.617   5.797  10.038  1.5414 -0.3591  0.2412
   36POPC  C210 4835   2.507   5.852   9.874  0.2886  0.2823  0.6168
   36POPC  H101 4836   2.431   5.898   9.939  1.8803  1.1717  1.8879
   36POPC  C211 4837   2.457   5.853   9.726  0.1245 -0.5967 -0.5815
   36POPC  H11R 4838   2.537   5.847   9.650 -1.8606 -2.2310 -2.6154
   36POPC  H11S 4839   2.400   5.948   9.714 -0.2960 -0.3985  2.4858
   36POPC  C212 4840   2.364   5.731   9.699 -0.5846  0.2192 -0.3728
   36POPC  H12R 4841   2.283   5.710   9.772 -0.4552 -0.3250 -0.3802
   36POPC  H12S 4842   2.440   5.650   9.695  0.1632  0.8257  1.4105
   36POPC  C213 4843   2.304   5.754   9.560 -0.0451  0.8339 -0.3165
   36POPC  H13R 4844   2.258   5.656   9.535  0.3950  0.8090 -1.0454
   36POPC  H13S 4845   2.388   5.770   9.488 -1.6844  1.3012 -2.1767
   36POPC  C214 4846   2.183   5.854   9.555 -0.1350  0.2241  0.2807
   36POPC  H14R 4847   2.228   5.953   9.575 -0.0506  0.3222 -0.3811
   36POPC  H14S 4848   2.111   5.829   9.635 -0.7481  0.0984 -0.3044
   36POPC  C215 4849   2.102   5.852   9.423 -0.7171 -0.3621 -1.0710
   36POPC  H15R 4850   2.100   5.750   9.379 -0.9696 -1.5440  1.5973
   36POPC  H15S 4851   2.149   5.928   9.357  1.8566 -0.1589  0.9549
   36POPC  C216 4852   1.959   5.892   9.439 -0.0083  0.2629 -0.6077
   36POPC  H16R 4853   1.921   5.834   9.525  2.5514  0.0759  0.4339
   36POPC  H16S 4854   1.904   5.863   9.347  0.0911  0.1448 -0.6284
   36POPC  C217 4855   1.930   6.038   9.479  0.0705  0.3764 -0.1717
   36POPC  H17R 4856   2.011   6.069   9.548  0.3308 -3.9651  1.6192
   36POPC  H17S 4857   1.831   6.035   9.530  1.3028 -1.3536  2.1906
   36POPC  C218 4858   1.913   6.123   9.354 -0.2501 -0.3452  0.5669
   36POPC  H18R 4859   1.844   6.073   9.283 -0.3574 -1.3066  1.3384
   36POPC  H18S 4860   2.006   6.143   9.298  0.3763 -3.1892  0.5462
   36POPC  H18T 4861   1.865   6.221   9.377  3.3587  2.1369 -1.9119
   36POPC   C33 4862   3.391   5.336  10.248  0.7070 -0.3287 -0.4085
   36POPC   H3X 4863   3.364   5.442  10.228  1.2626  0.0503  0.7996
   36POPC   H3Y 4864   3.308   5.280  10.297  0.7800 -1.0884 -1.1398
   36POPC   C34 4865   3.424   5.268  10.113  0.1728 -0.2194 -0.1663
   36POPC   H4X 4866   3.475   5.174  10.142  0.9315  0.0965 -0.4765
   36POPC   H4Y 4867   3.497   5.323  10.049 -0.2016 -0.0570 -0.4570
   36POPC   C35 4868   3.306   5.253  10.022  0.4251  0.2283 -0.1122
   36POPC   H5X 4869   3.220   5.224  10.086 -1.8229 -1.6207 -3.8147
   36POPC   H5Y 4870   3.298   5.165   9.955  1.3934  0.1020 -0.0643
   36POPC   C36 4871   3.278   5.384   9.944 -0.6810 -0.0967  0.3743
   36POPC   H6X 4872   3.369   5.435   9.906 -0.0385 -0.9755  0.7252
   36POPC   H6Y 4873   3.226   5.447  10.019 -0.8362  1.0813 -0.7144
   36POPC   C37 4874   3.170   5.378   9.834 -0.0496  0.9780  0.4253
   36POPC   H7X 4875   3.077   5.338   9.879 -0.5070  1.2405 -0.2697
   36POPC   H7Y 4876   3.204   5.306   9.757  1.6728  0.8351  1.2998
   36POPC   C38 4877   3.142   5.515   9.762  0.5870  0.3711 -0.0941
   36POPC   H8X 4878   3.247   5.535   9.733  0.3367  0.3478 -1.0444
   36POPC   H8Y 4879   3.108   5.595   9.831 -0.8091 -0.5892  0.3522
   36POPC   C39 4880   3.046   5.493   9.645 -0.6087  0.1183  0.4036
   36POPC   H9X 4881   2.946   5.472   9.689 -0.5970 -0.3742  0.1910
   36POPC   H9Y 4882   3.076   5.398   9.597 -0.8419 -0.6323  1.7156
   36POPC  C310 4883   3.048   5.609   9.544  0.0168 -0.5178  0.4801
   36POPC  H10X 4884   3.152   5.643   9.523 -0.2499  0.9187  1.4160
   36POPC  H10Y 4885   2.992   5.696   9.583  0.4591  0.2140 -0.5127
   36POPC  C311 4886   2.985   5.576   9.405  0.6279  0.3899 -0.3349
   36POPC  H11X 4887   2.876   5.574   9.427  1.3021  0.1800  3.2971
   36POPC  H11Y 4888   3.012   5.472   9.381  2.9416  0.3830  2.0415
   36POPC  C312 4889   3.016   5.677   9.297 -0.0684 -0.4950 -0.2529
   36POPC  H12X 4890   2.975   5.643   9.200  0.2232 -0.8894 -0.2428
   36POPC  H12Y 4891   3.121   5.701   9.269 -1.1703  4.1060 -0.8006
   36POPC  C313 4892   2.959   5.820   9.317  0.2447 -0.2404  0.4675
   36POPC  H13X 4893   2.994   5.855   9.416  3.6406 -1.1999 -0.3526
   36POPC  H13Y 4894   2.849   5.808   9.330 -0.0524  0.9854 -0.8015
   36POPC  C314 4895   2.983   5.916   9.196  0.1526 -0.2348  0.0279
   36POPC  H14X 4896   2.929   5.873   9.109  1.4003 -1.6298 -0.0686
   36POPC  H14Y 4897   3.093   5.914   9.185 -0.0250 -0.4765 -1.8983
   36POPC  C315 4898   2.927   6.054   9.234 -0.3706  0.1140  0.3307
   36POPC  H15X 4899   2.985   6.083   9.324  2.6289  0.8608 -1.7738
   36POPC  H15Y 4900   2.821   6.035   9.264 -0.7493 -0.4501 -1.2859
   36POPC  C316 4901   2.932   6.156   9.114 -0.0091 -0.4158 -0.0036
   36POPC  H16X 4902   2.864   6.116   9.037 -0.2180 -2.5644  1.2713
   36POPC  H16Y 4903   3.038   6.159   9.078  0.0757  1.1084  0.3433
   36POPC  H16Z 4904   2.893   6.254   9.150 -4.1371 -1.4659 -1.3646
   37POPC     N 4905   2.144   1.648   6.333 -0.1951  0.1693  0.3403
   37POPC   C12 4906   2.206   1.610   6.468  0.1242  0.5528  0.1100
   37POPC  H12A 4907   2.298   1.666   6.478  1.0312 -1.0725  1.1802
   37POPC  H12B 4908   2.236   1.506   6.462  0.4958  0.6473  0.2732
   37POPC   C13 4909   2.004   1.590   6.305  0.0334 -0.7377 -0.4964
   37POPC  H13A 4910   1.994   1.483   6.298 -1.1802 -0.6125 -0.6895
   37POPC  H13B 4911   1.948   1.614   6.394  1.1452 -1.5975  0.4624
   37POPC  H13C 4912   1.967   1.635   6.215  2.6679  0.9565 -0.8044
   37POPC   C14 4913   2.139   1.793   6.323 -0.1162 -0.0664 -0.3386
   37POPC  H14A 4914   2.118   1.830   6.224  0.0803 -0.4845 -0.5363
   37POPC  H14B 4915   2.060   1.832   6.386  0.3262  2.6446 -1.3639
   37POPC  H14C 4916   2.227   1.845   6.359 -0.5555  0.3265  0.1928
   37POPC   C15 4917   2.236   1.597   6.223 -0.2504  0.4565  0.9115
   37POPC  H15A 4918   2.206   1.628   6.124 -0.4402  1.1409  1.1799
   37POPC  H15B 4919   2.217   1.491   6.214 -0.1607  0.5605 -0.6057
   37POPC  H15C 4920   2.343   1.613   6.227 -0.0457 -0.6905  0.3188
   37POPC   C11 4921   2.129   1.639   6.593 -1.1927 -0.2983  1.3755
   37POPC  H11A 4922   2.105   1.748   6.598  2.8041  0.7454 -0.3681
   37POPC  H11B 4923   2.199   1.617   6.676  2.2502 -0.9125 -1.5500
   37POPC     P 4924   1.992   1.434   6.680  0.2116 -0.5506  0.0544
   37POPC   O13 4925   2.129   1.378   6.688 -0.1538 -0.0501  0.2849
   37POPC   O14 4926   1.890   1.351   6.612  0.2472  0.2249  0.3463
   37POPC   O12 4927   2.006   1.567   6.597 -0.4209  0.0414  0.1054
   37POPC   O11 4928   1.946   1.498   6.823  0.1290 -0.0646 -0.5670
   37POPC    C1 4929   1.881   1.625   6.818  0.2442 -0.2482 -0.1866
   37POPC    HA 4930   1.823   1.639   6.725 -0.3742  0.0854  0.2456
   37POPC    HB 4931   1.949   1.710   6.836  0.1198 -0.7308  2.8368
   37POPC    C2 4932   1.763   1.640   6.924  0.3168 -0.0570 -0.2416
   37POPC    HS 4933   1.704   1.730   6.896  0.3114  0.2209  0.6433
   37POPC   O21 4934   1.819   1.635   7.056 -0.0217  0.0394  0.4960
   37POPC   C21 4935   1.851   1.762   7.106  0.0305  0.4554 -0.3021
   37POPC   O22 4936   1.849   1.862   7.033  0.6225  0.3300  0.0848
   37POPC   C22 4937   1.879   1.744   7.255  0.9514 -0.3702 -0.2661
   37POPC   H2R 4938   1.908   1.641   7.283 -0.9617 -0.5300  1.2383
   37POPC   H2S 4939   1.793   1.775   7.319 -0.0009 -1.2688 -1.0773
   37POPC    C3 4940   1.666   1.515   6.905  0.0990  0.5224  0.8222
   37POPC    HX 4941   1.721   1.427   6.946  2.4332  1.2092 -0.7513
   37POPC    HY 4942   1.637   1.526   6.798 -0.2634  2.6275  1.1243
   37POPC   O31 4943   1.551   1.527   6.992  0.4698 -0.0362  1.1266
   37POPC   C31 4944   1.441   1.449   6.961 -0.5678 -0.0369 -0.2267
   37POPC   O32 4945   1.444   1.364   6.875  0.3024 -0.3135  0.1073
   37POPC   C32 4946   1.315   1.487   7.035  0.3129 -0.2156 -0.1223
   37POPC   H2X 4947   1.240   1.404   7.032  1.9905 -1.9029  2.1641
   37POPC   H2Y 4948   1.272   1.575   6.983 -0.4576 -0.2950  0.3642
   37POPC   C23 4949   1.990   1.842   7.302  0.3754 -0.0913  0.2038
   37POPC   H3R 4950   1.972   1.943   7.259 -1.0712 -0.6148 -0.4695
   37POPC   H3S 4951   2.089   1.797   7.281  1.4533  2.4692 -0.3222
   37POPC   C24 4952   1.976   1.870   7.455  0.5434  0.8289 -0.2172
   37POPC   H4R 4953   1.874   1.912   7.466  0.9429  2.0841 -1.0686
   37POPC   H4S 4954   2.048   1.948   7.488 -0.3862  1.1798  0.9736
   37POPC   C25 4955   2.009   1.752   7.548  0.2825  0.2506  0.3600
   37POPC   H5R 4956   2.102   1.706   7.509 -1.0795 -2.9706  0.7372
   37POPC   H5S 4957   1.935   1.669   7.544  2.2292 -1.6037  2.0856
   37POPC   C26 4958   2.005   1.776   7.705  0.4278 -0.0057 -0.9059
   37POPC   H6R 4959   2.016   1.680   7.758 -1.9662  0.9132  1.3542
   37POPC   H6S 4960   1.903   1.805   7.738  0.4453 -0.2074 -0.6818
   37POPC   C27 4961   2.092   1.897   7.746 -0.2620 -0.6494 -0.1445
   37POPC   H7R 4962   2.053   1.994   7.709  3.0538  0.7283 -0.2127
   37POPC   H7S 4963   2.195   1.882   7.706 -0.3917 -0.5965 -0.4904
   37POPC   C28 4964   2.103   1.922   7.902  0.1605 -0.0940  0.0474
   37POPC   H8R 4965   2.165   2.005   7.942  1.1127 -1.2562  1.0388
   37POPC   H8S 4966   2.157   1.831   7.938  1.3071  0.2655 -0.7194
   37POPC   C29 4967   1.963   1.933   7.963  0.2379 -0.3283 -0.5373
   37POPC   H91 4968   1.906   2.018   7.924  1.1007  1.0112  1.1000
   37POPC  C210 4969   1.912   1.852   8.059  0.0161  0.2699 -0.5251
   37POPC  H101 4970   1.834   1.894   8.124 -2.4273 -1.5985 -2.1411
   37POPC  C211 4971   1.985   1.743   8.133 -0.1463  0.0755 -0.0508
   37POPC  H11R 4972   2.055   1.687   8.067  2.6811  3.1162  0.2719
   37POPC  H11S 4973   1.910   1.664   8.157  0.1669 -0.2349 -0.0800
   37POPC  C212 4974   2.047   1.786   8.262  0.0152 -0.0990 -0.4811
   37POPC  H12R 4975   1.974   1.836   8.329 -1.0832  0.2197 -1.8714
   37POPC  H12S 4976   2.129   1.858   8.241 -0.2196 -0.2484 -2.0118
   37POPC  C213 4977   2.104   1.673   8.349  0.6039 -0.3569 -0.3431
   37POPC  H13R 4978   2.192   1.637   8.292  2.3774  0.9986  1.4835
   37POPC  H13S 4979   2.040   1.585   8.370  1.9342 -1.3291 -0.3251
   37POPC  C214 4980   2.171   1.713   8.477  0.0588  1.3665 -0.9650
   37POPC  H14R 4981   2.192   1.631   8.550 -1.1412  2.2366  0.3900
   37POPC  H14S 4982   2.109   1.787   8.531  1.3509  1.9802 -0.2779
   37POPC  C215 4983   2.308   1.781   8.464 -0.1668  0.2823 -0.0254
   37POPC  H15R 4984   2.296   1.872   8.400 -0.0385 -0.4226 -1.0649
   37POPC  H15S 4985   2.368   1.711   8.402  0.2717  0.1434  0.5567
   37POPC  C216 4986   2.365   1.823   8.598 -0.5786 -0.1060  0.3613
   37POPC  H16R 4987   2.471   1.851   8.580 -0.4477  0.2463  1.6284
   37POPC  H16S 4988   2.381   1.739   8.669  0.8239  1.7956  2.3658
   37POPC  C217 4989   2.286   1.926   8.679 -0.5819  0.2003 -0.1680
   37POPC  H17R 4990   2.192   1.880   8.714 -1.1733  0.6587 -1.1313
   37POPC  H17S 4991   2.252   2.005   8.609 -0.4249  2.5284  2.3036
   37POPC  C218 4992   2.367   1.988   8.794  0.4084  0.0915 -0.6231
   37POPC  H18R 4993   2.455   2.047   8.762 -0.3581  0.7460 -1.5657
   37POPC  H18S 4994   2.413   1.908   8.855  1.0134  1.3529  0.6038
   37POPC  H18T 4995   2.299   2.056   8.849 -0.2637 -1.3770  0.3951
   37POPC   C33 4996   1.345   1.512   7.182 -0.0340 -0.0893  0.1554
   37POPC   H3X 4997   1.259   1.548   7.243 -0.4115 -0.4079 -0.1813
   37POPC   H3Y 4998   1.425   1.589   7.184  1.3022 -1.4314 -0.7786
   37POPC   C34 4999   1.391   1.391   7.251 -0.6104  0.2982 -0.3034
   37POPC   H4X 5000   1.477   1.344   7.198 -1.4214 -2.4269  0.7036
   37POPC   H4Y 5001   1.301   1.327   7.260  0.5077 -1.5988 -2.1396
   37POPC   C35 5002   1.448   1.416   7.388 -0.0855  0.7055  0.5699
   37POPC   H5X 5003   1.366   1.467   7.442 -1.2031 -1.7848  1.2907
   37POPC   H5Y 5004   1.531   1.489   7.376  1.2616 -1.1061 -1.5113
   37POPC   C36 5005   1.482   1.282   7.459  0.9127  0.3424 -0.3283
   37POPC   H6X 5006   1.580   1.253   7.416  1.7988  1.1886  1.0775
   37POPC   H6Y 5007   1.411   1.198   7.440  0.2482  0.8926 -0.2899
   37POPC   C37 5008   1.495   1.305   7.607 -0.0733 -0.4883  0.2337
   37POPC   H7X 5009   1.400   1.345   7.651  0.8736  1.2013  0.8054
   37POPC   H7Y 5010   1.566   1.390   7.615 -1.3866  0.5467  1.2578
   37POPC   C38 5011   1.540   1.193   7.692  0.2331 -0.2057 -0.2645
   37POPC   H8X 5012   1.644   1.167   7.664  0.2567 -0.9197  0.4608
   37POPC   H8Y 5013   1.492   1.096   7.669 -2.4228  0.6518  1.3945
   37POPC   C39 5014   1.527   1.222   7.844  0.3951 -0.1073 -0.7192
   37POPC   H9X 5015   1.418   1.229   7.866  0.0756 -2.6439 -1.3677
   37POPC   H9Y 5016   1.587   1.313   7.866 -1.2406  0.8825 -0.2416
   37POPC  C310 5017   1.592   1.105   7.923  0.0050  0.0222 -0.3691
   37POPC  H10X 5018   1.701   1.091   7.904 -0.1623 -0.8456 -0.6597
   37POPC  H10Y 5019   1.538   1.011   7.902 -0.4398  0.0036  0.8110
   37POPC  C311 5020   1.586   1.125   8.077  0.3091 -0.0765  0.0384
   37POPC  H11X 5021   1.480   1.147   8.101 -0.1421 -2.6625  0.6024
   37POPC  H11Y 5022   1.646   1.213   8.107  0.7819 -0.1721 -0.6028
   37POPC  C312 5023   1.618   1.000   8.161 -0.5867  0.2695  0.8429
   37POPC  H12X 5024   1.661   1.031   8.259 -0.6348  0.6263  0.7519
   37POPC  H12Y 5025   1.690   0.935   8.106 -0.1781  0.3458  1.2832
   37POPC  C313 5026   1.488   0.928   8.193 -0.2973 -0.4114 -0.0964
   37POPC  H13X 5027   1.450   0.877   8.102 -0.5724  0.6849 -0.6051
   37POPC  H13Y 5028   1.410   0.998   8.231  0.1480 -0.1419  0.3361
   37POPC  C314 5029   1.511   0.830   8.311 -1.2047  0.6753  0.2306
   37POPC  H14X 5030   1.532   0.886   8.404  0.2951  0.5881 -0.0449
   37POPC  H14Y 5031   1.598   0.767   8.285 -1.5565 -0.3499  1.5006
   37POPC  C315 5032   1.382   0.757   8.341  0.4489 -0.7271 -0.0316
   37POPC  H15X 5033   1.364   0.676   8.268  0.0282 -0.2022 -0.5149
   37POPC  H15Y 5034   1.295   0.826   8.340  0.5403 -0.5989  0.5066
   37POPC  C316 5035   1.378   0.699   8.491  0.6556 -0.6891 -0.2303
   37POPC  H16X 5036   1.385   0.782   8.565  1.9016 -0.2497 -0.8210
   37POPC  H16Y 5037   1.451   0.618   8.508  2.9197  1.2488 -0.4744
   37POPC  H16Z 5038   1.282   0.649   8.516  0.5732 -0.0002  0.8695
   38POPC     N 5039   2.384   5.303   6.235  0.6830 -0.1175 -0.1209
   38POPC   C12 5040   2.443   5.420   6.329 -0.6729 -0.2128  0.3941
   38POPC  H12A 5041   2.372   5.501   6.338 -1.1250 -0.6674  0.8883
   38POPC  H12B 5042   2.523   5.470   6.277 -0.9432  2.0956  2.0842
   38POPC   C13 5043   2.482   5.194   6.222 -0.7952  0.0549 -0.4613
   38POPC  H13A 5044   2.437   5.098   6.200  0.0431 -0.7410  1.2581
   38POPC  H13B 5045   2.564   5.218   6.157  0.1972 -0.5501  0.5588
   38POPC  H13C 5046   2.536   5.186   6.315 -0.2918 -1.6212 -0.8750
   38POPC   C14 5047   2.255   5.256   6.289 -0.5626  0.2278  0.5111
   38POPC  H14A 5048   2.189   5.341   6.294 -0.2216  0.4761  0.7615
   38POPC  H14B 5049   2.226   5.166   6.236  1.9063 -0.2994  0.0104
   38POPC  H14C 5050   2.278   5.222   6.389  0.3827 -0.5231  0.0498
   38POPC   C15 5051   2.369   5.371   6.100  0.2052  0.0031  0.0825
   38POPC  H15A 5052   2.316   5.302   6.035  0.5174  0.9059 -1.1507
   38POPC  H15B 5053   2.465   5.395   6.056  1.4651 -0.9891  2.2364
   38POPC  H15C 5054   2.311   5.461   6.112 -1.4750 -0.6517 -2.5523
   38POPC   C11 5055   2.503   5.383   6.465 -0.1429 -0.2629  0.7730
   38POPC  H11A 5056   2.434   5.312   6.515  1.5437 -2.8098 -0.4198
   38POPC  H11B 5057   2.511   5.469   6.534 -0.6959  0.3860  0.0454
   38POPC     P 5058   2.761   5.384   6.411  0.2589 -0.0752 -0.4890
   38POPC   O13 5059   2.739   5.470   6.293  0.7332 -0.5990  0.5380
   38POPC   O14 5060   2.856   5.277   6.408  0.4581 -0.1136  0.2072
   38POPC   O12 5061   2.626   5.313   6.462  0.0895  0.0438  0.5770
   38POPC   O11 5062   2.786   5.488   6.519  0.6758  1.0247 -0.5535
   38POPC    C1 5063   2.781   5.459   6.661 -0.1860  0.2502  0.2310
   38POPC    HA 5064   2.685   5.408   6.684  1.4326 -4.2827 -2.4242
   38POPC    HB 5065   2.791   5.550   6.724  0.0285 -0.2420  0.9084
   38POPC    C2 5066   2.903   5.376   6.712 -0.1370  0.0980 -0.0062
   38POPC    HS 5067   2.904   5.276   6.664  1.3415 -0.4963  1.2057
   38POPC   O21 5068   2.888   5.363   6.853 -0.2257  0.0791 -0.4058
   38POPC   C21 5069   2.811   5.268   6.894  0.3059  0.2053  0.1719
   38POPC   O22 5070   2.748   5.188   6.827 -0.6098  0.6268  0.4925
   38POPC   C22 5071   2.810   5.272   7.044 -0.3772  0.0600  0.1931
   38POPC   H2R 5072   2.814   5.377   7.081  0.1152 -0.7310  2.4460
   38POPC   H2S 5073   2.890   5.208   7.087 -0.4423  0.2992  0.6794
   38POPC    C3 5074   3.042   5.440   6.682 -0.1503  0.3942  0.0621
   38POPC    HX 5075   3.014   5.542   6.716 -0.6830  0.2256  0.1385
   38POPC    HY 5076   3.060   5.443   6.573 -4.5876 -0.5160 -0.7907
   38POPC   O31 5077   3.154   5.391   6.767 -0.5382  0.4809 -0.1942
   38POPC   C31 5078   3.199   5.272   6.726 -0.2812  0.7366  0.3597
   38POPC   O32 5079   3.153   5.209   6.634 -0.0528  0.0124  0.1647
   38POPC   C32 5080   3.311   5.216   6.822 -0.4808  0.0220 -0.0141
   38POPC   H2X 5081   3.408   5.269   6.812  2.0666 -4.1815  1.1514
   38POPC   H2Y 5082   3.322   5.109   6.795 -1.6144 -0.0497 -0.2245
   38POPC   C23 5083   2.682   5.199   7.103  0.5539  0.3701 -0.3102
   38POPC   H3R 5084   2.662   5.105   7.048  1.8579  0.2422 -0.5905
   38POPC   H3S 5085   2.603   5.276   7.114 -0.1480 -0.2414 -1.0037
   38POPC   C24 5086   2.711   5.155   7.245 -0.6701  0.0957  0.3901
   38POPC   H4R 5087   2.789   5.077   7.252 -1.3332 -0.3994  2.3630
   38POPC   H4S 5088   2.628   5.094   7.285  0.9371 -2.1517  0.4085
   38POPC   C25 5089   2.771   5.277   7.322  0.4421  0.7261 -0.9669
   38POPC   H5R 5090   2.713   5.370   7.305 -1.6522 -0.1126  1.3320
   38POPC   H5S 5091   2.878   5.292   7.297  0.6689 -0.1301 -0.5386
   38POPC   C26 5092   2.763   5.251   7.471 -0.2211 -0.3083  0.3453
   38POPC   H6R 5093   2.656   5.222   7.487 -1.4735  3.3573 -0.8636
   38POPC   H6S 5094   2.784   5.342   7.531  0.7549 -0.7932  0.7494
   38POPC   C27 5095   2.842   5.136   7.521  0.1366 -0.5331  0.2696
   38POPC   H7R 5096   2.951   5.146   7.503 -0.3418  1.6927 -1.5822
   38POPC   H7S 5097   2.823   5.045   7.459  3.7338  1.3350 -3.7691
   38POPC   C28 5098   2.802   5.096   7.665  0.6740  0.0451 -0.4350
   38POPC   H8R 5099   2.863   5.009   7.695  1.1215  1.4218  2.9203
   38POPC   H8S 5100   2.699   5.055   7.658  1.3892 -1.6992 -0.9530
   38POPC   C29 5101   2.815   5.203   7.765  0.3187 -0.2278  0.0300
   38POPC   H91 5102   2.896   5.273   7.742  0.3721 -0.3048 -0.0145
   38POPC  C210 5103   2.744   5.224   7.882  0.5297 -0.6406 -0.2121
   38POPC  H101 5104   2.758   5.320   7.935  0.4894 -0.9463  0.3555
   38POPC  C211 5105   2.635   5.135   7.933 -0.0808  0.6853  0.3701
   38POPC  H11R 5106   2.673   5.031   7.924  2.2285  1.4723  0.8600
   38POPC  H11S 5107   2.543   5.132   7.871  0.0069  0.5629  0.2468
   38POPC  C212 5108   2.636   5.168   8.084  0.3681  0.3584  0.0771
   38POPC  H12R 5109   2.622   5.278   8.095  0.7744  0.5146 -0.8833
   38POPC  H12S 5110   2.728   5.128   8.131  0.0717 -0.9015 -0.3940
   38POPC  C213 5111   2.508   5.101   8.143 -0.0915  0.0223  0.2666
   38POPC  H13R 5112   2.522   4.990   8.139 -2.3200 -0.1995 -3.7470
   38POPC  H13S 5113   2.415   5.131   8.090 -0.0204 -0.0766  0.0812
   38POPC  C214 5114   2.483   5.129   8.295  0.3201 -0.2784 -0.2857
   38POPC  H14R 5115   2.397   5.068   8.333 -0.4881  0.2211 -1.3105
   38POPC  H14S 5116   2.467   5.239   8.295  1.0648 -0.1677  0.1176
   38POPC  C215 5117   2.605   5.102   8.383 -0.2256  0.9711  0.3961
   38POPC  H15R 5118   2.685   5.175   8.357  1.1246 -1.0202 -1.2640
   38POPC  H15S 5119   2.647   5.005   8.350  1.5217  2.5850 -2.3685
   38POPC  C216 5120   2.588   5.086   8.533  0.6823  0.4397  0.2898
   38POPC  H16R 5121   2.496   5.025   8.548  1.2555 -0.5343 -0.0952
   38POPC  H16S 5122   2.569   5.185   8.578 -2.2780  0.7726 -1.5439
   38POPC  C217 5123   2.710   5.032   8.609 -0.7420  0.4455  0.3957
   38POPC  H17R 5124   2.715   4.923   8.587  1.4459  0.1217  2.3445
   38POPC  H17S 5125   2.691   5.040   8.718  1.7535 -1.6575  1.0490
   38POPC  C218 5126   2.844   5.094   8.572 -0.0872  0.7267 -0.0903
   38POPC  H18R 5127   2.844   5.204   8.586 -1.2756  0.4897  2.0213
   38POPC  H18S 5128   2.855   5.090   8.462  3.9693  2.2241  0.1898
   38POPC  H18T 5129   2.933   5.049   8.620 -0.0608 -0.3782 -1.1575
   38POPC   C33 5130   3.264   5.228   6.968  0.2152  0.3002  0.4988
   38POPC   H3X 5131   3.155   5.205   6.969  0.2966 -0.2799 -1.9047
   38POPC   H3Y 5132   3.254   5.335   6.999  2.1611  0.6211  0.0736
   38POPC   C34 5133   3.337   5.150   7.078  0.1679  0.0241 -0.5942
   38POPC   H4X 5134   3.309   5.042   7.074  0.7592 -0.1216 -0.9078
   38POPC   H4Y 5135   3.312   5.188   7.179  0.8485 -0.8370 -0.1000
   38POPC   C35 5136   3.494   5.145   7.068 -0.0015 -0.4098  0.2625
   38POPC   H5X 5137   3.535   5.246   7.047 -2.0190  0.1770 -0.9789
   38POPC   H5Y 5138   3.506   5.085   6.975 -1.3681 -0.3832  0.0528
   38POPC   C36 5139   3.546   5.073   7.192 -0.1101 -0.5934 -0.0693
   38POPC   H6X 5140   3.512   4.967   7.196 -0.7420 -0.4260 -0.8497
   38POPC   H6Y 5141   3.495   5.116   7.280 -0.3268 -0.9122 -0.0366
   38POPC   C37 5142   3.702   5.090   7.200  0.1221  0.3701  0.6482
   38POPC   H7X 5143   3.726   5.197   7.215 -0.9683  0.4761  1.7752
   38POPC   H7Y 5144   3.729   5.061   7.096 -1.2280 -1.8376  0.8729
   38POPC   C38 5145   3.770   4.993   7.300  0.2869 -0.0460 -0.7494
   38POPC   H8X 5146   3.879   5.006   7.312 -0.0141 -0.3134  2.7716
   38POPC   H8Y 5147   3.746   4.891   7.260  0.0645  0.8658 -3.0317
   38POPC   C39 5148   3.709   5.006   7.440 -0.3512 -0.5384  0.6323
   38POPC   H9X 5149   3.608   4.960   7.442 -0.3644 -0.7232 -2.6145
   38POPC   H9Y 5150   3.706   5.115   7.460 -1.5375 -0.2725 -0.9151
   38POPC  C310 5151   3.788   4.929   7.544 -0.4317  0.1551 -0.2664
   38POPC  H10X 5152   3.881   4.989   7.555  0.4655 -1.3870  0.7040
   38POPC  H10Y 5153   3.817   4.829   7.504 -0.6245 -0.0990  0.2356
   38POPC  C311 5154   3.721   4.911   7.678 -0.3900  0.0663 -0.4572
   38POPC  H11X 5155   3.642   4.833   7.668 -0.1226 -0.2475 -0.1013
   38POPC  H11Y 5156   3.688   5.012   7.710 -1.5310 -0.0840 -1.1087
   38POPC  C312 5157   3.816   4.871   7.793 -0.0584 -0.3738  0.2839
   38POPC  H12X 5158   3.904   4.940   7.796 -0.2057 -0.0349 -2.0261
   38POPC  H12Y 5159   3.856   4.767   7.791  1.2429  0.0467  2.3307
   38POPC  C313 5160   3.743   4.900   7.921 -0.2031  0.6351 -0.0099
   38POPC  H13X 5161   3.648   4.843   7.924  0.6874 -1.1034 -2.7733
   38POPC  H13Y 5162   3.725   5.010   7.919 -1.9723  0.3582 -0.2021
   38POPC  C314 5163   3.830   4.859   8.038  0.0257  0.1731  0.1659
   38POPC  H14X 5164   3.913   4.929   8.058 -0.1135 -0.0360  1.5336
   38POPC  H14Y 5165   3.877   4.761   8.016 -1.8950 -0.8253  0.3778
   38POPC  C315 5166   3.741   4.833   8.161 -0.6858  0.2263 -0.0702
   38POPC  H15X 5167   3.682   4.740   8.147 -0.7261  0.3637 -0.8401
   38POPC  H15Y 5168   3.668   4.915   8.180  0.2257  1.3571 -1.3387
   38POPC  C316 5169   3.827   4.792   8.286  0.3166  0.2935  1.0368
   38POPC  H16X 5170   3.894   4.869   8.330  0.7396  0.3224  0.3568
   38POPC  H16Y 5171   3.889   4.702   8.267 -2.0131 -0.9623 -0.8510
   38POPC  H16Z 5172   3.753   4.775   8.367 -2.4451 -1.2421 -1.7024
   39POPC     N 5173   6.646   2.776   6.110 -0.1013 -0.0542  0.3309
   39POPC   C12 5174   6.731   2.715   6.222 -0.2579 -0.1942 -0.0202
   39POPC  H12A 5175   6.793   2.790   6.271 -2.8661  0.9722  1.5750
   39POPC  H12B 5176   6.812   2.656   6.182  0.0621 -1.6726  2.6750
   39POPC   C13 5177   6.601   2.662   6.020  0.0860 -0.2659 -0.4956
   39POPC  H13A 5178   6.533   2.698   5.945  1.1484  1.5236 -0.6367
   39POPC  H13B 5179   6.685   2.614   5.973 -0.4788 -0.3070 -1.4737
   39POPC  H13C 5180   6.535   2.597   6.074  0.3226  0.1089  0.2644
   39POPC   C14 5181   6.526   2.851   6.158 -0.4045 -0.2974 -0.1337
   39POPC  H14A 5182   6.475   2.901   6.077 -1.3439 -0.6331  0.2542
   39POPC  H14B 5183   6.450   2.795   6.210 -1.3745  1.2806  0.1933
   39POPC  H14C 5184   6.565   2.934   6.215  1.0123 -0.1023 -1.3352
   39POPC   C15 5185   6.734   2.867   6.033  0.3585  0.1010 -0.5047
   39POPC  H15A 5186   6.764   2.952   6.092  1.7683 -0.9877  0.3704
   39POPC  H15B 5187   6.682   2.898   5.943 -1.4707  1.2806  0.8992
   39POPC  H15C 5188   6.832   2.829   6.008  1.0101  1.3142  0.1512
   39POPC   C11 5189   6.657   2.641   6.335  0.8531  0.1462 -0.5410
   39POPC  H11A 5190   6.572   2.707   6.366 -0.5029 -2.2241  0.9196
   39POPC  H11B 5191   6.711   2.636   6.432  0.3838  1.7837 -0.1788
   39POPC     P 5192   6.649   2.394   6.265 -0.1725  0.1856 -0.0351
   39POPC   O13 5193   6.785   2.406   6.206  0.1077 -1.2214 -0.5143
   39POPC   O14 5194   6.559   2.307   6.191  0.6677  0.5680  0.1767
   39POPC   O12 5195   6.587   2.527   6.303  0.7519 -0.1854  0.2327
   39POPC   O11 5196   6.664   2.336   6.409  0.3163  0.2594 -0.1499
   39POPC    C1 5197   6.548   2.321   6.495 -0.6929  0.1318  0.1041
   39POPC    HA 5198   6.471   2.248   6.460 -1.4924  1.0002  0.0272
   39POPC    HB 5199   6.499   2.420   6.506 -0.5409  0.4971 -2.2248
   39POPC    C2 5200   6.588   2.260   6.633  0.2148 -0.6383  0.2072
   39POPC    HS 5201   6.503   2.206   6.679 -0.7649  2.8465  2.6871
   39POPC   O21 5202   6.630   2.362   6.723  0.3442 -0.3693 -0.4143
   39POPC   C21 5203   6.526   2.445   6.764 -0.2335  0.0672  0.5001
   39POPC   O22 5204   6.409   2.423   6.747 -0.0330  0.7873  0.4561
   39POPC   C22 5205   6.576   2.561   6.837 -0.1153 -0.3415 -0.0191
   39POPC   H2R 5206   6.492   2.622   6.874  0.8453  0.8348  0.2751
   39POPC   H2S 5207   6.634   2.627   6.769  1.2836 -1.2769  0.2426
   39POPC    C3 5208   6.696   2.143   6.613 -0.8356  0.1802 -0.2631
   39POPC    HX 5209   6.784   2.194   6.568  0.1702  0.3509  1.8142
   39POPC    HY 5210   6.661   2.077   6.531  0.6571  2.2738 -2.6751
   39POPC   O31 5211   6.727   2.071   6.733  0.5246  0.2917  0.2542
   39POPC   C31 5212   6.794   2.137   6.827  0.5072 -0.2669 -0.4525
   39POPC   O32 5213   6.875   2.222   6.807 -0.0693 -0.4128 -0.1648
   39POPC   C32 5214   6.749   2.075   6.961 -0.4547 -0.7636  0.4210
   39POPC   H2X 5215   6.659   2.132   6.991  0.1918 -0.7438  2.4114
   39POPC   H2Y 5216   6.704   1.975   6.947 -1.8120 -0.2406  0.9227
   39POPC   C23 5217   6.672   2.530   6.962 -0.2425  0.3098  0.0869
   39POPC   H3R 5218   6.699   2.631   7.000  1.2846 -0.8599  2.2681
   39POPC   H3S 5219   6.770   2.492   6.926 -0.3496  0.5251 -0.4250
   39POPC   C24 5220   6.619   2.449   7.078 -0.1196 -0.8588 -0.6157
   39POPC   H4R 5221   6.596   2.347   7.042 -1.8239 -1.1073  1.0733
   39POPC   H4S 5222   6.530   2.503   7.117  1.1570  2.0308 -1.5670
   39POPC   C25 5223   6.732   2.446   7.187  0.0450  0.0481  0.7156
   39POPC   H5R 5224   6.788   2.541   7.202  1.3977 -0.8184  1.3183
   39POPC   H5S 5225   6.814   2.382   7.148  1.8245  1.4162  2.1297
   39POPC   C26 5226   6.685   2.388   7.323  0.3012 -0.2587 -0.1362
   39POPC   H6R 5227   6.626   2.294   7.311 -0.5563  0.1136  1.1112
   39POPC   H6S 5228   6.619   2.465   7.368  0.4961 -0.0211 -0.2537
   39POPC   C27 5229   6.804   2.361   7.407  0.3742  0.5009 -0.1706
   39POPC   H7R 5230   6.842   2.463   7.424 -0.6069  0.7407  0.6772
   39POPC   H7S 5231   6.874   2.287   7.364  1.1283  0.2909  1.3918
   39POPC   C28 5232   6.764   2.307   7.550  0.6182  0.4203 -0.6713
   39POPC   H8R 5233   6.861   2.282   7.597 -0.3232  0.8599  1.5553
   39POPC   H8S 5234   6.723   2.205   7.531  0.6732  0.1426  0.6743
   39POPC   C29 5235   6.675   2.378   7.645  0.4150  0.0175 -0.5391
   39POPC   H91 5236   6.593   2.432   7.596  0.1546 -1.7450 -2.0887
   39POPC  C210 5237   6.688   2.388   7.777  0.2091  0.4437 -0.4547
   39POPC  H101 5238   6.620   2.457   7.828 -2.7884 -0.8701 -2.5760
   39POPC  C211 5239   6.798   2.334   7.859 -0.2003  0.0912  0.1714
   39POPC  H11R 5240   6.877   2.411   7.872 -2.3725  2.0343  2.6262
   39POPC  H11S 5241   6.840   2.239   7.820 -0.7151 -1.3840  3.0113
   39POPC  C212 5242   6.751   2.305   8.001 -0.0059  0.1574  1.0298
   39POPC  H12R 5243   6.674   2.226   8.002 -0.0039  0.1187 -0.3504
   39POPC  H12S 5244   6.704   2.387   8.059 -3.6098 -0.5351 -0.8032
   39POPC  C213 5245   6.868   2.237   8.086  0.5201 -0.1205  0.4226
   39POPC  H13R 5246   6.899   2.150   8.025  0.3948 -1.0170  1.6153
   39POPC  H13S 5247   6.821   2.205   8.182  2.0702 -0.6795  1.0125
   39POPC  C214 5248   6.989   2.318   8.109  0.4545  0.4248  0.9073
   39POPC  H14R 5249   6.976   2.415   8.161  1.3221  0.8976  0.2576
   39POPC  H14S 5250   7.031   2.350   8.011  0.3143  2.1260  1.3960
   39POPC  C215 5251   7.092   2.227   8.183 -0.7631 -0.2589  0.5689
   39POPC  H15R 5252   7.185   2.287   8.189  0.5407 -1.9932 -1.7780
   39POPC  H15S 5253   7.120   2.150   8.108  0.6653 -0.5337  1.3808
   39POPC  C216 5254   7.058   2.171   8.323  0.4433 -0.4080  0.5094
   39POPC  H16R 5255   7.146   2.132   8.378  0.7187  1.3924  1.3751
   39POPC  H16S 5256   6.988   2.085   8.323  1.4958 -1.2773  0.9999
   39POPC  C217 5257   6.977   2.259   8.422 -0.3577  0.0042 -0.1373
   39POPC  H17R 5258   6.879   2.277   8.374 -0.5982 -0.2844  0.2421
   39POPC  H17S 5259   7.026   2.358   8.436  1.3169 -0.7370 -0.6128
   39POPC  C218 5260   6.958   2.182   8.558 -0.2792 -0.2333 -0.2760
   39POPC  H18R 5261   6.976   2.243   8.649 -0.3130 -0.2686 -0.2463
   39POPC  H18S 5262   7.039   2.106   8.563  0.3985  0.4380 -0.9730
   39POPC  H18T 5263   6.866   2.122   8.572  0.0973 -0.5077  1.1542
   39POPC   C33 5264   6.849   2.069   7.080 -0.2461  0.6476 -0.9758
   39POPC   H3X 5265   6.870   2.173   7.115  1.7701 -0.4924  1.3610
   39POPC   H3Y 5266   6.943   2.037   7.031 -1.1991  0.2280 -2.5783
   39POPC   C34 5267   6.813   1.974   7.193 -0.4743 -0.4989 -0.1802
   39POPC   H4X 5268   6.796   1.872   7.153 -1.8541  0.1336 -1.2716
   39POPC   H4Y 5269   6.713   2.016   7.217 -0.3283 -0.9469  1.2515
   39POPC   C35 5270   6.908   1.983   7.305  0.2108 -0.2353 -0.4513
   39POPC   H5X 5271   6.928   2.089   7.330  0.6653 -1.0711  3.0906
   39POPC   H5Y 5272   7.011   1.941   7.295  0.0061 -0.3869 -2.0906
   39POPC   C36 5273   6.844   1.910   7.423  0.1877 -0.1000  0.0807
   39POPC   H6X 5274   6.857   1.800   7.411  0.6709 -0.2007  1.4125
   39POPC   H6Y 5275   6.736   1.936   7.427  0.2553  0.3405 -0.7685
   39POPC   C37 5276   6.920   1.950   7.548 -0.2316  0.2389 -0.7315
   39POPC   H7X 5277   6.903   2.059   7.559 -1.1474 -0.3010  4.3867
   39POPC   H7Y 5278   7.026   1.926   7.525 -0.6313 -1.4436 -0.8468
   39POPC   C38 5279   6.881   1.869   7.672  0.2119  0.8819  0.2318
   39POPC   H8X 5280   6.920   1.765   7.672  0.5924  1.0052  2.5512
   39POPC   H8Y 5281   6.771   1.859   7.669  0.3337 -0.2991 -0.6169
   39POPC   C39 5282   6.935   1.926   7.806  0.3525  0.5592  0.2633
   39POPC   H9X 5283   6.885   2.016   7.847 -0.5435  2.2826 -4.3180
   39POPC   H9Y 5284   7.045   1.941   7.797  0.6254  0.3828  3.0636
   39POPC  C310 5285   6.938   1.817   7.914 -0.5354  0.6531  0.2907
   39POPC  H10X 5286   7.022   1.747   7.896  0.4881  2.1552 -0.8998
   39POPC  H10Y 5287   6.835   1.777   7.900 -0.7838  0.7118  1.8494
   39POPC  C311 5288   6.959   1.873   8.054  0.1687  0.2864 -0.0326
   39POPC  H11X 5289   6.865   1.927   8.079 -0.5484 -0.6086 -0.7573
   39POPC  H11Y 5290   7.042   1.946   8.049 -0.1611  0.7974  1.8093
   39POPC  C312 5291   6.983   1.758   8.152  0.1293  0.4522  0.2961
   39POPC  H12X 5292   7.072   1.703   8.113 -1.9216 -2.3517 -0.5836
   39POPC  H12Y 5293   6.894   1.691   8.155 -0.5837  1.3785 -0.0702
   39POPC  C313 5294   7.021   1.801   8.294 -0.0970 -0.5315 -1.0035
   39POPC  H13X 5295   6.933   1.849   8.343  1.4112  0.7572  0.4648
   39POPC  H13Y 5296   7.106   1.871   8.292 -0.9584  0.6182  1.0063
   39POPC  C314 5297   7.059   1.691   8.391  0.2774 -0.3338  0.3055
   39POPC  H14X 5298   6.998   1.599   8.392  1.8368 -1.3854  0.3266
   39POPC  H14Y 5299   7.055   1.750   8.485  0.0500  0.6211 -0.2900
   39POPC  C315 5300   7.208   1.667   8.390 -0.0764 -0.2516  0.7432
   39POPC  H15X 5301   7.254   1.764   8.419  1.4115 -0.2641 -1.4425
   39POPC  H15Y 5302   7.249   1.646   8.289  0.6344 -1.0667  1.1935
   39POPC  C316 5303   7.271   1.549   8.473  0.4657 -0.3007 -0.3749
   39POPC  H16X 5304   7.380   1.555   8.452  0.9402  0.8351  2.2167
   39POPC  H16Y 5305   7.244   1.445   8.447  2.4013 -0.4628 -1.8392
   39POPC  H16Z 5306   7.253   1.562   8.581 -1.3988  1.8909 -0.8917
   40POPC     N 5307   6.245   5.832   6.088 -0.2142 -0.8717  0.2118
   40POPC   C12 5308   6.247   5.878   6.233 -0.2212  0.1548  0.3195
   40POPC  H12A 5309   6.293   5.975   6.246  0.8359 -0.3482  0.3814
   40POPC  H12B 5310   6.312   5.809   6.284  2.9592  1.9215 -1.1928
   40POPC   C13 5311   6.159   5.913   6.001 -0.0324 -0.1022 -0.3617
   40POPC  H13A 5312   6.194   6.015   5.999  1.3791 -0.5788 -0.2164
   40POPC  H13B 5313   6.149   5.869   5.903 -0.6717 -2.9679  0.9281
   40POPC  H13C 5314   6.060   5.914   6.044  1.2045  1.2251  2.5631
   40POPC   C14 5315   6.383   5.844   6.019  0.2147  0.1456  0.1024
   40POPC  H14A 5316   6.416   5.947   6.017 -3.1489  1.2955  1.1931
   40POPC  H14B 5317   6.459   5.780   6.061  1.6735 -0.7247 -3.6397
   40POPC  H14C 5318   6.383   5.823   5.913 -0.3752  1.9383 -0.2545
   40POPC   C15 5319   6.194   5.694   6.077  0.0024  0.6565  0.6719
   40POPC  H15A 5320   6.202   5.659   5.975 -1.3921 -0.5567  0.9473
   40POPC  H15B 5321   6.091   5.689   6.110 -0.1871 -0.7574 -0.0567
   40POPC  H15C 5322   6.260   5.622   6.123 -1.4056 -2.4434 -1.9272
   40POPC   C11 5323   6.118   5.891   6.308  0.2312 -1.1698  0.5673
   40POPC  H11A 5324   6.135   5.914   6.415  1.9491  1.5252 -0.2384
   40POPC  H11B 5325   6.070   5.790   6.315  0.9456 -1.6022 -0.6132
   40POPC     P 5326   6.034   6.144   6.268 -0.0572  0.2289 -0.0203
   40POPC   O13 5327   5.963   6.193   6.153 -0.9789 -0.3248  0.1144
   40POPC   O14 5328   6.174   6.183   6.294  0.4056 -0.6326  0.5651
   40POPC   O12 5329   6.035   5.985   6.245  0.2569  0.1906 -0.3059
   40POPC   O11 5330   5.948   6.172   6.396  0.0940  0.0463  0.1608
   40POPC    C1 5331   5.850   6.071   6.442 -0.0591  0.8431 -0.1931
   40POPC    HA 5332   5.887   5.966   6.436 -0.2736  0.6271  2.0374
   40POPC    HB 5333   5.753   6.080   6.389  0.8068 -0.3227 -2.0377
   40POPC    C2 5334   5.827   6.072   6.593 -0.8188 -0.7084 -0.5292
   40POPC    HS 5335   5.920   6.111   6.638 -1.5081  3.3294 -2.3650
   40POPC   O21 5336   5.785   5.947   6.645 -0.1883  0.1532 -0.3302
   40POPC   C21 5337   5.886   5.865   6.672  0.0469 -0.5878 -0.1815
   40POPC   O22 5338   6.004   5.901   6.657 -0.1777 -0.4918 -0.1000
   40POPC   C22 5339   5.833   5.732   6.705 -0.7133 -0.4795 -0.2576
   40POPC   H2R 5340   5.917   5.666   6.735 -1.4563 -2.8721 -3.2392
   40POPC   H2S 5341   5.795   5.686   6.611  1.0628 -0.9387 -0.7614
   40POPC    C3 5342   5.725   6.178   6.635  0.2540 -0.0215 -0.0805
   40POPC    HX 5343   5.629   6.133   6.602  0.3279 -1.4289  1.5652
   40POPC    HY 5344   5.740   6.274   6.581 -1.0799 -0.2027 -0.8026
   40POPC   O31 5345   5.710   6.197   6.775  0.2620 -0.2166 -0.0642
   40POPC   C31 5346   5.781   6.288   6.832  0.1931  0.0522  1.0848
   40POPC   O32 5347   5.889   6.340   6.795 -0.1316 -0.4036  0.3044
   40POPC   C32 5348   5.701   6.353   6.949  0.5385 -0.2167 -0.3419
   40POPC   H2X 5349   5.628   6.278   6.986  0.5492  0.0313  0.1917
   40POPC   H2Y 5350   5.638   6.431   6.900 -0.1712 -0.4121  0.2443
   40POPC   C23 5351   5.726   5.727   6.817  0.0074  0.1628 -0.1199
   40POPC   H3R 5352   5.662   5.636   6.812  0.2206  0.0512 -0.7196
   40POPC   H3S 5353   5.645   5.802   6.804 -1.8118 -1.0972  3.1336
   40POPC   C24 5354   5.784   5.729   6.965  0.4938  0.6991 -0.0550
   40POPC   H4R 5355   5.846   5.639   6.981  0.2957  0.2411 -1.7753
   40POPC   H4S 5356   5.696   5.718   7.033  0.3409  0.0630 -0.3535
   40POPC   C25 5357   5.872   5.854   7.004 -0.7598  0.2202  0.2565
   40POPC   H5R 5358   5.798   5.937   7.004  0.7886  1.6408  1.4354
   40POPC   H5S 5359   5.955   5.863   6.931 -1.0310 -1.9392 -0.3421
   40POPC   C26 5360   5.934   5.860   7.146  1.1816 -0.5276 -0.2510
   40POPC   H6R 5361   6.003   5.774   7.158  1.4616 -0.0224  1.8818
   40POPC   H6S 5362   5.855   5.849   7.223  0.4318 -0.7983 -1.0415
   40POPC   C27 5363   6.018   5.986   7.173  0.3039 -0.2627 -0.6156
   40POPC   H7R 5364   5.951   6.072   7.147 -0.3512 -0.2666  1.0375
   40POPC   H7S 5365   6.099   6.002   7.099  0.8255  0.5841  0.1231
   40POPC   C28 5366   6.081   5.999   7.314 -0.0200 -0.1403 -0.6998
   40POPC   H8R 5367   6.156   6.080   7.317  0.5133 -0.6614  0.7042
   40POPC   H8S 5368   6.125   5.899   7.331  2.6362  0.8291 -1.6708
   40POPC   C29 5369   5.984   6.032   7.422 -0.0341  0.3146 -0.0176
   40POPC   H91 5370   5.961   6.140   7.418 -1.5756 -0.0598 -2.1740
   40POPC  C210 5371   5.933   5.960   7.523  0.1577 -0.3258  0.6597
   40POPC  H101 5372   5.845   5.996   7.578 -0.4222 -0.3651 -0.2337
   40POPC  C211 5373   5.970   5.817   7.550 -0.2935 -0.6020 -0.2292
   40POPC  H11R 5374   6.076   5.801   7.518 -0.2468 -1.7055  0.4375
   40POPC  H11S 5375   5.907   5.752   7.485 -0.6642 -1.0478  0.5717
   40POPC  C212 5376   5.939   5.769   7.694  0.3670 -0.0425 -0.0104
   40POPC  H12R 5377   5.985   5.669   7.714  1.2990  0.0858 -1.4194
   40POPC  H12S 5378   5.829   5.766   7.707  0.4997  1.1543  1.5264
   40POPC  C213 5379   5.997   5.857   7.806  0.1400  0.1955 -0.4622
   40POPC  H13R 5380   5.961   5.960   7.782  2.5998  0.9389 -1.1309
   40POPC  H13S 5381   6.108   5.852   7.794  0.3241  1.1701  0.7255
   40POPC  C214 5382   5.962   5.819   7.947  0.1682  0.4295  0.3304
   40POPC  H14R 5383   6.009   5.878   8.029 -0.9557  1.0960  0.5098
   40POPC  H14S 5384   5.992   5.713   7.957 -2.1556 -0.6104 -2.8333
   40POPC  C215 5385   5.813   5.803   7.973 -0.6696 -0.2997  0.8251
   40POPC  H15R 5386   5.776   5.702   7.947 -3.7445  0.5637  1.6026
   40POPC  H15S 5387   5.751   5.877   7.917 -1.5971 -0.4851  1.5827
   40POPC  C216 5388   5.777   5.826   8.122 -0.5046 -0.4220 -0.3318
   40POPC  H16R 5389   5.808   5.925   8.163 -0.4206 -0.3764 -0.5018
   40POPC  H16S 5390   5.814   5.749   8.193 -2.0753 -1.9983 -1.1863
   40POPC  C217 5391   5.624   5.819   8.146  0.3224 -0.8947 -0.2618
   40POPC  H17R 5392   5.595   5.718   8.182  1.8184 -1.3308 -0.2554
   40POPC  H17S 5393   5.563   5.835   8.054 -2.4499  2.2896  2.0215
   40POPC  C218 5394   5.580   5.930   8.238  0.1618 -0.3616  0.5084
   40POPC  H18R 5395   5.625   5.924   8.339  0.7582  0.0881  0.2749
   40POPC  H18S 5396   5.469   5.924   8.232  0.1505  0.6465 -0.5612
   40POPC  H18T 5397   5.607   6.027   8.191 -1.1600 -0.2027  0.0503
   40POPC   C33 5398   5.799   6.399   7.063  0.6250 -0.8305 -0.1512
   40POPC   H3X 5399   5.866   6.477   7.021 -0.2518  0.4302  0.7484
   40POPC   H3Y 5400   5.853   6.308   7.097  1.8520  0.1552  0.5816
   40POPC   C34 5401   5.727   6.458   7.183  0.8020 -0.1796  0.0008
   40POPC   H4X 5402   5.657   6.378   7.215 -0.1152 -0.4603 -2.5832
   40POPC   H4Y 5403   5.667   6.546   7.154  1.7931  0.3066 -0.6005
   40POPC   C35 5404   5.827   6.486   7.292 -0.1336 -1.0636  0.1785
   40POPC   H5X 5405   5.901   6.567   7.271 -0.8754 -0.3777  0.2106
   40POPC   H5Y 5406   5.891   6.395   7.303 -1.5583 -2.0729  0.1585
   40POPC   C36 5407   5.758   6.497   7.430  0.8961 -0.0265 -0.3141
   40POPC   H6X 5408   5.844   6.493   7.500 -0.3695 -2.0882  1.1862
   40POPC   H6Y 5409   5.700   6.406   7.457 -0.9880  1.4085  0.6100
   40POPC   C37 5410   5.684   6.633   7.449  0.2780 -0.0825 -0.3076
   40POPC   H7X 5411   5.611   6.641   7.365  1.4646 -2.4670 -1.6241
   40POPC   H7Y 5412   5.763   6.711   7.449 -1.1041  1.3358 -0.9960
   40POPC   C38 5413   5.601   6.642   7.574 -0.5931  0.1493 -0.1397
   40POPC   H8X 5414   5.530   6.557   7.575  1.0979 -1.3623 -3.0706
   40POPC   H8Y 5415   5.544   6.736   7.586  1.3831  1.3155  0.3498
   40POPC   C39 5416   5.685   6.606   7.694 -0.0415 -0.1749  0.2461
   40POPC   H9X 5417   5.733   6.507   7.679 -0.8336 -0.1434 -2.9205
   40POPC   H9Y 5418   5.625   6.594   7.787 -0.1278 -0.8219  0.1077
   40POPC  C310 5419   5.794   6.715   7.724  0.3422  0.2854  0.5787
   40POPC  H10X 5420   5.865   6.707   7.639 -0.8516  0.0701 -0.4203
   40POPC  H10Y 5421   5.847   6.679   7.815 -0.9854 -0.0568  1.2355
   40POPC  C311 5422   5.750   6.851   7.752 -0.5626 -0.1517  0.8029
   40POPC  H11X 5423   5.686   6.854   7.842  0.6584 -1.0901  1.7299
   40POPC  H11Y 5424   5.692   6.872   7.660  1.4586  0.8409 -0.2968
   40POPC  C312 5425   5.858   6.958   7.768 -0.1200 -0.0969  0.1609
   40POPC  H12X 5426   5.798   7.046   7.799 -0.3915  0.6312 -2.3318
   40POPC  H12Y 5427   5.911   6.984   7.674 -0.0548 -1.5537 -0.2279
   40POPC  C313 5428   5.963   6.929   7.883 -0.6049  0.9302  0.2004
   40POPC  H13X 5429   6.042   7.008   7.878  0.5254 -0.1964 -0.0895
   40POPC  H13Y 5430   6.006   6.827   7.872 -0.1821  1.1745 -0.5084
   40POPC  C314 5431   5.897   6.936   8.023  0.4981 -0.6867 -0.6074
   40POPC  H14X 5432   5.833   6.846   8.032  0.0923 -0.5079 -1.6637
   40POPC  H14Y 5433   5.826   7.022   8.026  1.0163 -0.2629 -0.4688
   40POPC  C315 5434   5.994   6.936   8.139  0.0368 -0.9325 -0.6199
   40POPC  H15X 5435   6.045   7.034   8.137  1.1087 -1.3769  2.3958
   40POPC  H15Y 5436   6.081   6.870   8.115  1.2726  0.1743  0.7508
   40POPC  C316 5437   5.934   6.919   8.279 -1.0741 -0.3819  0.0972
   40POPC  H16X 5438   5.854   6.992   8.304  0.0009  1.0041 -0.4241
   40POPC  H16Y 5439   6.003   6.936   8.365 -0.0135 -1.7694 -0.4654
   40POPC  H16Z 5440   5.873   6.827   8.290  0.7372 -1.4859  1.0281
   41CHL1    C3 5441   5.136   3.068  10.020  0.4458  0.3141 -0.0242
   41CHL1    H3 5442   5.226   3.118   9.980  2.0428 -3.3208 -1.1198
   41CHL1    O3 5443   5.143   3.073  10.162  0.3209  0.2831  0.2238
   41CHL1   H3' 5444   5.068   3.022  10.193  0.2864  0.5534  0.5915
   41CHL1    C4 5445   5.007   3.149   9.967  0.2338 -0.7724 -0.1950
   41CHL1   H4A 5446   4.920   3.105  10.020  0.0319 -1.0696 -0.7666
   41CHL1   H4B 5447   5.016   3.256   9.996 -1.0549 -0.4839 -0.8376
   41CHL1    C5 5448   5.003   3.147   9.814 -0.3603 -0.2395 -0.5653
   41CHL1    C6 5449   4.995   3.256   9.739  0.3343  0.5222 -0.5339
   41CHL1    H6 5450   4.999   3.356   9.786 -0.4626  0.7826 -1.0180
   41CHL1    C7 5451   4.992   3.250   9.585  0.4317  0.6126  0.3499
   41CHL1   H7A 5452   4.908   3.313   9.550 -1.2251 -0.7676  1.7255
   41CHL1   H7B 5453   5.092   3.288   9.553  0.5671  0.8750  1.0810
   41CHL1    C8 5454   4.962   3.111   9.522  0.2089  0.3920 -0.4136
   41CHL1    H8 5455   4.853   3.096   9.534  0.4346  0.7083  2.2338
   41CHL1   C14 5456   4.993   3.108   9.377  0.5814  0.8841  0.0735
   41CHL1   H14 5457   5.101   3.125   9.360  1.1507 -3.6645 -1.3301
   41CHL1   C15 5458   4.928   3.214   9.289  0.1028 -1.0762  0.4169
   41CHL1  H15A 5459   4.834   3.250   9.337  0.7704 -0.1923  1.0824
   41CHL1  H15B 5460   4.994   3.304   9.292 -2.5366  0.9611 -0.0131
   41CHL1   C16 5461   4.929   3.147   9.144 -0.2915 -0.1467 -0.8309
   41CHL1  H16A 5462   4.820   3.130   9.130 -0.6021  0.3420  0.8807
   41CHL1  H16B 5463   4.968   3.206   9.058  3.7479 -1.2778  0.1235
   41CHL1   C17 5464   5.007   3.017   9.156 -0.4547 -0.7768 -0.2947
   41CHL1   H17 5465   5.117   3.034   9.158 -0.6787  0.5008  1.6989
   41CHL1   C13 5466   4.982   2.976   9.307  0.7439  0.6068 -0.2839
   41CHL1   C18 5467   4.832   2.933   9.315 -0.3759 -0.1624  0.3841
   41CHL1  H18A 5468   4.827   2.843   9.251  0.2727  0.4860 -0.5849
   41CHL1  H18B 5469   4.811   2.901   9.420  4.1090  3.1831  2.4596
   41CHL1  H18C 5470   4.760   3.004   9.269  1.8200 -0.1743 -3.2096
   41CHL1   C12 5471   5.074   2.874   9.376  0.7347  0.0189  0.4719
   41CHL1  H12A 5472   5.070   2.772   9.333 -5.4341 -0.3980  1.6292
   41CHL1  H12B 5473   5.181   2.905   9.372  1.3270 -2.0934 -1.6347
   41CHL1   C11 5474   5.046   2.861   9.521 -0.0946 -0.3837 -0.3166
   41CHL1  H11A 5475   4.952   2.802   9.534 -0.2973 -0.2941 -1.3692
   41CHL1  H11B 5476   5.129   2.815   9.578 -0.9834  0.4883  1.7427
   41CHL1    C9 5477   5.043   3.001   9.598  0.4980 -0.1054  0.6559
   41CHL1    H9 5478   5.150   3.032   9.591  0.2876  0.8926  1.8142
   41CHL1   C10 5479   5.011   2.999   9.749  0.5114  0.2842 -0.5892
   41CHL1   C19 5480   4.871   2.935   9.778 -1.1229 -0.0906  0.4787
   41CHL1  H19A 5481   4.877   2.827   9.753 -0.5759 -0.0377  0.3752
   41CHL1  H19B 5482   4.839   2.960   9.882 -1.1512  1.3120  0.1485
   41CHL1  H19C 5483   4.797   2.985   9.711  0.1383  0.4983 -0.4884
   41CHL1    C1 5484   5.122   2.906   9.821  0.5836 -0.0156  0.1128
   41CHL1   H1A 5485   5.095   2.800   9.803  1.5985 -0.4148  0.9522
   41CHL1   H1B 5486   5.219   2.930   9.772  1.4131 -2.1027  0.6862
   41CHL1    C2 5487   5.127   2.924   9.971 -0.4063 -0.6481  0.1345
   41CHL1   H2A 5488   5.212   2.863  10.007 -0.3717 -0.8473 -0.2739
   41CHL1   H2B 5489   5.039   2.875  10.018 -2.2751 -1.0709 -3.6171
   41CHL1   C20 5490   4.984   2.904   9.051  0.2169 -0.6146 -0.1456
   41CHL1   H20 5491   4.896   2.842   9.080  0.5035  0.4256  3.1508
   41CHL1   C21 5492   5.103   2.814   9.039 -0.0091  0.1803 -0.6680
   41CHL1  H21A 5493   5.124   2.745   9.124 -1.0501  1.0743  0.3450
   41CHL1  H21B 5494   5.197   2.873   9.027  1.3769 -1.1897  2.7252
   41CHL1  H21C 5495   5.118   2.750   8.950 -0.7933 -0.3421 -0.4309
   41CHL1   C22 5496   4.945   2.959   8.906  0.2718 -0.2678 -0.0755
   41CHL1  H22A 5497   4.929   2.878   8.831 -1.4315 -0.0036  0.0030
   41CHL1  H22B 5498   4.866   3.037   8.910  3.2266  2.7940  1.4806
   41CHL1   C23 5499   5.070   3.030   8.853  0.1379 -0.6897  0.1990
   41CHL1  H23A 5500   5.123   3.097   8.924 -0.8954 -1.0020  1.2815
   41CHL1  H23B 5501   5.144   2.954   8.821  1.0278 -0.3817  1.5010
   41CHL1   C24 5502   5.045   3.117   8.728  0.0671 -1.1234  0.0901
   41CHL1  H24A 5503   5.137   3.141   8.670  0.9667  2.9865  2.9956
   41CHL1  H24B 5504   4.965   3.071   8.666  0.1041 -0.5739 -0.3613
   41CHL1   C25 5505   5.003   3.267   8.758  0.6821  0.5861 -0.0400
   41CHL1   H25 5506   4.938   3.260   8.848 -0.8221  0.8799 -1.0813
   41CHL1   C26 5507   5.127   3.351   8.791  0.4812 -0.0890 -0.7566
   41CHL1  H26A 5508   5.210   3.343   8.717  1.4990 -0.4404  0.4062
   41CHL1  H26B 5509   5.086   3.451   8.816  1.0614  0.1699 -0.8356
   41CHL1  H26C 5510   5.169   3.319   8.889  1.8237  0.5122 -1.1248
   41CHL1   C27 5511   4.905   3.324   8.653  0.1271  0.0838  0.2101
   41CHL1  H27A 5512   4.948   3.300   8.553 -1.8001 -0.6288 -0.4753
   41CHL1  H27B 5513   4.805   3.275   8.657 -0.1551  0.4516 -1.7555
   41CHL1  H27C 5514   4.883   3.428   8.686  0.2304 -0.0541  0.7126
   42CHL1    C3 5515   4.569   3.283   9.892  0.0205  0.1236  0.4551
   42CHL1    H3 5516   4.680   3.285   9.892  0.0460 -0.7556  1.8626
   42CHL1    O3 5517   4.519   3.247  10.019  0.7460  0.2547  0.2325
   42CHL1   H3' 5518   4.424   3.239  10.005  1.0067 -1.1661 -0.8994
   42CHL1    C4 5519   4.530   3.427   9.849 -0.6665 -0.1808  0.2859
   42CHL1   H4A 5520   4.421   3.448   9.854 -0.4830  1.3757 -1.7226
   42CHL1   H4B 5521   4.581   3.506   9.907 -0.8258  0.4142 -0.3696
   42CHL1    C5 5522   4.573   3.447   9.704 -0.7471  0.1357 -0.6391
   42CHL1    C6 5523   4.656   3.548   9.665 -0.1276  0.3013 -0.3773
   42CHL1    H6 5524   4.700   3.619   9.736  1.8336  0.1463 -1.4109
   42CHL1    C7 5525   4.672   3.593   9.525  0.0224 -0.1867  0.4695
   42CHL1   H7A 5526   4.662   3.704   9.519  1.2304 -0.0376  1.1262
   42CHL1   H7B 5527   4.768   3.556   9.483 -0.1808 -0.2230  0.0357
   42CHL1    C8 5528   4.566   3.536   9.436 -0.5902 -0.7843  0.2345
   42CHL1    H8 5529   4.467   3.580   9.457 -0.4804 -0.1961 -0.4599
   42CHL1   C14 5530   4.604   3.570   9.290  0.0156  0.2217  0.0187
   42CHL1   H14 5531   4.702   3.517   9.281 -1.1418 -2.1768  0.9739
   42CHL1   C15 5532   4.617   3.715   9.242  0.5165  0.0288  0.1684
   42CHL1  H15A 5533   4.526   3.765   9.283  0.5479  1.2363 -1.1818
   42CHL1  H15B 5534   4.702   3.774   9.283  2.3032 -1.2206 -1.6276
   42CHL1   C16 5535   4.619   3.710   9.085 -0.0318 -0.2950  0.0919
   42CHL1  H16A 5536   4.553   3.786   9.037  1.8399  0.3345 -1.5676
   42CHL1  H16B 5537   4.718   3.727   9.039 -0.1641  1.1601  0.2949
   42CHL1   C17 5538   4.580   3.565   9.054 -0.4083  0.1523 -0.5255
   42CHL1   H17 5539   4.674   3.506   9.055 -1.1328 -1.0721  3.1381
   42CHL1   C13 5540   4.509   3.508   9.179  0.8433  0.4767 -0.2066
   42CHL1   C18 5541   4.367   3.565   9.188 -0.4658 -0.1030 -0.2680
   42CHL1  H18A 5542   4.368   3.674   9.167 -1.0727 -0.3019 -1.3480
   42CHL1  H18B 5543   4.299   3.516   9.115 -0.1866 -2.6628  1.1392
   42CHL1  H18C 5544   4.330   3.543   9.290  0.0196 -3.6782 -0.8021
   42CHL1   C12 5545   4.503   3.351   9.200 -0.3124 -0.6984 -0.2256
   42CHL1  H12A 5546   4.417   3.319   9.137  0.5658 -1.1036 -1.2271
   42CHL1  H12B 5547   4.601   3.302   9.181 -0.0611  0.0570 -0.9084
   42CHL1   C11 5548   4.467   3.320   9.349 -0.1383  0.5786 -0.0893
   42CHL1  H11A 5549   4.360   3.350   9.352 -1.0267 -2.2985 -0.8173
   42CHL1  H11B 5550   4.465   3.210   9.364  0.8158  0.1101 -3.0315
   42CHL1    C9 5551   4.559   3.389   9.457  0.4708 -0.0209 -0.2511
   42CHL1    H9 5552   4.658   3.342   9.438  0.3696 -0.6226  0.6608
   42CHL1   C10 5553   4.515   3.352   9.609 -0.1163  0.5473  0.6672
   42CHL1   C19 5554   4.358   3.352   9.615  0.9415 -0.0026  0.1111
   42CHL1  H19A 5555   4.309   3.441   9.571  0.7969 -1.0892 -1.9731
   42CHL1  H19B 5556   4.310   3.271   9.555  1.6143  1.4546 -2.4598
   42CHL1  H19C 5557   4.315   3.342   9.717  3.8716 -2.1797  1.1948
   42CHL1    C1 5558   4.565   3.210   9.651  0.8153  0.4531 -0.6452
   42CHL1   H1A 5559   4.528   3.133   9.580 -0.1589  0.0189  0.3234
   42CHL1   H1B 5560   4.675   3.208   9.641  1.0423  0.2545  1.6790
   42CHL1    C2 5561   4.527   3.168   9.796  0.5771  0.3184  0.1955
   42CHL1   H2A 5562   4.579   3.076   9.828 -1.5720 -0.5382  1.3252
   42CHL1   H2B 5563   4.420   3.146   9.778  0.9087 -1.3459  0.2173
   42CHL1   C20 5564   4.529   3.537   8.909  0.9686  0.1836 -0.1283
   42CHL1   H20 5565   4.419   3.529   8.921  1.0922 -0.2973  0.7437
   42CHL1   C21 5566   4.578   3.398   8.864 -0.0247  0.0199 -0.3883
   42CHL1  H21A 5567   4.532   3.328   8.937  1.6861  1.8712  2.5827
   42CHL1  H21B 5568   4.688   3.386   8.862  0.0526  0.5295  0.3790
   42CHL1  H21C 5569   4.535   3.371   8.765  1.3057  1.5672 -1.4051
   42CHL1   C22 5570   4.568   3.654   8.806  0.4062  0.5723 -0.4810
   42CHL1  H22A 5571   4.508   3.744   8.833 -1.5332 -0.9625  0.5008
   42CHL1  H22B 5572   4.677   3.673   8.818  0.3480  0.7855 -0.2890
   42CHL1   C23 5573   4.556   3.631   8.653  0.5253  0.2441  0.2238
   42CHL1  H23A 5574   4.594   3.715   8.590  0.1931 -1.3089 -2.0773
   42CHL1  H23B 5575   4.633   3.553   8.640  1.3362  1.2227 -0.9750
   42CHL1   C24 5576   4.416   3.608   8.600 -0.6233  0.0988  0.2691
   42CHL1  H24A 5577   4.366   3.556   8.685 -1.1629 -1.1648 -0.8050
   42CHL1  H24B 5578   4.364   3.706   8.596 -1.7689 -0.5422 -0.6990
   42CHL1   C25 5579   4.408   3.518   8.474  0.2755 -0.1133  0.1009
   42CHL1   H25 5580   4.438   3.418   8.513 -1.1202  0.0609  1.6749
   42CHL1   C26 5581   4.260   3.514   8.422 -0.2345 -0.4975 -0.6990
   42CHL1  H26A 5582   4.248   3.610   8.367  0.3986 -1.5999 -2.7901
   42CHL1  H26B 5583   4.244   3.446   8.336  1.2772 -0.5267 -0.9620
   42CHL1  H26C 5584   4.192   3.503   8.509  1.7029 -0.7328  0.8058
   42CHL1   C27 5585   4.514   3.564   8.368 -0.3965  0.2816  0.0241
   42CHL1  H27A 5586   4.490   3.667   8.334 -0.6204  0.2198 -0.0049
   42CHL1  H27B 5587   4.618   3.560   8.408 -0.8157  0.5265  1.1492
   42CHL1  H27C 5588   4.494   3.494   8.284  0.1082  0.1643 -0.0012
   43CHL1    C3 5589   5.379   2.135  10.138  0.8219 -0.1332 -0.6078
   43CHL1    H3 5590   5.339   2.041  10.095  2.0253 -0.3534 -1.2669
   43CHL1    O3 5591   5.436   2.108  10.267  0.7009  0.1358  0.5458
   43CHL1   H3' 5592   5.372   2.059  10.318 -1.6184  3.4006  0.9173
   43CHL1    C4 5593   5.481   2.200  10.047  1.2969 -0.3526  0.2820
   43CHL1   H4A 5594   5.516   2.292  10.099  0.7788 -0.1861  0.3390
   43CHL1   H4B 5595   5.566   2.128  10.043  1.6950  0.0798  0.8679
   43CHL1    C5 5596   5.420   2.225   9.910 -0.3318 -0.2900  0.2732
   43CHL1    C6 5597   5.476   2.173   9.802  0.2300 -0.2376  0.6735
   43CHL1    H6 5598   5.569   2.114   9.797  1.2012  1.3679 -0.7269
   43CHL1    C7 5599   5.425   2.197   9.658  0.9803 -0.7195  0.0396
   43CHL1   H7A 5600   5.500   2.234   9.585 -0.1613 -2.9243 -2.3328
   43CHL1   H7B 5601   5.396   2.099   9.614  0.4459 -2.1049  3.3117
   43CHL1    C8 5602   5.302   2.284   9.650 -0.1112  0.6147  0.9999
   43CHL1    H8 5603   5.342   2.388   9.645 -1.0272  0.9941  1.5176
   43CHL1   C14 5604   5.226   2.274   9.513 -0.0703 -0.4625  0.0310
   43CHL1   H14 5605   5.198   2.167   9.504 -1.5984 -0.0763  0.1118
   43CHL1   C15 5606   5.302   2.302   9.383 -0.7817 -0.1142  0.4981
   43CHL1  H15A 5607   5.367   2.392   9.390 -0.9146 -0.0288  0.6453
   43CHL1  H15B 5608   5.363   2.215   9.351  0.0415  1.2863 -1.8447
   43CHL1   C16 5609   5.197   2.328   9.276 -0.4670 -0.2298  0.1108
   43CHL1  H16A 5610   5.229   2.425   9.231 -2.6510  1.2043  1.5505
   43CHL1  H16B 5611   5.188   2.255   9.193 -1.0184 -0.9125  0.7625
   43CHL1   C17 5612   5.063   2.341   9.357 -0.0112 -0.2630 -0.0332
   43CHL1   H17 5613   5.018   2.239   9.356  0.3477 -0.4149 -0.6443
   43CHL1   C13 5614   5.102   2.359   9.505  0.1787 -0.0621  0.0650
   43CHL1   C18 5615   5.136   2.510   9.533 -0.3158  0.2178  0.1568
   43CHL1  H18A 5616   5.038   2.555   9.559  0.2397  1.4129  0.2241
   43CHL1  H18B 5617   5.202   2.517   9.622  0.8399  1.6011 -0.7818
   43CHL1  H18C 5618   5.193   2.560   9.451  0.4185 -0.6636  0.1194
   43CHL1   C12 5619   5.002   2.305   9.615  0.4730  0.1328 -0.3351
   43CHL1  H12A 5620   4.908   2.364   9.610 -0.0396 -0.4426  1.8285
   43CHL1  H12B 5621   4.976   2.198   9.604  0.4681  0.2607 -1.6313
   43CHL1   C11 5622   5.068   2.329   9.756 -0.5432 -0.3362 -0.2969
   43CHL1  H11A 5623   5.066   2.439   9.771 -1.2508 -0.2477 -0.9693
   43CHL1  H11B 5624   4.996   2.296   9.835 -0.5615  2.0190  0.7085
   43CHL1    C9 5625   5.204   2.258   9.772  0.0775  0.1714 -0.7845
   43CHL1    H9 5626   5.190   2.149   9.761  0.7137 -0.3076  2.5834
   43CHL1   C10 5627   5.273   2.288   9.910 -0.2921  0.1882  0.4287
   43CHL1   C19 5628   5.306   2.435   9.921  0.4955 -0.8987 -0.8756
   43CHL1  H19A 5629   5.215   2.497   9.907  0.4780 -0.4829  0.8811
   43CHL1  H19B 5630   5.347   2.463  10.021 -1.0032 -1.4999 -0.0719
   43CHL1  H19C 5631   5.382   2.470   9.848  0.7896  0.5254  0.1005
   43CHL1    C1 5632   5.184   2.239  10.028  0.9367  0.3949 -0.5053
   43CHL1   H1A 5633   5.089   2.289  10.054 -0.8368 -3.5227  1.0585
   43CHL1   H1B 5634   5.155   2.136   9.997 -1.5812  0.7373  0.6200
   43CHL1    C2 5635   5.265   2.228  10.157  0.3776  0.0293  0.6884
   43CHL1   H2A 5636   5.204   2.190  10.242 -0.9077  5.3461  2.3059
   43CHL1   H2B 5637   5.299   2.326  10.196 -0.7629  0.6019  0.2883
   43CHL1   C20 5638   4.960   2.432   9.285 -0.1072 -0.3312 -0.8269
   43CHL1   H20 5639   4.976   2.538   9.315 -0.8487  0.3208 -2.7048
   43CHL1   C21 5640   4.815   2.385   9.329 -0.3323 -0.2471 -0.0283
   43CHL1  H21A 5641   4.805   2.363   9.438 -1.4972  0.1988 -0.0400
   43CHL1  H21B 5642   4.788   2.290   9.280 -1.3587  1.5935 -3.1310
   43CHL1  H21C 5643   4.741   2.460   9.295  0.8977  0.9510 -0.1026
   43CHL1   C22 5644   4.963   2.426   9.128  0.3241  0.0674 -0.0919
   43CHL1  H22A 5645   5.048   2.492   9.102 -0.1404  0.2337 -1.2267
   43CHL1  H22B 5646   4.980   2.324   9.089  4.4376 -0.2463  2.2399
   43CHL1   C23 5647   4.854   2.496   9.048  0.4029 -0.0819 -0.0243
   43CHL1  H23A 5648   4.756   2.452   9.078  1.4946 -1.7906  1.0828
   43CHL1  H23B 5649   4.862   2.603   9.078  2.6807 -0.4840  0.8822
   43CHL1   C24 5650   4.870   2.485   8.894  0.1837  0.7187  0.1709
   43CHL1  H24A 5651   4.974   2.508   8.863  0.3662 -0.6463 -0.2326
   43CHL1  H24B 5652   4.846   2.381   8.864  2.0132  0.5657 -0.8413
   43CHL1   C25 5653   4.770   2.580   8.813 -0.5936  0.4993 -0.3092
   43CHL1   H25 5654   4.800   2.683   8.841 -0.1631  0.0444  0.9723
   43CHL1   C26 5655   4.796   2.570   8.654  0.2553 -0.2842  0.4433
   43CHL1  H26A 5656   4.771   2.466   8.622  0.2287 -0.0080 -0.4500
   43CHL1  H26B 5657   4.735   2.642   8.596 -0.6786 -0.9116  0.6429
   43CHL1  H26C 5658   4.902   2.587   8.623 -0.0878 -2.5213 -2.1480
   43CHL1   C27 5659   4.623   2.542   8.830 -0.0740 -0.1357 -0.3748
   43CHL1  H27A 5660   4.550   2.604   8.775  0.0404  0.8969  0.6298
   43CHL1  H27B 5661   4.610   2.436   8.799 -0.9213 -0.3137  0.5579
   43CHL1  H27C 5662   4.586   2.547   8.934  2.1976 -2.6218  0.6154
   44CHL1    C3 5663   5.667   3.179  10.139 -0.9499 -0.4143 -0.7425
   44CHL1    H3 5664   5.734   3.094  10.111  0.1322  0.1004  0.2426
   44CHL1    O3 5665   5.667   3.173  10.284 -0.2487 -0.1204 -0.0617
   44CHL1   H3' 5666   5.637   3.260  10.310 -1.5225 -0.4769 -0.2890
   44CHL1    C4 5667   5.706   3.323  10.083 -0.1158  0.4170  0.1031
   44CHL1   H4A 5668   5.642   3.406  10.121 -0.8063 -1.0599  2.2267
   44CHL1   H4B 5669   5.813   3.341  10.107 -0.4450 -1.2121  2.9562
   44CHL1    C5 5670   5.693   3.326   9.931 -0.3624 -0.2894  0.1911
   44CHL1    C6 5671   5.786   3.373   9.843  0.1295 -0.2231 -0.1947
   44CHL1    H6 5672   5.885   3.411   9.873  0.0064 -1.3891  1.7679
   44CHL1    C7 5673   5.767   3.385   9.695  0.0945 -0.0149  0.1382
   44CHL1   H7A 5674   5.825   3.472   9.655  0.2505  0.3130  1.0577
   44CHL1   H7B 5675   5.812   3.291   9.655  2.3375  0.7577  0.7379
   44CHL1    C8 5676   5.618   3.387   9.657  0.4084  0.7751 -0.7880
   44CHL1    H8 5677   5.577   3.486   9.685 -1.1189 -0.2997  0.9020
   44CHL1   C14 5678   5.599   3.364   9.503 -0.0763  0.2242 -0.0730
   44CHL1   H14 5679   5.639   3.261   9.496 -0.2073  0.2337 -1.0912
   44CHL1   C15 5680   5.692   3.452   9.410  0.4964 -0.1420  0.0827
   44CHL1  H15A 5681   5.672   3.553   9.451 -1.0865 -0.6504  0.6087
   44CHL1  H15B 5682   5.800   3.426   9.421  0.2219 -1.4643 -0.2334
   44CHL1   C16 5683   5.630   3.438   9.273 -0.0718  0.0823  0.4109
   44CHL1  H16A 5684   5.604   3.544   9.255 -0.7903 -0.2864 -0.8414
   44CHL1  H16B 5685   5.696   3.398   9.193 -0.8244 -0.6390  0.1284
   44CHL1   C17 5686   5.496   3.359   9.291  0.8953 -0.2408 -0.0560
   44CHL1   H17 5687   5.525   3.252   9.282 -0.5023 -0.7398  1.1974
   44CHL1   C13 5688   5.455   3.364   9.442 -0.4473  0.3961 -0.2768
   44CHL1   C18 5689   5.391   3.504   9.469 -0.7995 -0.2465 -0.1860
   44CHL1  H18A 5690   5.368   3.536   9.573  1.4193  0.5381  0.1021
   44CHL1  H18B 5691   5.454   3.588   9.431 -0.8811 -0.5058 -0.9108
   44CHL1  H18C 5692   5.290   3.510   9.423 -0.8145  0.9332 -0.0113
   44CHL1   C12 5693   5.383   3.250   9.523 -0.1861  0.0918 -0.6342
   44CHL1  H12A 5694   5.275   3.249   9.499 -0.3912 -1.6221  0.2964
   44CHL1  H12B 5695   5.436   3.155   9.501  0.7603  0.4328  0.0897
   44CHL1   C11 5696   5.389   3.268   9.672 -0.3965  0.0365  0.2480
   44CHL1  H11A 5697   5.323   3.350   9.706 -1.0185 -0.0481 -0.7438
   44CHL1  H11B 5698   5.346   3.171   9.706 -1.0674  0.5815  0.9570
   44CHL1    C9 5699   5.534   3.278   9.732 -0.0798 -0.3363  0.0269
   44CHL1    H9 5700   5.583   3.179   9.717  2.2265  0.2820  2.9219
   44CHL1   C10 5701   5.551   3.297   9.882  0.0402 -0.5715 -0.2884
   44CHL1   C19 5702   5.454   3.411   9.929  0.6843  0.4020  0.1360
   44CHL1  H19A 5703   5.457   3.505   9.869 -1.7863 -0.3356 -1.2461
   44CHL1  H19B 5704   5.351   3.371   9.914  0.5593  0.4183  0.9526
   44CHL1  H19C 5705   5.449   3.427  10.038  0.0029 -2.9038  0.6473
   44CHL1    C1 5706   5.510   3.163   9.944 -0.5060 -0.1378 -0.4495
   44CHL1   H1A 5707   5.412   3.119   9.918  0.9369 -2.9303 -1.4444
   44CHL1   H1B 5708   5.585   3.088   9.911 -0.6780 -0.2283 -0.6344
   44CHL1    C2 5709   5.521   3.155  10.099 -0.6789  0.7380 -0.4177
   44CHL1   H2A 5710   5.489   3.059  10.143  0.1909  1.4665  1.8381
   44CHL1   H2B 5711   5.464   3.231  10.156 -0.2032  0.2710  0.6790
   44CHL1   C20 5712   5.385   3.375   9.177 -0.9527 -0.1666  0.2029
   44CHL1   H20 5713   5.335   3.473   9.192  0.8616  0.7544  0.4080
   44CHL1   C21 5714   5.274   3.271   9.201  0.5313 -0.4052  0.1392
   44CHL1  H21A 5715   5.230   3.293   9.301 -1.0342  2.1121 -1.0545
   44CHL1  H21B 5716   5.308   3.166   9.196  1.2958 -0.1801  0.5047
   44CHL1  H21C 5717   5.200   3.286   9.120 -0.0453 -0.7317  0.6004
   44CHL1   C22 5718   5.438   3.397   9.036  0.4101  0.3080 -0.2612
   44CHL1  H22A 5719   5.347   3.420   8.976 -0.7762 -0.1985  1.2994
   44CHL1  H22B 5720   5.517   3.474   9.032 -1.6826  2.5841  0.7726
   44CHL1   C23 5721   5.510   3.275   8.985 -0.2286  0.4316  0.5121
   44CHL1  H23A 5722   5.600   3.245   9.042 -0.9925 -2.2802  0.3327
   44CHL1  H23B 5723   5.427   3.202   8.995  0.7768 -0.7190  0.6273
   44CHL1   C24 5724   5.555   3.270   8.842 -0.2893 -0.2106 -0.1040
   44CHL1  H24A 5725   5.481   3.316   8.772 -0.6521  2.6712  2.0639
   44CHL1  H24B 5726   5.645   3.334   8.832  0.0403 -0.3831  1.5546
   44CHL1   C25 5727   5.565   3.124   8.790  0.2463  0.0676 -0.0620
   44CHL1   H25 5728   5.606   3.063   8.873  0.4396  0.1092 -0.1253
   44CHL1   C26 5729   5.422   3.072   8.757  0.2458 -0.3290  0.1511
   44CHL1  H26A 5730   5.373   3.043   8.852  2.0657 -1.2590  0.8456
   44CHL1  H26B 5731   5.363   3.151   8.706 -1.9212 -1.1711  1.3167
   44CHL1  H26C 5732   5.421   2.985   8.687  0.5641 -0.3212  0.1371
   44CHL1   C27 5733   5.650   3.116   8.663  0.3135  0.5920  0.2375
   44CHL1  H27A 5734   5.756   3.151   8.671 -0.3519  2.8657 -0.4548
   44CHL1  H27B 5735   5.658   3.013   8.623  0.0957  0.3852  0.7272
   44CHL1  H27C 5736   5.599   3.190   8.597  0.3969  1.5028  1.1811
   45CHL1    C3 5737   1.830   1.550  10.267  0.2107  0.2691 -1.1020
   45CHL1    H3 5738   1.939   1.557  10.290 -0.4066  0.2928  2.0996
   45CHL1    O3 5739   1.754   1.585  10.379  0.6890 -0.0276 -0.1661
   45CHL1   H3' 5740   1.812   1.615  10.449  1.3962  1.4952 -1.3949
   45CHL1    C4 5741   1.790   1.652  10.157  0.4291  0.4133 -0.0190
   45CHL1   H4A 5742   1.680   1.664  10.152  0.0904 -1.1365  2.5052
   45CHL1   H4B 5743   1.817   1.756  10.185  0.0617  0.5501 -0.1800
   45CHL1    C5 5744   1.853   1.614  10.018  0.5925 -0.5904  0.0656
   45CHL1    C6 5745   1.937   1.698   9.958  0.1648 -0.3914 -0.1906
   45CHL1    H6 5746   1.942   1.799  10.001 -0.3497 -0.5310  0.2115
   45CHL1    C7 5747   2.009   1.678   9.826  0.5375 -0.6480 -0.0768
   45CHL1   H7A 5748   2.017   1.774   9.772 -1.5514 -0.6406 -0.4123
   45CHL1   H7B 5749   2.108   1.633   9.846  0.0554 -1.1251  1.2987
   45CHL1    C8 5750   1.937   1.569   9.747 -0.1762 -0.0990  0.0828
   45CHL1    H8 5751   2.019   1.532   9.681  1.0281  2.2097  0.2372
   45CHL1   C14 5752   1.823   1.616   9.651  0.6336 -0.2829  0.5307
   45CHL1   H14 5753   1.732   1.659   9.697  0.5887 -1.6186  1.7459
   45CHL1   C15 5754   1.884   1.725   9.553  0.2749  0.1861 -0.3490
   45CHL1  H15A 5755   1.803   1.798   9.530  0.4875  1.2918  2.2246
   45CHL1  H15B 5756   1.983   1.774   9.564 -0.2797  0.8791  1.7690
   45CHL1   C16 5757   1.922   1.643   9.429  0.2744 -0.0715  0.3228
   45CHL1  H16A 5758   1.859   1.693   9.352  1.7594 -0.4973 -1.1880
   45CHL1  H16B 5759   2.029   1.662   9.409  0.2602 -2.1890 -1.9331
   45CHL1   C17 5760   1.880   1.492   9.451 -0.0650  0.1576 -0.4686
   45CHL1   H17 5761   1.966   1.449   9.506  0.0785  0.5041 -0.4230
   45CHL1   C13 5762   1.771   1.498   9.558 -0.0806  0.4961 -0.5878
   45CHL1   C18 5763   1.637   1.557   9.495 -0.3231  0.2482  0.4238
   45CHL1  H18A 5764   1.569   1.586   9.578  0.3416 -0.9097  1.3814
   45CHL1  H18B 5765   1.652   1.648   9.433 -0.1072  0.0507  0.1879
   45CHL1  H18C 5766   1.588   1.476   9.436 -0.9782  0.6327  0.4310
   45CHL1   C12 5767   1.744   1.372   9.640 -0.3280  0.4517 -0.2278
   45CHL1  H12A 5768   1.650   1.388   9.696  1.5105  2.1921  2.4808
   45CHL1  H12B 5769   1.711   1.291   9.572 -1.0072  0.6554 -0.1412
   45CHL1   C11 5770   1.840   1.329   9.747  0.0448 -0.3732 -0.0381
   45CHL1  H11A 5771   1.805   1.250   9.816  0.5247  0.1864  0.8625
   45CHL1  H11B 5772   1.935   1.290   9.704  0.8877  1.2651  0.2598
   45CHL1    C9 5773   1.896   1.446   9.839 -0.0715  0.2044 -0.2305
   45CHL1    H9 5774   1.996   1.415   9.878  0.4090 -0.4297 -1.9424
   45CHL1   C10 5775   1.814   1.475   9.968 -0.5038  0.1102  0.3492
   45CHL1   C19 5776   1.661   1.490   9.941 -0.3251 -0.3158  0.1737
   45CHL1  H19A 5777   1.605   1.525  10.030 -0.0560  2.4125 -0.6862
   45CHL1  H19B 5778   1.634   1.554   9.854  0.8046  0.6279  0.5020
   45CHL1  H19C 5779   1.615   1.392   9.914  0.2336 -0.0625 -1.8136
   45CHL1    C1 5780   1.844   1.373  10.073  0.2201 -0.3743  0.4662
   45CHL1   H1A 5781   1.792   1.282  10.037  0.3622 -0.2376 -0.0773
   45CHL1   H1B 5782   1.949   1.339  10.078  0.5607  0.6621  0.3873
   45CHL1    C2 5783   1.801   1.412  10.223  0.7306  0.2957  0.9390
   45CHL1   H2A 5784   1.851   1.339  10.290 -0.0021  0.6405  1.8653
   45CHL1   H2B 5785   1.690   1.404  10.222  0.8962 -2.7337 -1.4767
   45CHL1   C20 5786   1.854   1.425   9.319 -0.2012  0.1675 -0.2293
   45CHL1   H20 5787   1.761   1.466   9.274 -1.1386 -0.3248  1.2391
   45CHL1   C21 5788   1.826   1.272   9.336  0.1528 -0.2474 -0.1495
   45CHL1  H21A 5789   1.891   1.232   9.417  1.0726  1.9363  0.2386
   45CHL1  H21B 5790   1.846   1.222   9.240  2.1203  0.5934 -0.2067
   45CHL1  H21C 5791   1.717   1.259   9.354  0.3764 -0.5232  1.0732
   45CHL1   C22 5792   1.972   1.441   9.220  0.3125 -0.0578 -0.2058
   45CHL1  H22A 5793   1.944   1.378   9.132  1.5769 -0.9462  0.0059
   45CHL1  H22B 5794   1.979   1.540   9.172 -2.0187 -0.5064 -1.5367
   45CHL1   C23 5795   2.104   1.385   9.266  0.1423  0.3772  0.9286
   45CHL1  H23A 5796   2.146   1.458   9.339  0.4604  0.0985  1.0270
   45CHL1  H23B 5797   2.080   1.294   9.326  1.6906  0.0734  1.1108
   45CHL1   C24 5798   2.204   1.346   9.158  0.2368 -0.0592  0.4275
   45CHL1  H24A 5799   2.158   1.263   9.100  0.5039 -0.0159  0.1532
   45CHL1  H24B 5800   2.236   1.427   9.089 -2.0950 -0.7951 -1.6216
   45CHL1   C25 5801   2.333   1.285   9.211  0.7507  0.0222  0.5216
   45CHL1   H25 5802   2.310   1.211   9.291  1.7644 -1.1068 -0.2135
   45CHL1   C26 5803   2.408   1.208   9.100 -0.5922 -0.3606  0.3100
   45CHL1  H26A 5804   2.499   1.154   9.135  1.3699  1.7033 -1.4057
   45CHL1  H26B 5805   2.336   1.139   9.052 -1.1643 -1.6618  2.9658
   45CHL1  H26C 5806   2.440   1.282   9.023 -2.4777 -0.4683 -0.6013
   45CHL1   C27 5807   2.429   1.398   9.274  1.3921 -0.4543  0.4736
   45CHL1  H27A 5808   2.385   1.449   9.363  1.4424  1.3722 -0.5319
   45CHL1  H27B 5809   2.527   1.358   9.307  2.1271 -0.8075 -2.0852
   45CHL1  H27C 5810   2.452   1.474   9.196  2.6284 -0.8575  0.4466
   46CHL1    C3 5811   5.058   6.154   9.847 -1.0233  0.0512 -0.6535
   46CHL1    H3 5812   5.020   6.258   9.844 -1.6361 -0.1750 -0.8323
   46CHL1    O3 5813   5.100   6.144   9.984 -0.1123  0.3565 -0.3287
   46CHL1   H3' 5814   5.025   6.171  10.037  0.5822  1.6544  0.0142
   46CHL1    C4 5815   4.937   6.064   9.816 -0.1716 -0.4334 -0.2755
   46CHL1   H4A 5816   4.962   5.956   9.826 -2.2483 -0.8340  0.7443
   46CHL1   H4B 5817   4.852   6.088   9.883  0.8602  2.3921  0.0694
   46CHL1    C5 5818   4.898   6.086   9.664 -0.3147  0.2473  0.2887
   46CHL1    C6 5819   4.777   6.127   9.631  0.8176 -0.7366  0.0062
   46CHL1    H6 5820   4.695   6.138   9.704 -0.6426 -2.0768 -1.4007
   46CHL1    C7 5821   4.731   6.138   9.490 -0.1988 -0.0321  0.2446
   46CHL1   H7A 5822   4.633   6.090   9.469  0.8559 -2.0847 -0.0858
   46CHL1   H7B 5823   4.707   6.244   9.467  0.2387  0.0225  0.0394
   46CHL1    C8 5824   4.825   6.074   9.384  0.8880  0.3624  0.2191
   46CHL1    H8 5825   4.804   5.966   9.397 -2.2745  0.7639 -0.9685
   46CHL1   C14 5826   4.785   6.106   9.241  0.0222 -0.5370 -0.3457
   46CHL1   H14 5827   4.801   6.216   9.238 -0.3711 -0.4409  0.7837
   46CHL1   C15 5828   4.643   6.100   9.198 -0.6217 -0.1573  0.5118
   46CHL1  H15A 5829   4.575   6.026   9.246 -0.5723  0.3722  1.4064
   46CHL1  H15B 5830   4.591   6.195   9.224 -2.5478 -0.3710 -2.2751
   46CHL1   C16 5831   4.651   6.093   9.052 -0.0578  1.6811 -0.2936
   46CHL1  H16A 5832   4.619   5.997   9.006 -0.0553  1.6660 -0.2623
   46CHL1  H16B 5833   4.592   6.171   9.000 -2.4912  0.1944  0.1445
   46CHL1   C17 5834   4.808   6.114   9.013 -0.1127 -0.1343  0.1817
   46CHL1   H17 5835   4.829   6.223   9.016  1.8290 -0.4730 -0.0075
   46CHL1   C13 5836   4.882   6.055   9.136 -0.0638  0.1881  0.5472
   46CHL1   C18 5837   4.882   5.893   9.131 -0.3721 -0.0523 -0.2208
   46CHL1  H18A 5838   4.785   5.845   9.106 -0.2872  0.3241 -1.2691
   46CHL1  H18B 5839   4.946   5.874   9.043  1.9969  2.2433  0.9344
   46CHL1  H18C 5840   4.942   5.846   9.211 -3.6953 -1.3363  1.6367
   46CHL1   C12 5841   5.024   6.110   9.169  0.2551  0.8793 -0.2014
   46CHL1  H12A 5842   5.092   6.063   9.096 -0.2863 -1.1339  0.5714
   46CHL1  H12B 5843   5.021   6.220   9.153 -2.0322  0.8471 -0.1166
   46CHL1   C11 5844   5.075   6.073   9.308  0.2144  0.7089 -0.2549
   46CHL1  H11A 5845   5.095   5.964   9.297  1.4496  0.8878  0.0928
   46CHL1  H11B 5846   5.167   6.131   9.329  2.4029 -3.0708  1.2505
   46CHL1    C9 5847   4.970   6.105   9.421  0.3027 -0.4292  0.3244
   46CHL1    H9 5848   4.978   6.216   9.418  2.1992 -0.5238  0.8959
   46CHL1   C10 5849   5.013   6.073   9.562 -0.4997 -0.3077  0.5986
   46CHL1   C19 5850   5.055   5.921   9.561  0.4436  0.4708 -0.1301
   46CHL1  H19A 5851   5.143   5.905   9.495 -1.2133  0.7537 -2.4959
   46CHL1  H19B 5852   5.091   5.876   9.656  0.8921 -0.7640 -0.8733
   46CHL1  H19C 5853   4.969   5.856   9.537 -0.8358  1.1152  2.5011
   46CHL1    C1 5854   5.131   6.162   9.606 -0.7333  0.0585 -0.2498
   46CHL1   H1A 5855   5.215   6.129   9.541 -0.4739 -1.1383  0.6639
   46CHL1   H1B 5856   5.113   6.270   9.589  0.1272  0.2541  0.0489
   46CHL1    C2 5857   5.179   6.139   9.754  0.1213 -0.0624  0.0775
   46CHL1   H2A 5858   5.257   6.215   9.778 -0.4006 -0.4210  3.0250
   46CHL1   H2B 5859   5.227   6.041   9.775  1.0902  0.6870  1.4184
   46CHL1   C20 5860   4.851   6.068   8.872  0.0727 -0.2546  0.0422
   46CHL1   H20 5861   4.859   5.957   8.871  2.0249 -0.1362 -0.7671
   46CHL1   C21 5862   4.992   6.106   8.830  1.2053  0.0473  0.4390
   46CHL1  H21A 5863   4.998   6.215   8.812  0.5880 -0.0256 -0.2471
   46CHL1  H21B 5864   5.014   6.052   8.735 -1.5478  0.5187 -0.5183
   46CHL1  H21C 5865   5.058   6.069   8.911 -0.4266 -0.1017  1.7386
   46CHL1   C22 5866   4.758   6.116   8.749 -0.3496 -0.0143 -0.0361
   46CHL1  H22A 5867   4.793   6.062   8.658 -0.7685  0.0691 -0.2478
   46CHL1  H22B 5868   4.657   6.075   8.770 -0.6103 -0.9024 -2.8906
   46CHL1   C23 5869   4.760   6.267   8.717  0.3428 -0.1350 -0.0554
   46CHL1  H23A 5870   4.731   6.314   8.814  0.2602 -1.6419  0.6769
   46CHL1  H23B 5871   4.854   6.318   8.687  0.0688 -0.5976 -1.7266
   46CHL1   C24 5872   4.644   6.295   8.632  0.2921 -0.2962 -0.2044
   46CHL1  H24A 5873   4.553   6.247   8.676 -1.3226 -0.1035 -3.2182
   46CHL1  H24B 5874   4.613   6.402   8.636 -2.7263 -1.1435  0.6682
   46CHL1   C25 5875   4.656   6.247   8.488  0.0670 -0.5469  0.6549
   46CHL1   H25 5876   4.699   6.145   8.484 -0.9238 -0.9349 -0.4232
   46CHL1   C26 5877   4.515   6.234   8.428 -0.5330 -0.4936 -0.3703
   46CHL1  H26A 5878   4.454   6.172   8.497  2.4267 -1.6835  1.2752
   46CHL1  H26B 5879   4.472   6.336   8.424 -0.5552 -0.3845  2.0413
   46CHL1  H26C 5880   4.539   6.186   8.330  0.6609 -0.2838 -0.1838
   46CHL1   C27 5881   4.747   6.344   8.405 -0.1411 -0.1428 -0.0908
   46CHL1  H27A 5882   4.684   6.434   8.391  0.6754  0.8370  2.3643
   46CHL1  H27B 5883   4.833   6.375   8.467  1.0683 -0.8805 -1.3684
   46CHL1  H27C 5884   4.780   6.302   8.307  0.0877 -1.7362  0.6591
   47CHL1    C3 5885   5.798   2.684  10.062 -0.3864 -0.2477 -0.3320
   47CHL1    H3 5886   5.903   2.666  10.031 -0.4264 -0.1236 -0.5451
   47CHL1    O3 5887   5.808   2.686  10.207 -0.3192  0.7469  1.1405
   47CHL1   H3' 5888   5.867   2.616  10.235 -1.8763 -0.7997  0.7024
   47CHL1    C4 5889   5.760   2.828  10.020  0.4403  0.0445 -0.1011
   47CHL1   H4A 5890   5.662   2.846  10.069 -0.2674 -0.4225 -1.3176
   47CHL1   H4B 5891   5.837   2.894  10.064  1.0901 -1.2220  0.6981
   47CHL1    C5 5892   5.760   2.854   9.871  0.5599  0.0554 -0.0359
   47CHL1    C6 5893   5.822   2.944   9.798 -0.0010 -0.6837 -0.5248
   47CHL1    H6 5894   5.892   3.015   9.845  1.4849 -2.1558 -0.4693
   47CHL1    C7 5895   5.820   2.952   9.644  0.7507  0.2955  0.0310
   47CHL1   H7A 5896   5.798   3.057   9.615 -1.2916 -0.2830 -0.6176
   47CHL1   H7B 5897   5.914   2.904   9.609  0.6773 -2.3737  3.1646
   47CHL1    C8 5898   5.703   2.867   9.581  0.1671  0.5628  0.1406
   47CHL1    H8 5899   5.619   2.935   9.608 -0.2332 -0.9496  2.8674
   47CHL1   C14 5900   5.716   2.858   9.431  0.3668  0.0434  0.1057
   47CHL1   H14 5901   5.812   2.805   9.410 -1.3647 -2.9562 -0.5312
   47CHL1   C15 5902   5.708   2.991   9.352  0.2625  0.3112  0.4649
   47CHL1  H15A 5903   5.615   3.051   9.364 -0.9998 -1.3040 -1.0220
   47CHL1  H15B 5904   5.795   3.058   9.366  1.5455 -1.2351  0.0374
   47CHL1   C16 5905   5.694   2.938   9.211 -0.5520  0.1696 -0.1496
   47CHL1  H16A 5906   5.623   3.006   9.158 -0.0848  0.6939 -0.1024
   47CHL1  H16B 5907   5.783   2.942   9.145  0.6607  1.5950  1.5466
   47CHL1   C17 5908   5.641   2.790   9.218 -0.4360 -0.7488 -0.0128
   47CHL1   H17 5909   5.730   2.731   9.188 -0.2667  0.9638 -3.0736
   47CHL1   C13 5910   5.614   2.768   9.360 -0.1217  0.4255 -0.3134
   47CHL1   C18 5911   5.468   2.809   9.394 -0.8454  0.3354 -0.2581
   47CHL1  H18A 5912   5.454   2.845   9.498 -0.5295  2.5375 -0.9530
   47CHL1  H18B 5913   5.430   2.883   9.319  0.9282  1.1554 -0.3697
   47CHL1  H18C 5914   5.394   2.728   9.374  2.4002 -2.3441 -1.8740
   47CHL1   C12 5915   5.644   2.628   9.413  0.2388  0.5970  0.5718
   47CHL1  H12A 5916   5.587   2.555   9.351 -0.7951  4.0092 -2.6708
   47CHL1  H12B 5917   5.747   2.612   9.375 -0.2329  2.3507 -1.5367
   47CHL1   C11 5918   5.632   2.621   9.563 -0.4280  0.0536  0.1753
   47CHL1  H11A 5919   5.525   2.624   9.591  0.6662 -0.1110  4.7874
   47CHL1  H11B 5920   5.661   2.515   9.575 -1.7930 -0.4161 -0.6020
   47CHL1    C9 5921   5.709   2.729   9.647  0.3757 -0.0014  0.3500
   47CHL1    H9 5922   5.815   2.703   9.628  0.1369 -0.5677 -0.1899
   47CHL1   C10 5923   5.682   2.739   9.799 -0.1847  0.3791  0.2945
   47CHL1   C19 5924   5.529   2.768   9.816  0.6207 -0.0670 -0.1165
   47CHL1  H19A 5925   5.492   2.839   9.739 -0.0705  0.8140  1.0079
   47CHL1  H19B 5926   5.472   2.672   9.815  1.1305 -0.3648 -1.8471
   47CHL1  H19C 5927   5.495   2.809   9.913 -3.8984  0.5731 -1.8146
   47CHL1    C1 5928   5.716   2.596   9.856 -0.7060  0.0022 -0.3702
   47CHL1   H1A 5929   5.660   2.514   9.806 -1.6773  0.0591  0.6082
   47CHL1   H1B 5930   5.819   2.568   9.826 -0.1398 -0.8981  2.2443
   47CHL1    C2 5931   5.708   2.578  10.009 -0.0873 -0.3576 -0.0158
   47CHL1   H2A 5932   5.762   2.487  10.045  0.9615 -0.4340 -1.6987
   47CHL1   H2B 5933   5.607   2.594  10.052  0.2388  1.0429  0.2196
   47CHL1   C20 5934   5.524   2.751   9.111  0.1673 -0.4100 -0.3279
   47CHL1   H20 5935   5.436   2.816   9.133  1.5902  1.2877  0.3953
   47CHL1   C21 5936   5.477   2.602   9.114 -0.0318  0.1505 -0.0939
   47CHL1  H21A 5937   5.423   2.574   9.022  1.2621  1.4497 -1.2813
   47CHL1  H21B 5938   5.419   2.585   9.207 -0.5500 -0.2574 -0.4928
   47CHL1  H21C 5939   5.559   2.528   9.127 -0.2757 -0.0819  0.1162
   47CHL1   C22 5940   5.562   2.781   8.966  0.4385 -0.1380 -0.4003
   47CHL1  H22A 5941   5.480   2.744   8.900 -0.0297 -0.9715  0.6272
   47CHL1  H22B 5942   5.575   2.890   8.954 -1.1970  0.2064  0.7313
   47CHL1   C23 5943   5.690   2.711   8.909  0.8136 -0.2215 -0.8435
   47CHL1  H23A 5944   5.769   2.770   8.960 -0.5181  1.0332 -0.2121
   47CHL1  H23B 5945   5.697   2.607   8.948  0.7492  0.8984  2.3466
   47CHL1   C24 5946   5.708   2.732   8.758 -0.3544  0.0915 -0.0511
   47CHL1  H24A 5947   5.608   2.714   8.711 -0.0387 -0.3485 -0.5541
   47CHL1  H24B 5948   5.737   2.836   8.732  1.7610 -0.6061 -0.4971
   47CHL1   C25 5949   5.810   2.633   8.688 -0.0128 -0.5437  0.1458
   47CHL1   H25 5950   5.787   2.528   8.714  2.3385 -0.9134  0.8859
   47CHL1   C26 5951   5.794   2.656   8.540 -0.8238 -0.1127  0.3796
   47CHL1  H26A 5952   5.820   2.757   8.503 -1.1093 -0.1214  0.1478
   47CHL1  H26B 5953   5.695   2.626   8.500  0.3112 -0.7963 -2.0498
   47CHL1  H26C 5954   5.863   2.579   8.499 -0.7746 -0.5020  1.1811
   47CHL1   C27 5955   5.956   2.661   8.737  0.0453  0.3428  0.4343
   47CHL1  H27A 5956   5.996   2.764   8.733  3.1473 -0.7897  1.3798
   47CHL1  H27B 5957   5.978   2.620   8.838  1.8306 -1.4031 -0.6417
   47CHL1  H27C 5958   6.029   2.605   8.676  1.6283  1.9925  0.7845
   48CHL1    C3 5959   6.642   3.466  10.093  0.0818  0.1817 -0.5908
   48CHL1    H3 5960   6.652   3.356  10.080  0.3411  0.0617  0.5511
   48CHL1    O3 5961   6.652   3.506  10.233 -0.0860  0.7192  0.1969
   48CHL1   H3' 5962   6.569   3.470  10.264  0.7677 -0.0954  1.5773
   48CHL1    C4 5963   6.739   3.547  10.014  0.2835  0.1966 -0.2520
   48CHL1   H4A 5964   6.729   3.649  10.056 -0.0468 -0.1633  0.5431
   48CHL1   H4B 5965   6.842   3.523  10.048 -0.8341 -2.3675  1.4921
   48CHL1    C5 5966   6.714   3.538   9.866  0.1779 -0.2531 -0.6917
   48CHL1    C6 5967   6.819   3.502   9.790  0.9735  0.3086  0.0647
   48CHL1    H6 5968   6.910   3.468   9.841  1.1291  0.5279 -0.0619
   48CHL1    C7 5969   6.811   3.499   9.641  0.0696 -0.0714 -0.3197
   48CHL1   H7A 5970   6.908   3.533   9.600  0.0661  0.6177  0.2417
   48CHL1   H7B 5971   6.802   3.394   9.607  0.5558  0.2124 -1.3542
   48CHL1    C8 5972   6.693   3.573   9.582  0.9580 -0.1786  0.0819
   48CHL1    H8 5973   6.708   3.682   9.595  1.0514 -0.1413 -0.3257
   48CHL1   C14 5974   6.660   3.527   9.443  0.0654 -0.8893 -0.5648
   48CHL1   H14 5975   6.631   3.421   9.462  0.3705 -1.1169 -1.3461
   48CHL1   C15 5976   6.782   3.534   9.343  0.5586  0.7204  0.3542
   48CHL1  H15A 5977   6.833   3.632   9.328 -0.6193  0.7837 -3.9534
   48CHL1  H15B 5978   6.862   3.457   9.350 -0.5070 -0.5281 -0.9943
   48CHL1   C16 5979   6.703   3.508   9.216  0.2753 -0.0130  0.7905
   48CHL1  H16A 5980   6.737   3.555   9.121 -1.0143 -2.1238 -0.7678
   48CHL1  H16B 5981   6.708   3.398   9.198  1.9434  0.3974 -1.3695
   48CHL1   C17 5982   6.547   3.537   9.242 -0.3119  0.2669  0.2663
   48CHL1   H17 5983   6.502   3.436   9.247  1.7026 -0.6971 -0.4053
   48CHL1   C13 5984   6.540   3.594   9.383  0.5365 -0.3774  0.2329
   48CHL1   C18 5985   6.566   3.748   9.385  0.2124 -0.1829 -0.9718
   48CHL1  H18A 5986   6.645   3.786   9.317  0.1858  2.9093  0.6401
   48CHL1  H18B 5987   6.468   3.793   9.356 -1.2581 -1.6681  1.5376
   48CHL1  H18C 5988   6.592   3.787   9.485  0.6433  0.6258 -1.3947
   48CHL1   C12 5989   6.410   3.558   9.451 -0.2489 -0.9634 -0.5792
   48CHL1  H12A 5990   6.319   3.608   9.414  0.7652  1.5195  0.1757
   48CHL1  H12B 5991   6.391   3.448   9.451 -0.0856 -0.9947 -0.1525
   48CHL1   C11 5992   6.431   3.602   9.600  1.1229 -0.4466  0.9247
   48CHL1  H11A 5993   6.436   3.712   9.593  1.2594 -0.4897  0.2790
   48CHL1  H11B 5994   6.343   3.572   9.660 -0.1152  0.3779 -0.4400
   48CHL1    C9 5995   6.561   3.546   9.669  0.1981  0.7717 -0.3462
   48CHL1    H9 5996   6.544   3.437   9.654 -0.8258  1.0828 -1.5134
   48CHL1   C10 5997   6.575   3.574   9.814  0.1512 -0.0097 -0.1724
   48CHL1   C19 5998   6.548   3.729   9.847  0.7422  0.7399  0.3152
   48CHL1  H19A 5999   6.608   3.793   9.779 -0.1782  0.2521 -0.9730
   48CHL1  H19B 6000   6.442   3.753   9.824  0.9986  1.5614 -0.0201
   48CHL1  H19C 6001   6.563   3.763   9.952  1.2696  0.1496  0.4285
   48CHL1    C1 6002   6.480   3.483   9.897  0.5789  0.2435 -0.1109
   48CHL1   H1A 6003   6.375   3.503   9.867  0.4301 -0.7276 -0.2649
   48CHL1   H1B 6004   6.496   3.373   9.892  0.5858  0.2387  0.0019
   48CHL1    C2 6005   6.497   3.503  10.049  0.5542 -0.4050  0.0392
   48CHL1   H2A 6006   6.424   3.433  10.096  0.8401 -1.7874 -1.5486
   48CHL1   H2B 6007   6.469   3.608  10.072  2.8453  0.0752  0.6680
   48CHL1   C20 6008   6.473   3.610   9.134 -0.5075  0.1841  0.7616
   48CHL1   H20 6009   6.385   3.661   9.179  0.2667 -0.7571  3.4196
   48CHL1   C21 6010   6.415   3.496   9.044 -0.1144 -0.5108 -0.3947
   48CHL1  H21A 6011   6.342   3.552   8.983 -0.6620  2.5092  2.8959
   48CHL1  H21B 6012   6.356   3.417   9.096  1.4523 -1.2491  0.2940
   48CHL1  H21C 6013   6.499   3.452   8.987  3.0683  1.4425  2.5587
   48CHL1   C22 6014   6.554   3.719   9.049 -0.5155  0.7981  0.3712
   48CHL1  H22A 6015   6.594   3.798   9.115 -0.6736 -0.6509  2.2233
   48CHL1  H22B 6016   6.631   3.672   8.985 -1.2200  0.9410 -0.5978
   48CHL1   C23 6017   6.473   3.794   8.941  0.1290  0.9678 -0.3964
   48CHL1  H23A 6018   6.452   3.725   8.857  0.2985 -2.7179  2.4654
   48CHL1  H23B 6019   6.377   3.816   8.994 -2.2065 -1.6205 -3.3751
   48CHL1   C24 6020   6.536   3.919   8.886  0.0492  0.2862  0.0614
   48CHL1  H24A 6021   6.453   3.957   8.822 -0.1162 -0.3130 -0.0940
   48CHL1  H24B 6022   6.564   3.988   8.968 -0.6562 -0.1577  0.6818
   48CHL1   C25 6023   6.663   3.891   8.792 -0.9696 -0.2514 -0.8207
   48CHL1   H25 6024   6.733   3.825   8.849 -1.2216  2.0459  2.3013
   48CHL1   C26 6025   6.624   3.826   8.658 -0.6464 -0.8644  0.7093
   48CHL1  H26A 6026   6.554   3.742   8.675 -1.1440 -0.2663  1.7046
   48CHL1  H26B 6027   6.574   3.898   8.589  0.9862 -0.9614 -0.6167
   48CHL1  H26C 6028   6.722   3.801   8.611 -0.1165 -0.5369  1.6168
   48CHL1   C27 6029   6.744   4.019   8.775  0.4571  0.2741 -0.2942
   48CHL1  H27A 6030   6.848   4.001   8.739  0.2193  2.4153 -2.1956
   48CHL1  H27B 6031   6.688   4.089   8.709 -0.1266  0.0249 -0.0626
   48CHL1  H27C 6032   6.758   4.070   8.872 -1.7571 -0.4832  0.4544
   49CHL1    C3 6033   4.709   5.693  10.203 -0.3193  0.5841 -0.7072
   49CHL1    H3 6034   4.721   5.584  10.222 -0.1772  0.6079 -0.6684
   49CHL1    O3 6035   4.714   5.754  10.331 -0.4043  0.3812 -0.3099
   49CHL1   H3' 6036   4.648   5.715  10.389 -0.9947 -0.0434 -1.2493
   49CHL1    C4 6037   4.818   5.747  10.110 -0.0458  0.0624 -0.4819
   49CHL1   H4A 6038   4.800   5.855  10.128  3.1049  0.4002  1.0233
   49CHL1   H4B 6039   4.914   5.727  10.163 -0.5506 -0.4680  0.2510
   49CHL1    C5 6040   4.799   5.711   9.967 -0.3400 -0.1754  0.3551
   49CHL1    C6 6041   4.901   5.668   9.885  0.0127 -0.5619 -0.2769
   49CHL1    H6 6042   5.003   5.668   9.925 -0.6889 -0.8126  1.5464
   49CHL1    C7 6043   4.887   5.624   9.740 -0.4064 -0.4918  0.4931
   49CHL1   H7A 6044   4.970   5.672   9.685  0.2758 -1.5600  0.5742
   49CHL1   H7B 6045   4.906   5.514   9.737 -0.9931 -0.5692 -3.1283
   49CHL1    C8 6046   4.757   5.670   9.671  0.4318 -0.2577  0.2282
   49CHL1    H8 6047   4.784   5.778   9.662 -1.9828  0.3955  0.4288
   49CHL1   C14 6048   4.732   5.595   9.541  0.1314  1.0220 -0.4836
   49CHL1   H14 6049   4.731   5.488   9.568  0.6030  0.3118 -3.1657
   49CHL1   C15 6050   4.843   5.593   9.431 -0.2639 -0.2065  1.0031
   49CHL1  H15A 6051   4.888   5.693   9.410 -0.1331 -0.4968 -0.1428
   49CHL1  H15B 6052   4.920   5.521   9.463  1.0269  0.0167 -1.4645
   49CHL1   C16 6053   4.768   5.534   9.311  0.4077 -0.3250 -0.7495
   49CHL1  H16A 6054   4.779   5.607   9.228  0.0120 -0.4272 -0.8897
   49CHL1  H16B 6055   4.815   5.441   9.272  1.2632 -0.3043  0.2087
   49CHL1   C17 6056   4.623   5.525   9.355  0.2520  0.2240 -0.8889
   49CHL1   H17 6057   4.617   5.421   9.393  2.6365 -1.2376 -4.2649
   49CHL1   C13 6058   4.597   5.625   9.472  0.0763  0.7409  0.4774
   49CHL1   C18 6059   4.586   5.773   9.420 -0.0933 -0.1326 -0.0331
   49CHL1  H18A 6060   4.482   5.782   9.382  0.0641 -0.6498 -0.5937
   49CHL1  H18B 6061   4.588   5.848   9.502  1.3694  0.7949 -0.8718
   49CHL1  H18C 6062   4.662   5.789   9.340 -0.7077  0.6078 -0.4782
   49CHL1   C12 6063   4.467   5.604   9.562 -1.1718 -0.3650  0.2407
   49CHL1  H12A 6064   4.377   5.643   9.511 -0.0768  1.6994 -0.1800
   49CHL1  H12B 6065   4.460   5.494   9.577  0.2082 -0.7652 -1.7888
   49CHL1   C11 6066   4.497   5.679   9.693 -0.3463  0.3691 -0.4876
   49CHL1  H11A 6067   4.499   5.786   9.662 -0.1334  0.4209 -0.2989
   49CHL1  H11B 6068   4.422   5.658   9.772 -0.4089 -0.3435 -0.7330
   49CHL1    C9 6069   4.635   5.648   9.764  0.5810 -0.1174 -0.0244
   49CHL1    H9 6070   4.629   5.539   9.786  1.3287 -0.3530 -0.9801
   49CHL1   C10 6071   4.658   5.726   9.906 -0.2314  0.1151  0.3704
   49CHL1   C19 6072   4.643   5.882   9.875  0.7220  0.3072  0.7479
   49CHL1  H19A 6073   4.544   5.911   9.833  0.5520 -1.0599  0.1786
   49CHL1  H19B 6074   4.663   5.938   9.969 -0.4480  1.2899  0.4321
   49CHL1  H19C 6075   4.717   5.915   9.798 -2.3875  1.8959 -1.6657
   49CHL1    C1 6076   4.544   5.682  10.003  0.1410  0.0220 -0.0161
   49CHL1   H1A 6077   4.442   5.719   9.981  0.8927  1.6002 -0.9340
   49CHL1   H1B 6078   4.538   5.571  10.003 -0.8275  0.0685  1.5461
   49CHL1    C2 6079   4.569   5.722  10.152 -0.1683  0.1265 -0.6313
   49CHL1   H2A 6080   4.494   5.684  10.225 -0.4360  1.9065  0.0588
   49CHL1   H2B 6081   4.549   5.831  10.160 -1.5192 -0.1379 -0.3438
   49CHL1   C20 6082   4.513   5.533   9.246  0.0907 -0.0310  0.0634
   49CHL1   H20 6083   4.429   5.588   9.294 -0.5788 -0.5548 -0.5067
   49CHL1   C21 6084   4.479   5.389   9.199  0.8014  0.0102 -0.0012
   49CHL1  H21A 6085   4.554   5.352   9.125 -0.6364 -0.6060 -1.1747
   49CHL1  H21B 6086   4.382   5.371   9.149  0.7374 -1.4172  0.5868
   49CHL1  H21C 6087   4.468   5.320   9.286 -1.1447 -0.4155 -0.5567
   49CHL1   C22 6088   4.546   5.618   9.116  0.4650  0.4635  0.0538
   49CHL1  H22A 6089   4.589   5.715   9.150 -1.3248  1.3219 -0.0697
   49CHL1  H22B 6090   4.614   5.576   9.040  1.7960  0.1400  1.4017
   49CHL1   C23 6091   4.416   5.655   9.039 -0.0791  0.1878  1.0693
   49CHL1  H23A 6092   4.351   5.572   9.005 -0.1605  0.8787 -0.4811
   49CHL1  H23B 6093   4.350   5.715   9.106 -1.8039  0.3393 -0.7401
   49CHL1   C24 6094   4.451   5.741   8.916  0.0784  0.0989 -0.0367
   49CHL1  H24A 6095   4.536   5.810   8.933  0.9494 -0.9274 -0.1554
   49CHL1  H24B 6096   4.484   5.681   8.829 -0.6400  0.3069 -0.4526
   49CHL1   C25 6097   4.329   5.826   8.865 -0.7548  0.0568 -0.4946
   49CHL1   H25 6098   4.280   5.880   8.949 -0.8562 -0.2420 -0.3599
   49CHL1   C26 6099   4.378   5.935   8.763  0.4765  0.5295 -0.5024
   49CHL1  H26A 6100   4.478   5.975   8.790 -0.5135  1.5691  1.7990
   49CHL1  H26B 6101   4.387   5.893   8.661  0.9657  0.3079 -0.3693
   49CHL1  H26C 6102   4.304   6.018   8.768 -0.9332 -0.7234  0.0790
   49CHL1   C27 6103   4.234   5.733   8.801  0.5920  0.0420 -0.1384
   49CHL1  H27A 6104   4.148   5.791   8.761  0.4183  0.1166  0.3345
   49CHL1  H27B 6105   4.277   5.670   8.721 -1.2436  0.3429 -1.3873
   49CHL1  H27C 6106   4.194   5.663   8.878 -0.3107  1.1729  0.4377
   50CHL1    C3 6107   0.585   0.795  10.132 -1.0184  0.2038  0.1669
   50CHL1    H3 6108   0.486   0.842  10.111 -1.0590 -0.6238 -1.6087
   50CHL1    O3 6109   0.611   0.798  10.273 -0.5006 -0.1157 -0.3208
   50CHL1   H3' 6110   0.701   0.765  10.284  0.1646  1.6625 -0.2411
   50CHL1    C4 6111   0.574   0.643  10.088 -0.6371  0.2869  0.0126
   50CHL1   H4A 6112   0.656   0.584  10.135 -0.2725 -0.5742 -1.6716
   50CHL1   H4B 6113   0.482   0.595  10.126  0.0639 -2.3863 -1.4920
   50CHL1    C5 6114   0.586   0.627   9.936 -0.0144 -0.5576  0.0460
   50CHL1    C6 6115   0.487   0.579   9.874 -0.2674 -0.3081  0.8749
   50CHL1    H6 6116   0.399   0.532   9.920 -1.1370  1.3315  0.9406
   50CHL1    C7 6117   0.468   0.576   9.725 -0.7431 -0.5242 -0.9086
   50CHL1   H7A 6118   0.423   0.477   9.702 -1.4234 -0.3912 -0.2180
   50CHL1   H7B 6119   0.399   0.653   9.684  0.9321  1.0886 -0.7435
   50CHL1    C8 6120   0.603   0.598   9.646  0.0933 -1.0412 -0.0453
   50CHL1    H8 6121   0.662   0.505   9.662 -0.0721 -1.3806 -1.3538
   50CHL1   C14 6122   0.576   0.625   9.503 -0.6559  0.3383  0.4200
   50CHL1   H14 6123   0.507   0.713   9.498 -0.2458  0.6620  0.3930
   50CHL1   C15 6124   0.502   0.508   9.419 -0.0394  0.1901 -0.4994
   50CHL1  H15A 6125   0.533   0.404   9.442 -1.2702 -0.3692 -1.3465
   50CHL1  H15B 6126   0.392   0.525   9.424 -0.2431 -0.9461 -1.0947
   50CHL1   C16 6127   0.548   0.546   9.276 -0.1754 -0.1489  0.4008
   50CHL1  H16A 6128   0.613   0.464   9.238 -1.4480 -1.8150  1.6975
   50CHL1  H16B 6129   0.463   0.553   9.205 -0.5480 -0.6017  0.7949
   50CHL1   C17 6130   0.633   0.671   9.280 -0.6071 -0.0725  0.3643
   50CHL1   H17 6131   0.565   0.759   9.287  0.5037  0.8451 -0.1149
   50CHL1   C13 6132   0.697   0.656   9.422  0.1388  0.1740  0.6188
   50CHL1   C18 6133   0.812   0.546   9.428 -0.5439 -0.5878  0.3990
   50CHL1  H18A 6134   0.754   0.454   9.408  1.4910 -1.9098  0.5042
   50CHL1  H18B 6135   0.895   0.557   9.355  2.2075  2.1361  3.7459
   50CHL1  H18C 6136   0.862   0.547   9.527  0.3377  1.7854 -0.0337
   50CHL1   C12 6137   0.750   0.791   9.481 -0.8306  0.2158  0.1049
   50CHL1  H12A 6138   0.840   0.821   9.424  0.0889  0.2811  1.5608
   50CHL1  H12B 6139   0.672   0.868   9.464 -0.0856  0.4736 -2.3871
   50CHL1   C11 6140   0.781   0.771   9.624 -0.1778  0.3876  0.0859
   50CHL1  H11A 6141   0.871   0.706   9.624 -0.8022 -0.4792  0.1233
   50CHL1  H11B 6142   0.820   0.869   9.659  1.0514 -0.1027  0.1034
   50CHL1    C9 6143   0.669   0.713   9.709  0.0869 -0.8542  0.3344
   50CHL1    H9 6144   0.595   0.796   9.707  2.9514  1.7691 -1.2473
   50CHL1   C10 6145   0.693   0.704   9.863  0.1800 -0.6788  1.0181
   50CHL1   C19 6146   0.822   0.628   9.889  0.1450 -0.5053 -0.0972
   50CHL1  H19A 6147   0.864   0.663   9.986 -0.5476  0.6258 -0.1984
   50CHL1  H19B 6148   0.801   0.519   9.896 -1.7575 -0.1383  0.4581
   50CHL1  H19C 6149   0.898   0.644   9.810  0.8799  0.2032  0.7389
   50CHL1    C1 6150   0.708   0.851   9.914  0.4413 -0.3272 -0.2602
   50CHL1   H1A 6151   0.808   0.891   9.888  0.3185  0.3467  0.3126
   50CHL1   H1B 6152   0.624   0.914   9.876 -0.5458 -2.3729 -1.6020
   50CHL1    C2 6153   0.709   0.861  10.065 -0.4543  0.7515 -0.1310
   50CHL1   H2A 6154   0.708   0.969  10.093 -2.1519  0.2121  2.0154
   50CHL1   H2B 6155   0.802   0.817  10.107  1.4610  1.5227 -3.3402
   50CHL1   C20 6156   0.724   0.708   9.157  0.1502 -0.5851  0.2395
   50CHL1   H20 6157   0.832   0.696   9.182 -0.1132 -2.0418  0.6840
   50CHL1   C21 6158   0.709   0.862   9.140  0.2660 -1.0175 -0.3531
   50CHL1  H21A 6159   0.737   0.923   9.229  1.1881 -0.6116 -0.9091
   50CHL1  H21B 6160   0.601   0.881   9.122  0.1437  0.6672  1.9774
   50CHL1  H21C 6161   0.771   0.899   9.055  2.0030  0.9302  1.6919
   50CHL1   C22 6162   0.705   0.635   9.025 -0.4716  0.9804 -0.7571
   50CHL1  H22A 6163   0.662   0.536   9.053  2.4568  0.2763  1.5741
   50CHL1  H22B 6164   0.640   0.692   8.956 -0.6522 -0.7567 -2.0484
   50CHL1   C23 6165   0.841   0.627   8.940  0.6521  0.5731 -0.5827
   50CHL1  H23A 6166   0.879   0.730   8.921  0.6392  0.4404 -1.3370
   50CHL1  H23B 6167   0.927   0.582   8.994  0.5934 -0.5413 -1.4106
   50CHL1   C24 6168   0.819   0.545   8.814 -1.0085  0.2333  0.5820
   50CHL1  H24A 6169   0.793   0.439   8.839 -1.2162 -0.5682 -2.7506
   50CHL1  H24B 6170   0.736   0.588   8.754  0.8752  3.5870  0.3134
   50CHL1   C25 6171   0.947   0.559   8.724 -0.4569 -0.4075  0.4703
   50CHL1   H25 6172   0.980   0.665   8.721 -1.4040 -0.1509 -1.8501
   50CHL1   C26 6173   1.065   0.476   8.778  0.1310 -0.2710  0.2596
   50CHL1  H26A 6174   1.148   0.470   8.704  0.6859 -0.8705  0.9244
   50CHL1  H26B 6175   1.084   0.515   8.880 -0.5316 -2.9769  1.4734
   50CHL1  H26C 6176   1.030   0.371   8.790  1.5903 -0.6243  1.4802
   50CHL1   C27 6177   0.899   0.523   8.574 -0.5312  0.0350 -0.3759
   50CHL1  H27A 6178   0.848   0.424   8.570 -1.9997  0.6408  2.1547
   50CHL1  H27B 6179   0.829   0.598   8.531 -0.0891  0.4229 -0.4256
   50CHL1  H27C 6180   0.990   0.516   8.511  0.1739  4.8720 -0.0959
   51CHL1    C3 6181   2.040   3.038  10.331 -0.4978  0.1608 -0.6016
   51CHL1    H3 6182   2.151   3.035  10.340 -0.3248 -1.0321 -2.7155
   51CHL1    O3 6183   1.989   3.013  10.461 -0.2062  0.1489 -0.0686
   51CHL1   H3' 6184   2.027   2.925  10.462 -0.0733  0.2073  0.1350
   51CHL1    C4 6185   2.002   3.176  10.275  0.5874  0.7852 -0.1691
   51CHL1   H4A 6186   1.891   3.183  10.272  0.7431  3.0004 -1.8271
   51CHL1   H4B 6187   2.036   3.249  10.351  0.6733  0.6068 -0.0378
   51CHL1    C5 6188   2.061   3.191  10.132  0.1379  0.4613 -0.3565
   51CHL1    C6 6189   2.137   3.297  10.089 -0.1727 -0.3042 -0.6763
   51CHL1    H6 6190   2.156   3.382  10.157  1.4271 -1.1766 -0.0220
   51CHL1    C7 6191   2.196   3.312   9.954 -0.1889 -0.3780  0.7242
   51CHL1   H7A 6192   2.178   3.418   9.928 -1.2565 -0.9799 -1.0935
   51CHL1   H7B 6193   2.303   3.279   9.948  0.0082  0.5961 -2.1637
   51CHL1    C8 6194   2.128   3.223   9.842  0.1680  0.6669  0.3847
   51CHL1    H8 6195   2.029   3.263   9.810 -0.0339 -1.3417 -1.6685
   51CHL1   C14 6196   2.210   3.218   9.710 -0.4885  0.0269  0.2812
   51CHL1   H14 6197   2.308   3.184   9.749 -0.6611  0.1229  0.8000
   51CHL1   C15 6198   2.233   3.356   9.643 -0.6761 -0.3498  0.7435
   51CHL1  H15A 6199   2.152   3.431   9.650 -2.3281 -2.1646  1.5303
   51CHL1  H15B 6200   2.320   3.401   9.695 -0.5984  0.7837 -0.3657
   51CHL1   C16 6201   2.263   3.326   9.498  0.6955 -0.3350 -1.0708
   51CHL1  H16A 6202   2.180   3.375   9.443  0.3869  3.3188  2.3725
   51CHL1  H16B 6203   2.353   3.377   9.457 -0.1415  3.0918  1.0942
   51CHL1   C17 6204   2.250   3.171   9.487 -0.1773  0.6288 -0.8549
   51CHL1   H17 6205   2.355   3.135   9.497  0.2801  1.5812 -2.0578
   51CHL1   C13 6206   2.146   3.128   9.603  0.0175  0.6873  0.3342
   51CHL1   C18 6207   1.998   3.175   9.559 -0.1509  0.5956 -0.4124
   51CHL1  H18A 6208   1.958   3.112   9.476 -0.4957  0.1369  0.1027
   51CHL1  H18B 6209   1.920   3.176   9.637 -0.7907 -3.8965 -0.8077
   51CHL1  H18C 6210   2.002   3.270   9.502 -2.5216  1.0260  0.1249
   51CHL1   C12 6211   2.143   2.980   9.658 -0.4062 -0.8591 -0.1976
   51CHL1  H12A 6212   2.108   2.904   9.585  0.8895 -2.4728  0.8435
   51CHL1  H12B 6213   2.250   2.966   9.685 -0.8277 -0.0261  1.9937
   51CHL1   C11 6214   2.063   2.978   9.790 -0.1989  0.0776 -0.2264
   51CHL1  H11A 6215   1.956   3.000   9.767 -0.4623  1.0510  1.7928
   51CHL1  H11B 6216   2.062   2.873   9.826 -0.4347 -0.1098 -0.7726
   51CHL1    C9 6217   2.106   3.078   9.900  0.2538 -0.3136 -0.3096
   51CHL1    H9 6218   2.208   3.053   9.937  1.3134  2.6564 -1.0253
   51CHL1   C10 6219   2.020   3.076  10.031  0.2048  0.7461  0.0571
   51CHL1   C19 6220   1.869   3.095   9.990 -0.3402 -0.4215  0.5560
   51CHL1  H19A 6221   1.845   3.176   9.918  0.9259  0.1413  0.7474
   51CHL1  H19B 6222   1.841   2.994   9.953  1.1711 -0.5889 -0.1677
   51CHL1  H19C 6223   1.812   3.106  10.085 -2.4073 -0.2935 -0.6704
   51CHL1    C1 6224   2.051   2.939  10.096 -0.1244 -0.1384 -0.2665
   51CHL1   H1A 6225   2.008   2.859  10.033 -1.6414 -0.4397  1.1258
   51CHL1   H1B 6226   2.156   2.907  10.114  0.2397  2.4361  2.6967
   51CHL1    C2 6227   1.987   2.931  10.235  0.4258 -0.4378 -0.1113
   51CHL1   H2A 6228   2.005   2.831  10.279 -1.8675 -1.9831 -2.5034
   51CHL1   H2B 6229   1.876   2.929  10.226  0.4333  0.9188 -0.6406
   51CHL1   C20 6230   2.230   3.133   9.342  0.5409 -0.2045 -0.7558
   51CHL1   H20 6231   2.130   3.168   9.309  1.1416 -1.2834 -3.9169
   51CHL1   C21 6232   2.213   2.985   9.333  0.2961 -0.0985  0.2510
   51CHL1  H21A 6233   2.298   2.928   9.377 -1.5250 -1.6970  1.7364
   51CHL1  H21B 6234   2.193   2.956   9.227 -1.1125  0.1091  0.4539
   51CHL1  H21C 6235   2.122   2.944   9.380  0.4088 -0.3957  0.2091
   51CHL1   C22 6236   2.340   3.175   9.242 -0.1471  0.1433 -0.5460
   51CHL1  H22A 6237   2.357   3.285   9.244 -1.5300  0.3630 -0.1268
   51CHL1  H22B 6238   2.436   3.124   9.266  0.7551  2.3996  0.8258
   51CHL1   C23 6239   2.309   3.134   9.097 -0.1142 -0.7927  0.7170
   51CHL1  H23A 6240   2.341   3.027   9.101  3.0623 -0.0493 -2.2879
   51CHL1  H23B 6241   2.201   3.148   9.075 -0.1549 -0.3911  1.1659
   51CHL1   C24 6242   2.386   3.217   8.989 -0.3884 -0.3250  0.4187
   51CHL1  H24A 6243   2.359   3.321   9.015  2.4661  0.9861 -1.6098
   51CHL1  H24B 6244   2.495   3.199   8.999 -0.5167 -0.8712  0.8980
   51CHL1   C25 6245   2.341   3.186   8.837  0.3742 -0.3840  0.1081
   51CHL1   H25 6246   2.231   3.196   8.831  0.1653 -2.2641  0.3932
   51CHL1   C26 6247   2.423   3.265   8.727  0.1598  0.6895 -1.0342
   51CHL1  H26A 6248   2.415   3.375   8.741 -0.1754  0.4621  0.7186
   51CHL1  H26B 6249   2.531   3.243   8.741 -0.5460 -2.6979 -0.5290
   51CHL1  H26C 6250   2.394   3.246   8.621  2.8119  0.7988 -1.8125
   51CHL1   C27 6251   2.373   3.039   8.800  0.0495  0.5215  0.3179
   51CHL1  H27A 6252   2.305   2.975   8.860  0.7757 -1.2294 -0.6906
   51CHL1  H27B 6253   2.352   3.012   8.694 -1.1678 -1.5746  1.0595
   51CHL1  H27C 6254   2.480   3.009   8.811 -0.0021  0.5510  0.9143
   52CHL1    C3 6255   5.995   2.044  10.107  0.1559 -0.2111  0.1473
   52CHL1    H3 6256   6.079   2.117  10.119 -0.1881  0.1715  0.2242
   52CHL1    O3 6257   5.962   1.996  10.240  0.0041 -0.3831  0.8971
   52CHL1   H3' 6258   5.916   1.914  10.225 -1.1143  0.4042 -0.0117
   52CHL1    C4 6259   5.873   2.103  10.040 -0.3121  0.2369  0.4628
   52CHL1   H4A 6260   5.781   2.041  10.046 -0.5348  0.3793 -1.2712
   52CHL1   H4B 6261   5.849   2.190  10.105  1.3813 -0.5272  2.1527
   52CHL1    C5 6262   5.902   2.142   9.901 -0.1788  0.3082 -0.6977
   52CHL1    C6 6263   5.881   2.264   9.854 -0.1444  0.3980 -0.2564
   52CHL1    H6 6264   5.844   2.340   9.923 -1.0481  3.5013 -3.9723
   52CHL1    C7 6265   5.904   2.312   9.713  0.1960  0.4166 -0.7521
   52CHL1   H7A 6266   5.828   2.382   9.672  0.2956  0.6501 -0.5434
   52CHL1   H7B 6267   6.004   2.360   9.704  0.4074  0.2431  0.5099
   52CHL1    C8 6268   5.917   2.193   9.626  0.6900 -0.4127  0.0833
   52CHL1    H8 6269   5.817   2.146   9.608  0.9109 -0.2399 -1.7131
   52CHL1   C14 6270   5.964   2.239   9.491  0.5564  0.2167  0.4232
   52CHL1   H14 6271   6.063   2.284   9.512  1.3228 -1.7326  0.9946
   52CHL1   C15 6272   5.886   2.348   9.419  0.4039  0.2592  0.0910
   52CHL1  H15A 6273   5.781   2.310   9.411 -0.0403  1.4566  0.1680
   52CHL1  H15B 6274   5.883   2.451   9.461  0.7238  0.7464 -1.0606
   52CHL1   C16 6275   5.945   2.343   9.281  0.3735  0.0657  0.0073
   52CHL1  H16A 6276   5.865   2.356   9.205  1.8160 -0.8993 -1.7128
   52CHL1  H16B 6277   6.004   2.437   9.271 -0.2502  0.2987 -1.6150
   52CHL1   C17 6278   6.020   2.209   9.258 -0.0884  0.1353 -0.2803
   52CHL1   H17 6279   6.125   2.244   9.267 -0.3828  0.6925  1.2336
   52CHL1   C13 6280   5.983   2.122   9.388 -0.2036  0.1906 -0.3412
   52CHL1   C18 6281   5.851   2.051   9.366  0.1759 -0.4017  0.2097
   52CHL1  H18A 6282   5.782   2.123   9.316 -2.4696 -1.2405  2.5728
   52CHL1  H18B 6283   5.861   1.963   9.300 -2.0060  0.4624 -1.3337
   52CHL1  H18C 6284   5.802   2.019   9.460 -2.5135  3.7491  0.3607
   52CHL1   C12 6285   6.090   2.024   9.443 -0.1206 -1.0122 -0.5363
   52CHL1  H12A 6286   6.117   1.940   9.375 -1.7934 -3.0401  1.2008
   52CHL1  H12B 6287   6.185   2.081   9.451 -0.0367 -0.8814 -2.2273
   52CHL1   C11 6288   6.043   1.971   9.576  0.4986 -0.0297  0.1195
   52CHL1  H11A 6289   5.953   1.906   9.568  1.9788 -2.1047 -0.2393
   52CHL1  H11B 6290   6.127   1.910   9.618 -0.6548 -1.3613  0.5239
   52CHL1    C9 6291   6.013   2.085   9.679 -0.4166  0.8780 -0.0057
   52CHL1    H9 6292   6.112   2.129   9.706  0.9730 -1.1660 -1.6441
   52CHL1   C10 6293   5.959   2.025   9.818  0.3038 -0.3277 -0.0531
   52CHL1   C19 6294   5.850   1.925   9.801  0.4443  0.9350 -0.9601
   52CHL1  H19A 6295   5.757   1.963   9.752  0.4544  0.4116 -1.3822
   52CHL1  H19B 6296   5.882   1.836   9.745  1.7031  1.0686 -0.4623
   52CHL1  H19C 6297   5.819   1.881   9.899 -1.8187 -0.9234 -2.4527
   52CHL1    C1 6298   6.078   1.963   9.886 -0.1890  0.3595  0.4272
   52CHL1   H1A 6299   6.099   1.879   9.816  0.1822  1.9189 -1.3807
   52CHL1   H1B 6300   6.169   2.026   9.875 -0.2665  1.0084  3.0999
   52CHL1    C2 6301   6.048   1.920  10.029 -0.8020 -0.7666  0.3166
   52CHL1   H2A 6302   6.137   1.878  10.081  1.6776  1.8970 -1.6040
   52CHL1   H2B 6303   5.971   1.840  10.021 -0.9921 -0.4865 -0.7026
   52CHL1   C20 6304   5.995   2.145   9.127 -0.6607 -0.8950 -0.6999
   52CHL1   H20 6305   5.888   2.117   9.126 -1.5448  2.2017 -0.0294
   52CHL1   C21 6306   6.076   2.009   9.102  0.1839 -0.4148 -0.2208
   52CHL1  H21A 6307   6.048   1.940   9.184 -1.9252  1.4727  0.7157
   52CHL1  H21B 6308   6.184   2.035   9.097 -0.1426  0.7855 -1.4875
   52CHL1  H21C 6309   6.040   1.959   9.010 -0.2098 -0.9618  0.2308
   52CHL1   C22 6310   6.015   2.237   9.002 -0.0200 -0.2801 -0.3470
   52CHL1  H22A 6311   5.990   2.168   8.919  0.4979 -2.2009  1.0654
   52CHL1  H22B 6312   5.933   2.313   9.007 -1.2306 -1.6570  1.3438
   52CHL1   C23 6313   6.146   2.321   8.981 -0.5143 -0.0619  0.5038
   52CHL1  H23A 6314   6.153   2.407   9.052  1.7719 -0.8849  1.3181
   52CHL1  H23B 6315   6.224   2.246   9.006 -2.4814 -2.1699  0.4507
   52CHL1   C24 6316   6.182   2.380   8.845  0.5690 -0.5146  0.0596
   52CHL1  H24A 6317   6.105   2.458   8.828  1.0943  0.1102  0.5330
   52CHL1  H24B 6318   6.283   2.423   8.826  0.5254 -0.5812 -0.3324
   52CHL1   C25 6319   6.180   2.281   8.719 -0.3013  0.5271 -0.2125
   52CHL1   H25 6320   6.086   2.222   8.729  1.9739 -2.9771  2.0789
   52CHL1   C26 6321   6.178   2.325   8.574 -0.0315 -0.5069  0.3456
   52CHL1  H26A 6322   6.085   2.380   8.551  0.7186  0.8965  0.6308
   52CHL1  H26B 6323   6.265   2.388   8.547 -1.2938  1.9158  1.7765
   52CHL1  H26C 6324   6.174   2.230   8.515 -1.0096  0.8622 -1.8597
   52CHL1   C27 6325   6.296   2.187   8.737 -0.3979 -0.1533  0.2380
   52CHL1  H27A 6326   6.384   2.255   8.733 -0.4314 -0.0190  1.3520
   52CHL1  H27B 6327   6.301   2.143   8.839  1.2342 -1.1604 -0.2514
   52CHL1  H27C 6328   6.309   2.114   8.655  0.8338  0.1684  0.1332
   53CHL1    C3 6329   6.480   1.268  10.081  0.1623 -0.0040 -0.5090
   53CHL1    H3 6330   6.581   1.222  10.088  0.9789  1.4720 -2.1699
   53CHL1    O3 6331   6.415   1.266  10.211  0.2658 -0.2167  0.3423
   53CHL1   H3' 6332   6.349   1.196  10.213  2.2553 -2.2102 -1.7429
   53CHL1    C4 6333   6.515   1.417  10.037 -0.5781 -0.9591  0.1699
   53CHL1   H4A 6334   6.439   1.495  10.056  1.6290  0.9357  1.5345
   53CHL1   H4B 6335   6.596   1.451  10.105 -0.1841  0.4476 -0.9919
   53CHL1    C5 6336   6.568   1.426   9.892 -0.2113  0.3761  0.2037
   53CHL1    C6 6337   6.683   1.488   9.857  0.0665 -0.6838 -0.5498
   53CHL1    H6 6338   6.749   1.517   9.940 -2.2031  1.9433  0.4341
   53CHL1    C7 6339   6.730   1.499   9.713 -0.5901  0.3430  0.4108
   53CHL1   H7A 6340   6.763   1.603   9.694 -0.6656  0.2884 -0.0318
   53CHL1   H7B 6341   6.820   1.434   9.704 -0.1634  0.9767 -0.0027
   53CHL1    C8 6342   6.616   1.469   9.609  0.8830 -0.6551 -0.0674
   53CHL1    H8 6343   6.549   1.557   9.611  0.8339 -0.7277  3.9644
   53CHL1   C14 6344   6.689   1.447   9.474 -0.4454  0.4200  0.3068
   53CHL1   H14 6345   6.752   1.358   9.494  0.2382  0.5227 -1.2992
   53CHL1   C15 6346   6.782   1.558   9.412 -0.6742 -0.4041  0.2987
   53CHL1  H15A 6347   6.727   1.655   9.414 -0.0321 -0.0180 -0.1497
   53CHL1  H15B 6348   6.877   1.565   9.469 -1.4173 -2.5093  1.8017
   53CHL1   C16 6349   6.805   1.502   9.271 -0.6916  0.1154 -0.4048
   53CHL1  H16A 6350   6.762   1.582   9.207 -0.0210 -0.9156 -2.1571
   53CHL1  H16B 6351   6.910   1.482   9.243 -0.7558  1.7321 -1.8852
   53CHL1   C17 6352   6.714   1.382   9.250  0.6522 -0.7169 -0.7568
   53CHL1   H17 6353   6.773   1.295   9.286  1.3028  0.4513  1.0221
   53CHL1   C13 6354   6.603   1.399   9.358 -1.2305  0.0812 -0.5644
   53CHL1   C18 6355   6.507   1.508   9.321 -0.3245  0.5105  0.2507
   53CHL1  H18A 6356   6.554   1.591   9.264 -0.9525  1.3973  1.0144
   53CHL1  H18B 6357   6.434   1.459   9.253 -1.6026  0.9364  1.2983
   53CHL1  H18C 6358   6.458   1.553   9.410 -0.9406 -1.5031  0.9543
   53CHL1   C12 6359   6.524   1.276   9.408  0.2636 -0.2674  0.1354
   53CHL1  H12A 6360   6.454   1.232   9.334  0.9968 -1.2997  0.0545
   53CHL1  H12B 6361   6.596   1.192   9.417  0.5280 -0.3475 -2.3861
   53CHL1   C11 6362   6.445   1.290   9.541  0.6268  0.5295 -0.1249
   53CHL1  H11A 6363   6.355   1.351   9.519 -0.6261 -1.6491 -1.2021
   53CHL1  H11B 6364   6.414   1.187   9.569  0.6766  0.0588 -1.7369
   53CHL1    C9 6365   6.543   1.343   9.654 -0.0516 -0.5529 -0.0202
   53CHL1    H9 6366   6.616   1.262   9.672 -0.6148 -0.7422  1.4660
   53CHL1   C10 6367   6.474   1.360   9.792  0.0811 -1.0412 -0.4924
   53CHL1   C19 6368   6.335   1.435   9.775  0.6732 -0.0503  1.0082
   53CHL1  H19A 6369   6.359   1.540   9.746  0.4408  0.1995  1.7100
   53CHL1  H19B 6370   6.270   1.381   9.704  1.7538  2.5892 -2.0970
   53CHL1  H19C 6371   6.281   1.449   9.871  1.1780  0.5614  1.2068
   53CHL1    C1 6372   6.445   1.219   9.841  0.1576  0.5282  0.2931
   53CHL1   H1A 6373   6.373   1.163   9.779  1.3703 -0.2265 -0.4577
   53CHL1   H1B 6374   6.539   1.159   9.833 -1.5382 -2.3919  1.5461
   53CHL1    C2 6375   6.389   1.200   9.979  0.3961 -0.0052 -0.2647
   53CHL1   H2A 6376   6.379   1.093  10.005  0.6816  0.3394  1.3017
   53CHL1   H2B 6377   6.289   1.249   9.989  0.0442 -0.8748  0.5048
   53CHL1   C20 6378   6.666   1.347   9.107  0.1405 -0.6562  0.5454
   53CHL1   H20 6379   6.583   1.412   9.073 -0.3331 -1.7336 -0.4021
   53CHL1   C21 6380   6.605   1.204   9.101 -0.4236  0.3769  0.4639
   53CHL1  H21A 6381   6.671   1.139   9.161  0.7356  0.6802 -0.4592
   53CHL1  H21B 6382   6.612   1.160   9.000 -1.2772  0.9244  0.1625
   53CHL1  H21C 6383   6.499   1.197   9.135 -1.1159 -0.6602 -1.8122
   53CHL1   C22 6384   6.776   1.356   9.006  0.5070  0.3464  0.3417
   53CHL1  H22A 6385   6.831   1.450   9.028 -1.0478  0.9898  1.5908
   53CHL1  H22B 6386   6.835   1.263   9.014  1.5865  1.0634  0.8310
   53CHL1   C23 6387   6.738   1.381   8.857  1.1205 -0.2358  0.1908
   53CHL1  H23A 6388   6.657   1.313   8.823 -0.2068  0.7994  1.2274
   53CHL1  H23B 6389   6.694   1.484   8.859  1.5607 -0.0786  1.7187
   53CHL1   C24 6390   6.851   1.365   8.755 -0.2363  0.5681  0.4496
   53CHL1  H24A 6391   6.924   1.448   8.769  0.5366 -0.2618  1.4462
   53CHL1  H24B 6392   6.900   1.268   8.778 -1.7207 -0.9597 -2.4294
   53CHL1   C25 6393   6.802   1.366   8.598 -0.5929 -0.2342 -0.9302
   53CHL1   H25 6394   6.725   1.287   8.595 -0.9357  0.0810 -0.3349
   53CHL1   C26 6395   6.745   1.499   8.561  0.1065 -0.4940  0.1251
   53CHL1  H26A 6396   6.824   1.574   8.580  1.1337 -1.5660  0.1244
   53CHL1  H26B 6397   6.727   1.507   8.452  0.9803 -3.0878 -0.2399
   53CHL1  H26C 6398   6.652   1.533   8.611  0.6214  2.0189 -0.5658
   53CHL1   C27 6399   6.911   1.315   8.503 -0.2606 -0.4869  0.0246
   53CHL1  H27A 6400   6.990   1.393   8.500 -0.1690 -0.4175  2.6597
   53CHL1  H27B 6401   6.944   1.217   8.546  0.0161 -0.9496 -1.2168
   53CHL1  H27C 6402   6.873   1.304   8.399  0.0364  0.5792 -0.2002
   54CHL1    C3 6403   6.638   2.921  10.209 -0.6526  0.2958  0.3501
   54CHL1    H3 6404   6.533   2.900  10.177 -0.6092 -1.4697  1.3645
   54CHL1    O3 6405   6.659   2.897  10.345 -0.6695  0.5849 -0.2763
   54CHL1   H3' 6406   6.749   2.928  10.356 -0.5481 -0.5397  2.3001
   54CHL1    C4 6407   6.749   2.841  10.140 -0.1897 -1.6756 -0.1001
   54CHL1   H4A 6408   6.845   2.891  10.163 -0.5898 -0.2473 -1.4244
   54CHL1   H4B 6409   6.762   2.735  10.171 -1.3014 -2.1169 -1.0890
   54CHL1    C5 6410   6.721   2.846   9.994  0.4288  0.0779  0.6269
   54CHL1    C6 6411   6.716   2.732   9.921  0.6940 -0.7124 -0.9968
   54CHL1    H6 6412   6.730   2.633   9.968  3.6377 -1.1461 -2.6781
   54CHL1    C7 6413   6.707   2.729   9.774 -0.3640 -0.4141  0.2318
   54CHL1   H7A 6414   6.777   2.657   9.728 -1.0089 -0.1770 -1.1598
   54CHL1   H7B 6415   6.605   2.690   9.753 -0.4099 -0.1555 -0.0469
   54CHL1    C8 6416   6.715   2.867   9.703 -0.1110 -1.1898  1.0452
   54CHL1    H8 6417   6.824   2.888   9.696 -0.9577  2.6916 -1.5578
   54CHL1   C14 6418   6.673   2.872   9.554 -0.1233  0.2780 -0.5927
   54CHL1   H14 6419   6.563   2.861   9.558 -0.2108  1.6830  1.0541
   54CHL1   C15 6420   6.724   2.758   9.473 -0.3340  0.2552  1.1373
   54CHL1  H15A 6421   6.830   2.738   9.501  0.3408 -0.2710 -1.6583
   54CHL1  H15B 6422   6.657   2.670   9.482  1.1781 -1.0018  0.4259
   54CHL1   C16 6423   6.703   2.805   9.327  0.4288 -0.0133  0.3444
   54CHL1  H16A 6424   6.800   2.805   9.273  1.5085 -1.8145  2.2145
   54CHL1  H16B 6425   6.624   2.749   9.272 -0.3084  1.0404  0.3143
   54CHL1   C17 6426   6.655   2.949   9.338 -0.0558 -0.0311  0.2728
   54CHL1   H17 6427   6.544   2.947   9.348  0.0865 -1.5863  1.8250
   54CHL1   C13 6428   6.714   2.995   9.472  0.1997  0.6459  0.3013
   54CHL1   C18 6429   6.865   3.019   9.468 -0.7272 -0.2149  0.1011
   54CHL1  H18A 6430   6.895   3.092   9.390  0.4217 -0.8639 -0.0768
   54CHL1  H18B 6431   6.898   3.073   9.560  2.4988 -1.2411 -0.3612
   54CHL1  H18C 6432   6.932   2.930   9.460  0.5359  0.4899  2.2287
   54CHL1   C12 6433   6.635   3.102   9.545 -0.1256  0.0452 -0.2590
   54CHL1  H12A 6434   6.682   3.194   9.504  1.7628 -0.1823  1.2674
   54CHL1  H12B 6435   6.524   3.104   9.545 -0.1694  3.8117  2.2671
   54CHL1   C11 6436   6.662   3.110   9.697  0.7859 -0.0723  0.0535
   54CHL1  H11A 6437   6.760   3.161   9.700  1.6725 -1.7894  1.4919
   54CHL1  H11B 6438   6.594   3.180   9.750  2.5536  0.6877  1.3604
   54CHL1    C9 6439   6.653   2.982   9.784  0.5397 -0.0735 -0.0575
   54CHL1    H9 6440   6.545   2.965   9.804  0.8891 -2.1028  0.2313
   54CHL1   C10 6441   6.709   2.986   9.930  0.0136  0.2374 -0.3316
   54CHL1   C19 6442   6.851   3.045   9.921  0.1424 -0.3996  0.6407
   54CHL1  H19A 6443   6.917   2.978   9.861 -3.0574 -1.5381 -1.7604
   54CHL1  H19B 6444   6.863   3.144   9.872  2.5258 -1.2468 -0.5957
   54CHL1  H19C 6445   6.900   3.044  10.021  1.6806 -3.1504 -0.0571
   54CHL1    C1 6446   6.622   3.076  10.024 -0.6708 -0.3035 -0.4188
   54CHL1   H1A 6447   6.635   3.182   9.993 -2.8235  0.4601  1.1791
   54CHL1   H1B 6448   6.514   3.052  10.013 -0.6296 -0.8198  0.2388
   54CHL1    C2 6449   6.665   3.063  10.171 -0.2672 -0.2371 -0.0994
   54CHL1   H2A 6450   6.596   3.139  10.215 -0.6354 -0.1797 -0.7718
   54CHL1   H2B 6451   6.772   3.084  10.190 -0.6441  2.5635 -0.7614
   54CHL1   C20 6452   6.691   3.042   9.218  0.5462  0.1140  0.5683
   54CHL1   H20 6453   6.794   3.083   9.230  0.6101  0.3602 -0.7548
   54CHL1   C21 6454   6.590   3.156   9.223  0.4888  0.3195 -0.0848
   54CHL1  H21A 6455   6.630   3.237   9.287 -0.1236  0.1464  0.5215
   54CHL1  H21B 6456   6.488   3.129   9.257  0.3896 -0.1936 -0.7667
   54CHL1  H21C 6457   6.580   3.202   9.122 -1.4919  0.0829 -0.0171
   54CHL1   C22 6458   6.689   2.980   9.079 -0.4588 -0.9755 -0.7732
   54CHL1  H22A 6459   6.749   2.886   9.073  0.7214 -0.2982  0.2072
   54CHL1  H22B 6460   6.589   2.935   9.061 -1.1317  0.4531 -0.6516
   54CHL1   C23 6461   6.728   3.075   8.959 -0.1731  0.4779  0.9747
   54CHL1  H23A 6462   6.730   3.001   8.876 -0.0206  3.5559 -1.8588
   54CHL1  H23B 6463   6.640   3.138   8.935 -1.2494 -0.9512  1.1099
   54CHL1   C24 6464   6.863   3.132   8.982 -0.0822  0.9485 -0.7956
   54CHL1  H24A 6465   6.859   3.210   9.061  2.8607 -0.9533  1.3697
   54CHL1  H24B 6466   6.938   3.055   9.013  0.2787  1.0717 -1.3421
   54CHL1   C25 6467   6.920   3.207   8.856 -0.2004 -0.6616 -0.0512
   54CHL1   H25 6468   6.842   3.272   8.811 -1.4025  0.4468  3.5000
   54CHL1   C26 6469   7.047   3.288   8.890  0.2432 -0.0129 -0.1935
   54CHL1  H26A 6470   7.090   3.324   8.794  0.0414 -1.1292 -0.7042
   54CHL1  H26B 6471   7.007   3.379   8.940  1.8600  1.0053 -0.7176
   54CHL1  H26C 6472   7.113   3.223   8.951  1.2606  0.4426 -0.7850
   54CHL1   C27 6473   6.960   3.112   8.744  0.0709 -0.3234 -0.1264
   54CHL1  H27A 6474   6.874   3.052   8.709  0.4062 -1.5264  1.0723
   54CHL1  H27B 6475   7.013   3.171   8.666 -0.8780  0.5682 -0.1078
   54CHL1  H27C 6476   7.041   3.045   8.781 -0.0871  0.8041  2.3472
   55CHL1    C3 6477   0.263   0.222  10.087 -0.9490  0.5723 -0.1608
   55CHL1    H3 6478   0.326   0.308  10.054  0.7119  0.3551  2.3295
   55CHL1    O3 6479   0.279   0.198  10.227  0.0631 -0.2016 -0.1155
   55CHL1   H3' 6480   0.275   0.286  10.265  0.9788  0.1255 -0.7582
   55CHL1    C4 6481   0.119   0.260  10.056  0.6162  0.3081  0.1235
   55CHL1   H4A 6482   0.063   0.165  10.066  1.3720 -0.0930  0.6337
   55CHL1   H4B 6483   0.084   0.338  10.126 -0.1208  0.2788 -0.2092
   55CHL1    C5 6484   0.105   0.302   9.908 -0.5280 -0.4772 -0.3853
   55CHL1    C6 6485   0.059   0.427   9.882 -0.1154 -0.0169 -0.0844
   55CHL1    H6 6486   0.036   0.499   9.962  0.2671  1.5812 -1.3937
   55CHL1    C7 6487   0.027   0.467   9.735 -0.0557  0.4096  0.4038
   55CHL1   H7A 6488  -0.072   0.518   9.729  0.4241  1.1330 -1.6352
   55CHL1   H7B 6489   0.102   0.547   9.715  0.0888  0.2242  0.2145
   55CHL1    C8 6490   0.037   0.353   9.635  0.4342 -0.1029  0.5600
   55CHL1    H8 6491  -0.054   0.292   9.656  1.0908 -1.3427 -0.0947
   55CHL1   C14 6492   0.043   0.406   9.492  0.0538  0.0152 -0.0827
   55CHL1   H14 6493   0.135   0.468   9.478  0.4395 -0.8802 -1.5857
   55CHL1   C15 6494  -0.076   0.497   9.452  0.0356 -0.0444  0.1580
   55CHL1  H15A 6495  -0.177   0.453   9.462  0.5917 -1.7120 -1.3801
   55CHL1  H15B 6496  -0.063   0.595   9.503  1.9866 -0.4250  0.4624
   55CHL1   C16 6497  -0.048   0.507   9.295  0.3363  0.4469 -0.0291
   55CHL1  H16A 6498  -0.146   0.493   9.246  0.5637  2.4682 -1.1434
   55CHL1  H16B 6499  -0.017   0.609   9.263  1.5826 -0.4197 -1.6891
   55CHL1   C17 6500   0.052   0.395   9.246  1.0332 -0.6820  0.8799
   55CHL1   H17 6501   0.156   0.430   9.230  1.5288 -1.9309  1.2778
   55CHL1   C13 6502   0.052   0.306   9.380 -1.5202 -0.1932 -0.6425
   55CHL1   C18 6503  -0.066   0.208   9.374  0.0065 -0.2448  0.2408
   55CHL1  H18A 6504  -0.090   0.169   9.476 -1.1401 -0.3739 -0.0776
   55CHL1  H18B 6505  -0.162   0.250   9.338 -0.1625 -1.2876 -0.5600
   55CHL1  H18C 6506  -0.039   0.115   9.320 -1.5141 -0.1305 -0.7263
   55CHL1   C12 6507   0.189   0.229   9.407 -0.4758  0.3230  0.3852
   55CHL1  H12A 6508   0.203   0.155   9.326 -2.3998 -0.3612  0.6364
   55CHL1  H12B 6509   0.275   0.298   9.401 -1.0194  0.9937  0.2033
   55CHL1   C11 6510   0.197   0.166   9.545 -0.1329 -0.0443  0.2099
   55CHL1  H11A 6511   0.131   0.078   9.556 -2.0673  1.2755 -0.4578
   55CHL1  H11B 6512   0.300   0.135   9.572  1.0690  4.1110  0.8751
   55CHL1    C9 6513   0.158   0.268   9.656 -0.4745  0.9493  0.2589
   55CHL1    H9 6514   0.240   0.343   9.657 -0.7181  1.2103  0.7115
   55CHL1   C10 6515   0.151   0.200   9.803 -0.0204 -0.1510 -0.2144
   55CHL1   C19 6516   0.047   0.081   9.803 -0.4902  0.0292  0.7256
   55CHL1  H19A 6517   0.023   0.045   9.906  0.2401 -1.1885  0.4673
   55CHL1  H19B 6518  -0.053   0.110   9.764 -0.3352  0.1673  0.4277
   55CHL1  H19C 6519   0.090  -0.004   9.747 -0.1748  0.0957  0.8629
   55CHL1    C1 6520   0.299   0.163   9.846 -0.3444  0.1178  0.4411
   55CHL1   H1A 6521   0.338   0.076   9.788  0.0453 -0.7729  2.0151
   55CHL1   H1B 6522   0.368   0.248   9.828  0.3251 -0.3035  0.9742
   55CHL1    C2 6523   0.304   0.110   9.998 -0.3655 -0.0884 -0.2178
   55CHL1   H2A 6524   0.412   0.085  10.010  0.6344  4.5262  1.4373
   55CHL1   H2B 6525   0.243   0.019  10.013 -0.0337 -0.1744  0.6263
   55CHL1   C20 6526   0.005   0.340   9.112 -0.3252  0.3502 -0.0355
   55CHL1   H20 6527  -0.089   0.281   9.122  0.0371 -0.4939 -1.4800
   55CHL1   C21 6528   0.108   0.234   9.049 -0.5274 -0.1697  0.0598
   55CHL1  H21A 6529   0.097   0.204   8.942 -3.0880 -2.1843  0.8296
   55CHL1  H21B 6530   0.106   0.140   9.107 -4.4369  0.8348  1.7441
   55CHL1  H21C 6531   0.211   0.273   9.057  0.1541 -1.7774 -0.6288
   55CHL1   C22 6532  -0.028   0.447   9.000  0.1986 -0.0923  0.0062
   55CHL1  H22A 6533  -0.074   0.394   8.913  1.7858 -0.5202 -0.5746
   55CHL1  H22B 6534  -0.107   0.513   9.041 -1.1325  1.5935 -4.8852
   55CHL1   C23 6535   0.099   0.536   8.961 -0.2208 -0.0562 -0.4634
   55CHL1  H23A 6536   0.063   0.628   8.910  2.4044  2.0783  1.3410
   55CHL1  H23B 6537   0.160   0.562   9.050 -1.9505 -0.6894  0.9226
   55CHL1   C24 6538   0.184   0.476   8.847 -0.1474  0.1967 -0.3256
   55CHL1  H24A 6539   0.261   0.407   8.886  0.6571 -0.0113 -2.2406
   55CHL1  H24B 6540   0.127   0.419   8.770 -1.5527 -0.1542  0.9357
   55CHL1   C25 6541   0.274   0.585   8.776 -0.2965 -0.9853  0.2699
   55CHL1   H25 6542   0.206   0.667   8.743  1.4795 -0.4287 -2.2069
   55CHL1   C26 6543   0.375   0.658   8.874  0.4137  0.3651  0.1636
   55CHL1  H26A 6544   0.323   0.735   8.934 -0.0759  1.1275 -1.2223
   55CHL1  H26B 6545   0.390   0.575   8.947  0.4869  1.8933  1.9193
   55CHL1  H26C 6546   0.467   0.689   8.819 -0.4411  0.5338 -1.2037
   55CHL1   C27 6547   0.355   0.527   8.665  0.1819 -0.1912  0.1057
   55CHL1  H27A 6548   0.382   0.599   8.584  0.2592 -1.0005 -0.6022
   55CHL1  H27B 6549   0.451   0.488   8.705  0.1244 -2.5415 -1.8913
   55CHL1  H27C 6550   0.308   0.442   8.612  0.5014 -1.0493  1.1763
   56CHL1    C3 6551   5.410   5.451  10.102 -0.3605  1.2147  0.0164
   56CHL1    H3 6552   5.512   5.496  10.108 -0.2428  1.1117 -1.1912
   56CHL1    O3 6553   5.363   5.418  10.235  0.1031 -0.9612  0.3520
   56CHL1   H3' 6554   5.270   5.438  10.231  0.4210  0.5552  0.2338
   56CHL1    C4 6555   5.310   5.545  10.032  0.1260 -0.7223 -0.2659
   56CHL1   H4A 6556   5.205   5.514  10.048 -1.2272  3.3564 -0.7891
   56CHL1   H4B 6557   5.322   5.642  10.084 -0.4811 -1.4294  1.2360
   56CHL1    C5 6558   5.337   5.558   9.887  0.4377 -0.5224 -1.0680
   56CHL1    C6 6559   5.370   5.675   9.833  0.4352 -0.6513  0.3238
   56CHL1    H6 6560   5.365   5.763   9.898  0.6898 -0.5131  0.1566
   56CHL1    C7 6561   5.393   5.707   9.684 -0.7234 -0.1811 -0.1908
   56CHL1   H7A 6562   5.335   5.796   9.652 -0.1889 -0.3834 -1.7523
   56CHL1   H7B 6563   5.498   5.734   9.662 -1.1031  1.2715 -0.2549
   56CHL1    C8 6564   5.348   5.579   9.600 -0.7047 -0.2134  1.2354
   56CHL1    H8 6565   5.237   5.580   9.599 -0.7429  4.7019  1.2013
   56CHL1   C14 6566   5.400   5.582   9.455  0.3936 -0.1192 -0.4262
   56CHL1   H14 6567   5.509   5.569   9.475 -0.0311 -1.8237  0.8920
   56CHL1   C15 6568   5.376   5.712   9.385 -0.6449 -0.2833  0.7705
   56CHL1  H15A 6569   5.273   5.754   9.388 -0.7295 -0.6038  2.7139
   56CHL1  H15B 6570   5.446   5.794   9.413  1.3356 -1.8964  0.6799
   56CHL1   C16 6571   5.408   5.679   9.241 -0.6342  0.1554 -0.3120
   56CHL1  H16A 6572   5.317   5.705   9.182 -0.6849 -0.3698 -0.4656
   56CHL1  H16B 6573   5.503   5.731   9.218 -2.3168  2.4752 -2.1404
   56CHL1   C17 6574   5.418   5.529   9.231  0.1658 -0.0052  0.1991
   56CHL1   H17 6575   5.526   5.503   9.241  0.5288  2.0593  1.9732
   56CHL1   C13 6576   5.360   5.472   9.361  0.0400 -0.4458 -0.5497
   56CHL1   C18 6577   5.206   5.478   9.343 -0.0442 -0.3626  1.4378
   56CHL1  H18A 6578   5.166   5.579   9.324  0.2938 -0.7359 -1.4593
   56CHL1  H18B 6579   5.185   5.416   9.253 -1.8619  1.4789  0.5607
   56CHL1  H18C 6580   5.155   5.435   9.432 -1.7487 -0.3684  0.4818
   56CHL1   C12 6581   5.422   5.347   9.420 -0.1976  0.0597 -0.1301
   56CHL1  H12A 6582   5.403   5.248   9.373 -1.4666 -1.0440  2.5919
   56CHL1  H12B 6583   5.531   5.367   9.420 -0.4088  1.2203  0.2759
   56CHL1   C11 6584   5.379   5.333   9.570  0.1849 -0.2379 -0.0625
   56CHL1  H11A 6585   5.277   5.288   9.570 -0.7087  1.7129  1.7997
   56CHL1  H11B 6586   5.440   5.251   9.614  0.1686 -0.4687 -0.4687
   56CHL1    C9 6587   5.396   5.449   9.667 -0.2078  1.0409 -0.3932
   56CHL1    H9 6588   5.505   5.468   9.681 -0.0971  1.8681 -2.1808
   56CHL1   C10 6589   5.341   5.425   9.807  0.1037 -0.8729 -0.3166
   56CHL1   C19 6590   5.197   5.365   9.794 -0.5918  0.1618  0.0514
   56CHL1  H19A 6591   5.138   5.433   9.729 -0.0769 -0.6829 -1.3118
   56CHL1  H19B 6592   5.185   5.267   9.743  0.0167  0.4686 -0.6946
   56CHL1  H19C 6593   5.139   5.359   9.889  0.9667 -0.8704  0.9497
   56CHL1    C1 6594   5.435   5.334   9.880 -0.5684 -0.2880  0.8870
   56CHL1   H1A 6595   5.429   5.234   9.833 -0.0791  0.4087 -0.6848
   56CHL1   H1B 6596   5.540   5.360   9.853 -0.8401 -0.8795 -0.7824
   56CHL1    C2 6597   5.405   5.317  10.029 -0.1217 -0.3364 -0.6379
   56CHL1   H2A 6598   5.480   5.242  10.061  1.6225  1.3346 -0.6834
   56CHL1   H2B 6599   5.307   5.269  10.050 -0.1964  0.6764  1.4976
   56CHL1   C20 6600   5.387   5.474   9.092  0.1091  0.5584  0.4061
   56CHL1   H20 6601   5.283   5.503   9.064 -0.2038 -1.6218 -0.7934
   56CHL1   C21 6602   5.414   5.328   9.090 -0.0685  0.8416  0.1738
   56CHL1  H21A 6603   5.326   5.277   9.132  0.2638 -0.7782 -1.0573
   56CHL1  H21B 6604   5.491   5.303   9.166 -0.3271  0.9528  0.4732
   56CHL1  H21C 6605   5.445   5.301   8.987 -4.2532 -2.8975 -0.2275
   56CHL1   C22 6606   5.470   5.554   8.984 -0.7642  0.2960 -0.1842
   56CHL1  H22A 6607   5.444   5.661   8.996  0.2214  0.5213 -0.0053
   56CHL1  H22B 6608   5.580   5.544   8.996 -0.8785 -2.6252 -0.9886
   56CHL1   C23 6609   5.431   5.520   8.835  0.2811 -0.0718  0.4781
   56CHL1  H23A 6610   5.456   5.417   8.803  2.1284  0.3021  0.6466
   56CHL1  H23B 6611   5.323   5.538   8.816  0.8359  1.7221 -1.0779
   56CHL1   C24 6612   5.502   5.620   8.741  0.1255  0.9049  0.3780
   56CHL1  H24A 6613   5.452   5.719   8.737 -2.2792 -0.3006 -0.2640
   56CHL1  H24B 6614   5.600   5.644   8.787  1.8445 -3.4913 -0.7733
   56CHL1   C25 6615   5.522   5.581   8.603 -0.6181  0.3996  0.2112
   56CHL1   H25 6616   5.580   5.486   8.609 -4.2430 -1.9361 -0.4758
   56CHL1   C26 6617   5.392   5.548   8.528 -0.1858  0.6534 -0.4129
   56CHL1  H26A 6618   5.343   5.453   8.560  1.2374  0.5010  1.3897
   56CHL1  H26B 6619   5.312   5.624   8.536 -0.9993 -0.0971 -1.3786
   56CHL1  H26C 6620   5.408   5.543   8.418  1.5565  0.4712 -0.1678
   56CHL1   C27 6621   5.610   5.689   8.526  0.2751 -0.4598 -0.0794
   56CHL1  H27A 6622   5.705   5.699   8.582  1.4797 -0.7560 -1.9909
   56CHL1  H27B 6623   5.629   5.641   8.427  0.5582 -2.2818  0.8419
   56CHL1  H27C 6624   5.556   5.786   8.531  0.6325 -0.3679  2.2976
   57CHL1    C3 6625   0.744   1.378  10.358  0.4071 -0.4784 -0.0118
   57CHL1    H3 6626   0.840   1.435  10.350 -0.0574  0.6370  1.9843
   57CHL1    O3 6627   0.715   1.358  10.496  0.4730  0.3221  0.7513
   57CHL1   H3' 6628   0.633   1.308  10.493  1.0710 -0.6259 -0.4139
   57CHL1    C4 6629   0.635   1.457  10.282  0.4013 -0.0594  0.0309
   57CHL1   H4A 6630   0.538   1.406  10.303  1.0971 -1.6366 -0.4668
   57CHL1   H4B 6631   0.641   1.558  10.327  1.5759 -0.7373  1.4483
   57CHL1    C5 6632   0.656   1.459  10.129  0.1569 -0.1827  0.0364
   57CHL1    C6 6633   0.656   1.577  10.056  0.1854  0.4488 -0.1508
   57CHL1    H6 6634   0.638   1.670  10.111 -0.6187  0.9882 -1.3003
   57CHL1    C7 6635   0.681   1.585   9.906 -0.0003 -0.2933  0.6302
   57CHL1   H7A 6636   0.612   1.652   9.851 -0.1242 -0.2895  0.7907
   57CHL1   H7B 6637   0.784   1.621   9.886 -0.5319  0.4238 -0.8889
   57CHL1    C8 6638   0.670   1.453   9.831  0.2331 -0.3235  0.1271
   57CHL1    H8 6639   0.565   1.425   9.811  0.5379 -0.8343 -0.7746
   57CHL1   C14 6640   0.730   1.460   9.699  0.8640 -0.4245 -0.0861
   57CHL1   H14 6641   0.835   1.493   9.715  0.3181  0.3691  1.9783
   57CHL1   C15 6642   0.671   1.558   9.592  1.0487 -0.2135 -0.6033
   57CHL1  H15A 6643   0.562   1.538   9.588  0.2973  3.6113 -0.7707
   57CHL1  H15B 6644   0.691   1.665   9.612  1.0251 -0.0563 -1.4206
   57CHL1   C16 6645   0.742   1.514   9.461 -0.6392  0.5090  0.0267
   57CHL1  H16A 6646   0.667   1.493   9.382 -1.7853 -0.7041  1.4188
   57CHL1  H16B 6647   0.824   1.582   9.427 -0.4723 -0.3388 -1.2910
   57CHL1   C17 6648   0.812   1.375   9.490  0.4008 -0.3793  0.1538
   57CHL1   H17 6649   0.918   1.400   9.508  0.8567 -0.3821 -2.3871
   57CHL1   C13 6650   0.748   1.325   9.625 -0.7685 -0.8062  0.8140
   57CHL1   C18 6651   0.605   1.273   9.600  0.1009  0.0347 -0.0757
   57CHL1  H18A 6652   0.605   1.177   9.543  2.0531 -0.5568  0.8780
   57CHL1  H18B 6653   0.548   1.267   9.695 -0.0687 -0.0468 -0.1844
   57CHL1  H18C 6654   0.546   1.339   9.533 -0.9657  1.5182  2.2538
   57CHL1   C12 6655   0.833   1.226   9.701 -0.3958 -0.4004 -0.1398
   57CHL1  H12A 6656   0.831   1.131   9.644  0.0609  0.2114 -1.1871
   57CHL1  H12B 6657   0.940   1.248   9.724  0.2431 -1.0159 -2.3990
   57CHL1   C11 6658   0.774   1.213   9.842  0.4733  0.3113 -0.2275
   57CHL1  H11A 6659   0.680   1.154   9.836 -0.2358  1.3554  0.4431
   57CHL1  H11B 6660   0.842   1.157   9.910  0.4597  0.6485  0.0674
   57CHL1    C9 6661   0.746   1.346   9.913 -0.3700  0.2609 -0.7922
   57CHL1    H9 6662   0.848   1.386   9.929 -1.2883  1.7284  1.8254
   57CHL1   C10 6663   0.694   1.329  10.057  0.3017  1.2428  0.1907
   57CHL1   C19 6664   0.572   1.228  10.054  0.1969  0.0596  0.1262
   57CHL1  H19A 6665   0.599   1.123  10.028 -2.2605 -1.4155  3.2119
   57CHL1  H19B 6666   0.516   1.219  10.149 -4.0793  2.6216 -1.9575
   57CHL1  H19C 6667   0.488   1.265   9.991 -1.4936 -0.2058  2.1698
   57CHL1    C1 6668   0.801   1.266  10.148  0.2733 -0.1274  0.8105
   57CHL1   H1A 6669   0.832   1.168  10.104 -1.9190 -1.2013  1.5710
   57CHL1   H1B 6670   0.889   1.333  10.152  0.2122 -0.0902  1.5682
   57CHL1    C2 6671   0.762   1.243  10.300  0.2677 -0.3319  0.1254
   57CHL1   H2A 6672   0.844   1.198  10.360  0.4229 -1.5043 -0.9570
   57CHL1   H2B 6673   0.676   1.173  10.310  0.1532 -0.0892  0.9255
   57CHL1   C20 6674   0.801   1.289   9.364 -0.2904 -0.3545 -0.2859
   57CHL1   H20 6675   0.696   1.273   9.333 -1.0007  0.0220  1.8245
   57CHL1   C21 6676   0.855   1.150   9.384  0.3183 -0.0443 -0.0150
   57CHL1  H21A 6677   0.941   1.140   9.454 -1.0378  0.0674  1.6898
   57CHL1  H21B 6678   0.897   1.108   9.290  2.5425 -0.7109  1.2346
   57CHL1  H21C 6679   0.770   1.090   9.423 -1.6669  1.2343 -2.2174
   57CHL1   C22 6680   0.876   1.351   9.241  0.5269  0.7359 -0.3441
   57CHL1  H22A 6681   0.863   1.461   9.239  1.3974  0.8347 -3.3764
   57CHL1  H22B 6682   0.983   1.323   9.251  1.0237  1.8850 -2.2611
   57CHL1   C23 6683   0.824   1.294   9.109  0.2142 -0.0414  0.4619
   57CHL1  H23A 6684   0.800   1.185   9.109 -1.8929  0.3700 -1.5738
   57CHL1  H23B 6685   0.731   1.340   9.069  0.2448 -1.6435 -1.5136
   57CHL1   C24 6686   0.935   1.314   9.005  0.4360 -0.1477  0.1229
   57CHL1  H24A 6687   0.978   1.417   9.005 -0.4085  0.2314  1.5426
   57CHL1  H24B 6688   1.024   1.252   9.025  0.0254 -0.5330  0.7939
   57CHL1   C25 6689   0.877   1.287   8.860 -0.4327  0.0279  0.0617
   57CHL1   H25 6690   0.778   1.333   8.842 -1.1482 -1.7614 -0.7412
   57CHL1   C26 6691   0.973   1.349   8.761  0.3826 -0.2885 -0.0990
   57CHL1  H26A 6692   0.974   1.458   8.780  1.1153 -0.5397  1.3168
   57CHL1  H26B 6693   1.075   1.312   8.785 -0.2448 -1.5969  0.6252
   57CHL1  H26C 6694   0.950   1.328   8.654 -0.4401 -0.9079  0.1965
   57CHL1   C27 6695   0.858   1.137   8.833 -0.3414  0.5531  0.0541
   57CHL1  H27A 6696   0.858   1.113   8.724  0.6309  1.9459 -0.2581
   57CHL1  H27B 6697   0.931   1.075   8.890  0.0866  1.1293  0.1297
   57CHL1  H27C 6698   0.754   1.106   8.859 -0.7717  1.2609 -0.8054
   58CHL1    C3 6699   3.411   0.128  10.150 -0.2226 -0.2428  0.0472
   58CHL1    H3 6700   3.408   0.028  10.102 -0.0599 -0.2995  0.1523
   58CHL1    O3 6701   3.408   0.106  10.292 -0.6225  0.4044  0.5138
   58CHL1   H3' 6702   3.409   0.193  10.332 -2.5742  2.4223 -3.5277
   58CHL1    C4 6703   3.547   0.188  10.107  0.4871  0.5004  0.8184
   58CHL1   H4A 6704   3.559   0.281  10.166 -0.3355  0.1410  1.5739
   58CHL1   H4B 6705   3.625   0.125  10.153  3.3239  2.5470 -1.0208
   58CHL1    C5 6706   3.555   0.208   9.956 -0.1097 -0.1365 -0.5379
   58CHL1    C6 6707   3.647   0.148   9.884  0.6851  0.5562  0.3804
   58CHL1    H6 6708   3.715   0.078   9.934 -0.8258 -1.8009 -0.8031
   58CHL1    C7 6709   3.653   0.145   9.734  0.0195 -0.0093 -0.2217
   58CHL1   H7A 6710   3.758   0.154   9.698  0.1923 -0.4469  0.1737
   58CHL1   H7B 6711   3.616   0.044   9.706  3.1885 -1.2692 -0.1294
   58CHL1    C8 6712   3.575   0.267   9.674  0.3091 -0.1777 -0.5311
   58CHL1    H8 6713   3.630   0.363   9.681  1.8730 -0.9629 -1.6780
   58CHL1   C14 6714   3.560   0.238   9.526 -0.4518  0.2745  0.3911
   58CHL1   H14 6715   3.492   0.150   9.519  0.6453 -0.5249 -0.3278
   58CHL1   C15 6716   3.682   0.205   9.435 -0.9525  0.4772 -0.3297
   58CHL1  H15A 6717   3.764   0.279   9.441 -0.7842  0.2987 -0.3978
   58CHL1  H15B 6718   3.732   0.109   9.461 -0.5950  0.4259 -1.1784
   58CHL1   C16 6719   3.627   0.221   9.292 -1.0388 -0.1430  0.0149
   58CHL1  H16A 6720   3.682   0.295   9.229 -0.8788  1.1382  1.6188
   58CHL1  H16B 6721   3.621   0.123   9.240 -1.6612 -0.2171  0.2242
   58CHL1   C17 6722   3.478   0.277   9.309  0.1421 -0.2432  0.0529
   58CHL1   H17 6723   3.414   0.187   9.315  0.3940 -0.4192  0.1195
   58CHL1   C13 6724   3.472   0.336   9.451 -0.1379 -0.6365  0.2889
   58CHL1   C18 6725   3.534   0.479   9.452  0.7330  0.6793 -0.2728
   58CHL1  H18A 6726   3.635   0.479   9.406  1.3735  0.3914  1.1047
   58CHL1  H18B 6727   3.469   0.533   9.380 -1.4015 -0.2331  0.9138
   58CHL1  H18C 6728   3.534   0.523   9.554 -1.3732 -0.8050  0.4078
   58CHL1   C12 6729   3.336   0.335   9.510  0.5935  0.7987 -0.5698
   58CHL1  H12A 6730   3.267   0.401   9.454  0.6146  0.7978 -0.5955
   58CHL1  H12B 6731   3.300   0.231   9.494  1.6081  0.3191  0.2349
   58CHL1   C11 6732   3.341   0.370   9.655 -0.0525  0.5148  0.4730
   58CHL1  H11A 6733   3.362   0.478   9.666 -1.0625  0.4617  3.1978
   58CHL1  H11B 6734   3.237   0.362   9.694  0.4406  1.5622  2.0234
   58CHL1    C9 6735   3.437   0.276   9.738 -0.2871  0.4224  0.1295
   58CHL1    H9 6736   3.389   0.176   9.727  0.9128 -0.3003  1.2102
   58CHL1   C10 6737   3.439   0.292   9.893  0.2758 -0.2849 -0.1436
   58CHL1   C19 6738   3.445   0.440   9.915  0.1937  0.7016  0.1430
   58CHL1  H19A 6739   3.450   0.465  10.023  3.5838  1.4008 -0.1238
   58CHL1  H19B 6740   3.524   0.483   9.848  1.1380 -0.3184  0.5903
   58CHL1  H19C 6741   3.349   0.489   9.889 -0.2943  0.5631  1.6418
   58CHL1    C1 6742   3.300   0.233   9.946  0.7079 -0.1845  0.4513
   58CHL1   H1A 6743   3.210   0.291   9.917 -0.8080 -1.5100  2.4071
   58CHL1   H1B 6744   3.280   0.129   9.911 -2.2655  0.3220  0.5465
   58CHL1    C2 6745   3.290   0.214  10.101 -0.5182  0.7069 -0.2608
   58CHL1   H2A 6746   3.194   0.183  10.147  0.9860 -1.3409  1.6254
   58CHL1   H2B 6747   3.330   0.306  10.148 -1.4829  1.0246 -0.0525
   58CHL1   C20 6748   3.428   0.354   9.181 -0.7224 -0.2997 -0.0857
   58CHL1   H20 6749   3.333   0.408   9.203 -0.6049  2.0307 -4.8082
   58CHL1   C21 6750   3.397   0.244   9.076  0.2330 -0.5136  0.5832
   58CHL1  H21A 6751   3.485   0.176   9.069  0.3135 -0.2700 -0.7957
   58CHL1  H21B 6752   3.372   0.289   8.978  3.0345 -0.5606 -0.1973
   58CHL1  H21C 6753   3.314   0.180   9.114 -0.0224 -0.2826  0.4216
   58CHL1   C22 6754   3.523   0.455   9.115  0.7163 -0.7236 -0.0019
   58CHL1  H22A 6755   3.605   0.490   9.181 -0.6956  2.2488  0.2271
   58CHL1  H22B 6756   3.566   0.403   9.027  0.1527 -2.6574  0.8335
   58CHL1   C23 6757   3.442   0.573   9.053  0.0290 -0.1552 -0.1662
   58CHL1  H23A 6758   3.351   0.525   9.010  1.2485 -2.7471  0.0673
   58CHL1  H23B 6759   3.403   0.642   9.130 -0.3523 -1.0782  0.4873
   58CHL1   C24 6760   3.523   0.649   8.945 -0.2987  0.7640 -0.5303
   58CHL1  H24A 6761   3.604   0.706   8.995  1.1419 -1.1604 -0.6508
   58CHL1  H24B 6762   3.558   0.576   8.869 -0.2921  0.8198 -0.5819
   58CHL1   C25 6763   3.452   0.763   8.864 -0.3614  0.2649  0.5334
   58CHL1   H25 6764   3.356   0.726   8.820  0.1052 -1.4505  0.9289
   58CHL1   C26 6765   3.410   0.887   8.942 -0.2972 -0.0355  0.2754
   58CHL1  H26A 6766   3.487   0.934   9.007 -0.1266  0.0359  0.0207
   58CHL1  H26B 6767   3.372   0.963   8.871  2.7786  2.1258  0.8240
   58CHL1  H26C 6768   3.328   0.857   9.011 -1.3847  2.0360 -0.0590
   58CHL1   C27 6769   3.543   0.801   8.749 -0.4012 -0.2736 -0.5471
   58CHL1  H27A 6770   3.563   0.716   8.681  0.9923 -0.2901 -0.1350
   58CHL1  H27B 6771   3.495   0.872   8.678 -0.8931  2.2730  2.2208
   58CHL1  H27C 6772   3.630   0.859   8.787 -0.2456 -0.3952 -0.7224
   59CHL1    C3 6773   3.430   5.948  10.376  0.0544 -0.0337 -0.1397
   59CHL1    H3 6774   3.477   6.048  10.374  0.5937 -0.2929 -0.6550
   59CHL1    O3 6775   3.428   5.905  10.509 -0.0776 -0.2543  0.6574
   59CHL1   H3' 6776   3.513   5.932  10.546  0.2735 -1.2397  0.5843
   59CHL1    C4 6777   3.286   5.949  10.329  0.1423  0.4089  0.8254
   59CHL1   H4A 6778   3.247   5.845  10.325  0.9302  0.1081  0.8121
   59CHL1   H4B 6779   3.223   6.014  10.393  1.8188  1.0400  1.8858
   59CHL1    C5 6780   3.279   6.011  10.189 -0.0902  0.5310  0.4958
   59CHL1    C6 6781   3.210   6.122  10.151 -0.0129 -0.2756 -1.2409
   59CHL1    H6 6782   3.148   6.174  10.226 -0.3505 -2.0428 -0.2466
   59CHL1    C7 6783   3.198   6.163  10.006 -0.1520 -0.2692 -0.8749
   59CHL1   H7A 6784   3.098   6.199   9.976  0.6129  3.0465  0.3746
   59CHL1   H7B 6785   3.244   6.264  10.002 -0.4458 -0.0465  0.8783
   59CHL1    C8 6786   3.252   6.068   9.899 -1.0604 -0.0388  0.8520
   59CHL1    H8 6787   3.181   5.985   9.879 -0.0828  0.0093 -3.2533
   59CHL1   C14 6788   3.277   6.143   9.766 -0.0326  0.4161 -0.2336
   59CHL1   H14 6789   3.358   6.216   9.792  1.0885 -1.0048  0.3228
   59CHL1   C15 6790   3.163   6.226   9.701  0.4880 -0.4614 -0.0433
   59CHL1  H15A 6791   3.072   6.162   9.704 -2.1870  3.2167 -0.3450
   59CHL1  H15B 6792   3.135   6.318   9.756 -0.0032 -0.7479  0.1926
   59CHL1   C16 6793   3.213   6.243   9.557  0.1429  0.1656 -0.0452
   59CHL1  H16A 6794   3.132   6.199   9.495  0.7906  1.8598 -2.1494
   59CHL1  H16B 6795   3.213   6.345   9.513 -0.6601  0.0384 -0.3419
   59CHL1   C17 6796   3.342   6.166   9.548 -0.0766 -0.1595  0.4248
   59CHL1   H17 6797   3.419   6.239   9.580 -1.9413  1.7569  0.6108
   59CHL1   C13 6798   3.341   6.059   9.657 -0.3185  0.2831 -0.6826
   59CHL1   C18 6799   3.252   5.944   9.612 -0.4322 -0.1134 -0.2164
   59CHL1  H18A 6800   3.171   5.978   9.543 -2.0646 -2.0269  0.7181
   59CHL1  H18B 6801   3.308   5.862   9.563 -2.2648  0.1358 -2.8563
   59CHL1  H18C 6802   3.206   5.896   9.701  0.6940 -1.9730 -0.6162
   59CHL1   C12 6803   3.481   6.026   9.713 -0.0028  0.2010 -0.1833
   59CHL1  H12A 6804   3.538   5.963   9.641  0.3764  0.5354 -0.1702
   59CHL1  H12B 6805   3.536   6.117   9.743 -1.8504  1.5105 -0.6344
   59CHL1   C11 6806   3.460   5.939   9.840 -0.2702 -0.0998  0.3145
   59CHL1  H11A 6807   3.410   5.844   9.811 -2.2033  1.4284 -1.4753
   59CHL1  H11B 6808   3.562   5.922   9.882 -0.5501 -4.1453 -0.4580
   59CHL1    C9 6809   3.383   6.013   9.950  0.0811 -0.3483  0.2642
   59CHL1    H9 6810   3.445   6.100   9.981 -1.7778  1.3330 -0.6265
   59CHL1   C10 6811   3.365   5.930  10.088  0.3466  0.0552 -0.4114
   59CHL1   C19 6812   3.288   5.799  10.069  0.3173 -0.8429  0.5466
   59CHL1  H19A 6813   3.180   5.812  10.043  0.4509  0.0652  0.4568
   59CHL1  H19B 6814   3.331   5.732   9.991  1.0574 -0.5172  0.6740
   59CHL1  H19C 6815   3.287   5.733  10.158  0.7469  0.4783  1.5308
   59CHL1    C1 6816   3.510   5.896  10.141  1.1309 -0.1675 -0.4379
   59CHL1   H1A 6817   3.576   5.837  10.074  2.1600  1.4462 -0.8593
   59CHL1   H1B 6818   3.549   5.999  10.149  2.0871 -0.3479 -2.6112
   59CHL1    C2 6819   3.519   5.851  10.291 -0.8294  0.4972  0.3619
   59CHL1   H2A 6820   3.621   5.845  10.332 -0.7163  0.7069  0.1145
   59CHL1   H2B 6821   3.483   5.747  10.303  0.2667  0.2711  1.7090
   59CHL1   C20 6822   3.373   6.128   9.400 -0.3153  1.6156  0.3211
   59CHL1   H20 6823   3.291   6.061   9.367  2.5537 -1.9270 -0.0134
   59CHL1   C21 6824   3.510   6.064   9.393  0.0914  0.3459  0.3917
   59CHL1  H21A 6825   3.521   5.973   9.455  2.7783  1.0859  1.0636
   59CHL1  H21B 6826   3.592   6.136   9.414 -0.7044  0.5725  2.8741
   59CHL1  H21C 6827   3.526   6.031   9.288 -1.8270 -1.2047  0.5638
   59CHL1   C22 6828   3.370   6.249   9.307  0.4466  0.2913 -0.1580
   59CHL1  H22A 6829   3.282   6.314   9.325  2.2478  3.1515 -1.3831
   59CHL1  H22B 6830   3.449   6.313   9.351  0.7751 -1.7853  2.4014
   59CHL1   C23 6831   3.380   6.220   9.156 -1.0054  0.2286 -0.1796
   59CHL1  H23A 6832   3.472   6.163   9.130  0.0540  1.2953  1.1582
   59CHL1  H23B 6833   3.294   6.156   9.127 -0.7047 -1.5239  2.6543
   59CHL1   C24 6834   3.375   6.343   9.071 -0.3981  1.0862 -0.3342
   59CHL1  H24A 6835   3.282   6.397   9.098 -0.4947  0.0126  1.6186
   59CHL1  H24B 6836   3.461   6.406   9.102  0.7239 -0.4586 -0.2548
   59CHL1   C25 6837   3.378   6.323   8.921  0.5540 -0.0940 -0.1482
   59CHL1   H25 6838   3.384   6.424   8.874 -1.8037  1.0723  1.9351
   59CHL1   C26 6839   3.501   6.242   8.869 -0.6978 -0.1299 -0.2562
   59CHL1  H26A 6840   3.597   6.278   8.909  0.8528 -1.1919 -2.8694
   59CHL1  H26B 6841   3.477   6.138   8.899  0.0293  0.0250  0.8810
   59CHL1  H26C 6842   3.499   6.261   8.759 -0.8344  0.6857 -0.1132
   59CHL1   C27 6843   3.256   6.240   8.873  0.2523  0.5256  0.1706
   59CHL1  H27A 6844   3.266   6.226   8.764 -1.1530  1.2241 -0.0663
   59CHL1  H27B 6845   3.260   6.137   8.914  0.1631  0.0320 -1.0464
   59CHL1  H27C 6846   3.162   6.294   8.898 -0.9510 -1.2709 -0.4263
   60CHL1    C3 6847   2.713   4.775  10.386 -0.1378 -0.9190 -0.3876
   60CHL1    H3 6848   2.753   4.879  10.381 -2.1241 -0.1333 -0.2423
   60CHL1    O3 6849   2.719   4.735  10.524  0.1189  0.3683  0.1369
   60CHL1   H3' 6850   2.704   4.640  10.513  1.8088 -0.1003  1.6957
   60CHL1    C4 6851   2.573   4.774  10.335  0.7389 -0.4716 -0.5357
   60CHL1   H4A 6852   2.532   4.674  10.358  0.0200  0.3191  1.7370
   60CHL1   H4B 6853   2.503   4.834  10.397 -2.5765  0.5102 -4.9020
   60CHL1    C5 6854   2.546   4.801  10.190  0.2106  0.0947 -0.2906
   60CHL1    C6 6855   2.464   4.900  10.144  1.0007  0.7477  0.0164
   60CHL1    H6 6856   2.404   4.964  10.209  0.6157 -0.9976  1.4202
   60CHL1    C7 6857   2.436   4.929   9.998 -0.1432  0.3507 -0.5631
   60CHL1   H7A 6858   2.327   4.937   9.976 -0.0627  0.5709 -0.8776
   60CHL1   H7B 6859   2.489   5.023   9.974 -0.3536  0.8194  0.7718
   60CHL1    C8 6860   2.484   4.807   9.908  0.3872  0.4361 -0.5077
   60CHL1    H8 6861   2.407   4.727   9.911  1.5135 -0.6877 -1.0597
   60CHL1   C14 6862   2.484   4.848   9.762 -0.4713  0.3996  1.0540
   60CHL1   H14 6863   2.568   4.920   9.747  0.1045 -0.8691 -2.1829
   60CHL1   C15 6864   2.360   4.917   9.709 -0.3285  0.3079 -0.6534
   60CHL1  H15A 6865   2.271   4.855   9.734  0.8443 -0.8921  0.6158
   60CHL1  H15B 6866   2.340   5.021   9.744  1.7862  0.7835 -0.7807
   60CHL1   C16 6867   2.365   4.909   9.557 -0.4024 -0.7228  0.5108
   60CHL1  H16A 6868   2.270   4.858   9.533 -1.5752  1.1448  1.1285
   60CHL1  H16B 6869   2.389   5.006   9.507  2.8820 -2.6683 -1.9109
   60CHL1   C17 6870   2.493   4.823   9.533 -0.3193 -0.0589  0.0861
   60CHL1   H17 6871   2.573   4.900   9.528  1.5122 -1.9147  0.3332
   60CHL1   C13 6872   2.525   4.744   9.665  0.7042 -0.2826  0.7646
   60CHL1   C18 6873   2.427   4.624   9.666  0.7212 -0.1646  0.0308
   60CHL1  H18A 6874   2.469   4.555   9.589  0.9806 -0.4821  0.4501
   60CHL1  H18B 6875   2.431   4.562   9.758  1.7379  1.4497  1.0898
   60CHL1  H18C 6876   2.327   4.662   9.635  0.3015 -2.0973 -1.0973
   60CHL1   C12 6877   2.663   4.707   9.693 -0.4429 -0.3323 -0.4073
   60CHL1  H12A 6878   2.697   4.620   9.632  0.4263 -0.4713  0.2588
   60CHL1  H12B 6879   2.726   4.797   9.676 -1.5122  0.4360 -0.3128
   60CHL1   C11 6880   2.685   4.668   9.846 -0.2967 -0.0563  0.0940
   60CHL1  H11A 6881   2.631   4.571   9.841 -0.1756 -0.2533  1.9246
   60CHL1  H11B 6882   2.794   4.658   9.861 -0.4821  0.7529  2.2001
   60CHL1    C9 6883   2.624   4.760   9.949 -0.1819 -0.9681  0.7183
   60CHL1    H9 6884   2.679   4.857   9.950  0.2212 -1.1700  4.0724
   60CHL1   C10 6885   2.629   4.711  10.094 -0.2437 -0.3739 -0.2991
   60CHL1   C19 6886   2.586   4.562  10.102  0.2623  0.6236  0.6427
   60CHL1  H19A 6887   2.488   4.556  10.050  1.3797  3.3767 -1.9517
   60CHL1  H19B 6888   2.650   4.493  10.044 -1.8106 -1.3679  0.6798
   60CHL1  H19C 6889   2.574   4.530  10.208  1.3945  0.9950  0.8926
   60CHL1    C1 6890   2.775   4.715  10.150  0.0463  0.2388  0.2922
   60CHL1   H1A 6891   2.845   4.659  10.085 -0.3057 -1.4589  1.3468
   60CHL1   H1B 6892   2.827   4.813  10.155 -0.4648  0.4202  2.4861
   60CHL1    C2 6893   2.793   4.682  10.299 -0.2648  0.4467 -0.5762
   60CHL1   H2A 6894   2.899   4.686  10.330 -0.3496 -0.5500 -0.1182
   60CHL1   H2B 6895   2.763   4.577  10.323  0.5137  0.7407  1.8421
   60CHL1   C20 6896   2.490   4.747   9.400 -0.7959 -0.1888 -0.7778
   60CHL1   H20 6897   2.429   4.655   9.411 -1.7402  0.3032 -1.9149
   60CHL1   C21 6898   2.628   4.697   9.362  0.0772  0.2830 -0.1335
   60CHL1  H21A 6899   2.681   4.632   9.435  1.1685  0.9337 -0.3298
   60CHL1  H21B 6900   2.707   4.771   9.335  0.2643 -0.0864 -0.6220
   60CHL1  H21C 6901   2.601   4.627   9.280  0.4815  0.9130 -0.8052
   60CHL1   C22 6902   2.429   4.824   9.278 -0.5177 -0.3899 -0.8898
   60CHL1  H22A 6903   2.407   4.744   9.204  0.5282 -1.7330  0.2265
   60CHL1  H22B 6904   2.336   4.873   9.314  0.5536  1.4208 -0.5253
   60CHL1   C23 6905   2.525   4.927   9.225 -0.6284  0.2379  0.3920
   60CHL1  H23A 6906   2.577   4.990   9.301 -1.1070  1.6421 -0.4152
   60CHL1  H23B 6907   2.610   4.880   9.171  2.4643  3.1316  2.5336
   60CHL1   C24 6908   2.460   5.027   9.127  0.7605  0.4472 -0.0033
   60CHL1  H24A 6909   2.364   5.063   9.171 -0.0486 -1.1865 -0.3847
   60CHL1  H24B 6910   2.533   5.107   9.102  0.3128  1.2123  1.0866
   60CHL1   C25 6911   2.404   4.973   8.986 -0.5626  0.1164  0.2923
   60CHL1   H25 6912   2.331   4.895   9.016  1.5023 -0.9787  2.7233
   60CHL1   C26 6913   2.344   5.082   8.905  0.3534  0.5886 -0.6880
   60CHL1  H26A 6914   2.311   5.036   8.809  1.1537 -3.1668  0.7557
   60CHL1  H26B 6915   2.252   5.105   8.961 -0.7854 -1.6368 -1.5462
   60CHL1  H26C 6916   2.414   5.168   8.900  2.3490 -0.9624 -0.3918
   60CHL1   C27 6917   2.513   4.910   8.901 -0.4872  0.4468 -0.5819
   60CHL1  H27A 6918   2.485   4.893   8.795  2.0877  1.1825 -1.4199
   60CHL1  H27B 6919   2.601   4.979   8.903 -0.1617  0.0252 -0.3155
   60CHL1  H27C 6920   2.558   4.815   8.936 -1.6277 -0.0295 -0.3888
   61CHL1    C3 6921   6.492   4.115  10.316 -0.5990  0.2488  0.2636
   61CHL1    H3 6922   6.602   4.102  10.304 -0.6290  2.0662 -2.1858
   61CHL1    O3 6923   6.469   4.101  10.455 -0.2065  0.1783 -0.0117
   61CHL1   H3' 6924   6.378   4.124  10.472 -0.3039 -0.2042 -0.0141
   61CHL1    C4 6925   6.441   4.252  10.273  0.7000  0.2460 -0.2217
   61CHL1   H4A 6926   6.336   4.269  10.306  1.0248  2.3044 -0.1744
   61CHL1   H4B 6927   6.495   4.333  10.327  0.3223  0.4976 -0.2168
   61CHL1    C5 6928   6.452   4.283  10.128  0.5494 -0.6588 -0.7402
   61CHL1    C6 6929   6.513   4.391  10.085 -0.5901  0.2088 -0.4223
   61CHL1    H6 6930   6.566   4.458  10.155  1.7868 -0.8497 -1.1620
   61CHL1    C7 6931   6.532   4.427   9.941 -0.6165  0.7204 -0.1101
   61CHL1   H7A 6932   6.523   4.537   9.925  1.3561  0.4769 -3.3129
   61CHL1   H7B 6933   6.638   4.406   9.918 -1.6194 -1.5163 -2.9562
   61CHL1    C8 6934   6.434   4.346   9.855 -0.0371  0.4434 -0.0135
   61CHL1    H8 6935   6.333   4.388   9.874 -0.5140 -1.7041  2.5006
   61CHL1   C14 6936   6.470   4.362   9.709  0.2454  0.3797 -0.2287
   61CHL1   H14 6937   6.578   4.334   9.710 -0.2284 -1.4344  0.7013
   61CHL1   C15 6938   6.477   4.502   9.652 -0.2685  0.1127  0.0170
   61CHL1  H15A 6939   6.388   4.556   9.691 -1.0710 -0.7187 -0.6447
   61CHL1  H15B 6940   6.568   4.558   9.682 -0.1686  0.3342 -0.7017
   61CHL1   C16 6941   6.476   4.478   9.495  0.2210  0.3110 -0.3962
   61CHL1  H16A 6942   6.387   4.526   9.450 -0.6433  0.6946  1.6540
   61CHL1  H16B 6943   6.566   4.510   9.438  1.6033 -1.7601  0.5656
   61CHL1   C17 6944   6.461   4.320   9.481 -0.4883 -0.5152 -0.7485
   61CHL1   H17 6945   6.561   4.274   9.489 -0.5581 -0.4540  0.6780
   61CHL1   C13 6946   6.398   4.276   9.607  0.8879  0.0330  0.8320
   61CHL1   C18 6947   6.252   4.322   9.604  0.0592  0.1464  0.7187
   61CHL1  H18A 6948   6.244   4.419   9.550  1.5962  1.6235  3.0733
   61CHL1  H18B 6949   6.184   4.251   9.553  0.7571 -0.1525  0.1964
   61CHL1  H18C 6950   6.205   4.340   9.703 -0.0717  0.7122  0.5523
   61CHL1   C12 6951   6.411   4.132   9.646  0.0564  0.2074  0.2599
   61CHL1  H12A 6952   6.336   4.072   9.591 -3.2238  2.3942  2.1354
   61CHL1  H12B 6953   6.515   4.093   9.644  0.1070  0.3938 -1.3890
   61CHL1   C11 6954   6.352   4.106   9.791  0.0209 -0.3872 -0.5901
   61CHL1  H11A 6955   6.244   4.130   9.788 -0.4229 -2.2926 -0.3866
   61CHL1  H11B 6956   6.353   3.998   9.815  1.5098 -0.8108 -2.4109
   61CHL1    C9 6957   6.431   4.197   9.894  0.5707  0.2568 -0.3603
   61CHL1    H9 6958   6.534   4.158   9.878  1.3331  1.7101  0.9312
   61CHL1   C10 6959   6.388   4.172  10.041 -0.0163 -0.8595  0.9344
   61CHL1   C19 6960   6.232   4.190  10.055  0.4316 -0.1477 -0.3685
   61CHL1  H19A 6961   6.202   4.188  10.162  0.2905  1.1097 -0.3735
   61CHL1  H19B 6962   6.191   4.280  10.005 -0.6569 -0.1165  0.5524
   61CHL1  H19C 6963   6.179   4.109  10.001 -2.0365  1.5268 -0.5368
   61CHL1    C1 6964   6.428   4.026  10.093 -0.1063  0.2949  0.2771
   61CHL1   H1A 6965   6.367   3.949  10.043  0.2567  0.3394 -0.2353
   61CHL1   H1B 6966   6.530   3.996  10.059  0.0808  1.2105  0.0241
   61CHL1    C2 6967   6.422   4.002  10.244 -0.5895 -0.4193  0.9068
   61CHL1   H2A 6968   6.465   3.905  10.278  1.0684 -0.4049 -1.0636
   61CHL1   H2B 6969   6.313   4.005  10.268 -0.8112 -0.0511 -0.1299
   61CHL1   C20 6970   6.400   4.284   9.344 -0.5182  0.6391 -1.0356
   61CHL1   H20 6971   6.294   4.318   9.349 -1.3834 -1.9703 -0.8507
   61CHL1   C21 6972   6.416   4.132   9.317 -0.4792  0.0684 -0.4095
   61CHL1  H21A 6973   6.380   4.094   9.219 -2.1356  3.0547 -1.0169
   61CHL1  H21B 6974   6.345   4.084   9.388  0.3031  0.0643  0.3859
   61CHL1  H21C 6975   6.517   4.097   9.348 -0.4914  1.9721  1.8915
   61CHL1   C22 6976   6.471   4.352   9.226  0.5701  0.4880  0.8506
   61CHL1  H22A 6977   6.477   4.460   9.250 -2.3872  0.9001 -0.0709
   61CHL1  H22B 6978   6.575   4.323   9.199 -0.6076 -1.9918 -1.2597
   61CHL1   C23 6979   6.392   4.329   9.093  0.0887  0.4979  0.1865
   61CHL1  H23A 6980   6.394   4.221   9.067  3.6097  0.5722 -0.0566
   61CHL1  H23B 6981   6.287   4.361   9.114  0.3285  1.0379  0.5615
   61CHL1   C24 6982   6.447   4.418   8.981  0.9806  1.0863  0.1455
   61CHL1  H24A 6983   6.423   4.525   9.002 -0.9880  1.1132 -1.9675
   61CHL1  H24B 6984   6.557   4.402   8.983  0.6507 -1.3223  0.5275
   61CHL1   C25 6985   6.396   4.395   8.833 -0.8966 -0.0491  0.3135
   61CHL1   H25 6986   6.305   4.455   8.813  1.6710  3.2868 -1.9076
   61CHL1   C26 6987   6.503   4.472   8.740 -0.2147  0.0112 -0.5268
   61CHL1  H26A 6988   6.590   4.402   8.738 -0.5600 -0.4404  0.0765
   61CHL1  H26B 6989   6.459   4.495   8.641 -0.7323 -0.2686 -0.3640
   61CHL1  H26C 6990   6.538   4.569   8.782  0.2782 -1.2855  2.1655
   61CHL1   C27 6991   6.386   4.252   8.794  0.9124  0.5436 -0.1973
   61CHL1  H27A 6992   6.347   4.248   8.690  0.7759 -0.3037 -0.1190
   61CHL1  H27B 6993   6.492   4.217   8.797  0.6943 -0.1545 -0.4974
   61CHL1  H27C 6994   6.330   4.200   8.875  1.8651 -0.7581 -0.3445
   62CHL1    C3 6995   0.010   1.073  10.043  0.0712 -0.6871 -0.6452
   62CHL1    H3 6996  -0.086   1.078   9.986  1.3373 -0.2037 -2.7779
   62CHL1    O3 6997  -0.008   1.073  10.187  0.0126 -0.0893  0.2785
   62CHL1   H3' 6998   0.079   1.047  10.218  0.9533  1.3525 -1.0653
   62CHL1    C4 6999   0.083   0.944   9.995  0.1195 -0.2803 -0.4260
   62CHL1   H4A 7000   0.177   0.943  10.055  0.9896  0.8286 -1.7503
   62CHL1   H4B 7001   0.022   0.855  10.025 -0.4340 -0.5116 -2.1449
   62CHL1    C5 7002   0.108   0.939   9.848 -0.1573  0.1238  0.1014
   62CHL1    C6 7003   0.068   0.838   9.766 -0.7223  0.3214  0.0866
   62CHL1    H6 7004   0.014   0.755   9.814  0.3993 -0.0293  0.7676
   62CHL1    C7 7005   0.084   0.825   9.619  0.6818 -0.1416 -0.4128
   62CHL1   H7A 7006   0.118   0.721   9.599 -0.6017 -0.0960 -3.0749
   62CHL1   H7B 7007  -0.010   0.821   9.562  0.9770 -1.4293 -0.8083
   62CHL1    C8 7008   0.179   0.928   9.564  1.2392  0.0855 -0.5882
   62CHL1    H8 7009   0.281   0.889   9.583  1.0452  0.9058  2.4061
   62CHL1   C14 7010   0.154   0.957   9.417 -0.4673 -0.4893 -0.4476
   62CHL1   H14 7011   0.062   1.018   9.399  0.9022  1.8160  0.0788
   62CHL1   C15 7012   0.132   0.835   9.325  0.4116 -0.1590 -0.3586
   62CHL1  H15A 7013   0.194   0.748   9.356  0.4253 -0.7145 -1.8979
   62CHL1  H15B 7014   0.030   0.792   9.331  1.0354 -1.3137  2.7004
   62CHL1   C16 7015   0.166   0.882   9.180  0.2165 -0.6003  0.5729
   62CHL1  H16A 7016   0.227   0.802   9.132 -0.1138 -1.9610  2.3397
   62CHL1  H16B 7017   0.071   0.896   9.123 -1.2832 -2.9144  2.3791
   62CHL1   C17 7018   0.236   1.024   9.200  0.3336 -0.0492  0.5582
   62CHL1   H17 7019   0.159   1.102   9.184 -0.5327 -0.9808  0.1644
   62CHL1   C13 7020   0.268   1.041   9.349 -0.6860  0.2521  0.1732
   62CHL1   C18 7021   0.411   0.982   9.377 -0.0246  0.2264 -0.1620
   62CHL1  H18A 7022   0.444   1.007   9.480 -2.9385  0.5325  0.7376
   62CHL1  H18B 7023   0.420   0.873   9.354  0.3296  0.9967 -4.0374
   62CHL1  H18C 7024   0.495   1.027   9.320 -0.8188 -0.7860 -2.1865
   62CHL1   C12 7025   0.246   1.178   9.414  0.0373  0.1588  0.0082
   62CHL1  H12A 7026   0.322   1.248   9.373  0.5636  0.8594  2.1423
   62CHL1  H12B 7027   0.144   1.209   9.383 -0.8636 -4.4271 -2.1405
   62CHL1   C11 7028   0.241   1.173   9.567 -0.0709 -0.1407  0.4008
   62CHL1  H11A 7029   0.348   1.159   9.593  0.4692 -0.7342 -2.0679
   62CHL1  H11B 7030   0.206   1.270   9.611 -1.4693 -0.0991 -0.7719
   62CHL1    C9 7031   0.154   1.065   9.635 -0.1988  0.6895 -0.0900
   62CHL1    H9 7032   0.048   1.090   9.615 -0.8952 -2.1611 -0.0833
   62CHL1   C10 7033   0.177   1.057   9.788  0.0621 -0.1693 -0.0982
   62CHL1   C19 7034   0.327   1.038   9.827 -0.5168 -0.5623 -0.5556
   62CHL1  H19A 7035   0.355   1.045   9.934 -1.0018  2.0056 -0.5652
   62CHL1  H19B 7036   0.369   0.948   9.777 -0.6299 -1.6335  1.2457
   62CHL1  H19C 7037   0.381   1.122   9.778 -1.6495  0.7074  0.3100
   62CHL1    C1 7038   0.112   1.185   9.850 -0.5841 -0.9722  0.7406
   62CHL1   H1A 7039   0.177   1.266   9.809 -0.1378 -1.3267  0.7431
   62CHL1   H1B 7040   0.014   1.200   9.800  0.3484  0.7839 -0.6098
   62CHL1    C2 7041   0.099   1.190  10.004  0.5240  0.6395  0.0317
   62CHL1   H2A 7042   0.058   1.289  10.032 -0.4592  0.3515 -0.3673
   62CHL1   H2B 7043   0.201   1.188  10.048  1.3129 -1.9307 -1.7658
   62CHL1   C20 7044   0.339   1.065   9.094  0.4069  0.3359  0.1241
   62CHL1   H20 7045   0.424   0.996   9.111  0.7385  0.5271 -0.7505
   62CHL1   C21 7046   0.414   1.204   9.118 -0.1761  0.1619  0.2250
   62CHL1  H21A 7047   0.471   1.232   9.027 -2.2409 -1.0788 -1.5060
   62CHL1  H21B 7048   0.485   1.192   9.202  0.8541  0.1835 -0.6389
   62CHL1  H21C 7049   0.338   1.283   9.139 -0.2726 -0.3067  1.6666
   62CHL1   C22 7050   0.286   1.055   8.943  0.3635  0.7550 -0.3207
   62CHL1  H22A 7051   0.220   0.966   8.936  1.7770 -0.2858 -0.5972
   62CHL1  H22B 7052   0.224   1.143   8.921 -0.6124 -0.1712 -1.3167
   62CHL1   C23 7053   0.399   1.041   8.840 -0.5764  0.5364 -1.0944
   62CHL1  H23A 7054   0.474   1.114   8.877 -2.1863  2.4316 -1.5160
   62CHL1  H23B 7055   0.430   0.935   8.827  0.6490  0.9833 -1.8590
   62CHL1   C24 7056   0.353   1.096   8.705 -0.0405  0.9208 -0.0381
   62CHL1  H24A 7057   0.259   1.042   8.680 -0.3172  1.8918 -1.1550
   62CHL1  H24B 7058   0.340   1.206   8.707  1.8253  1.1427  0.7693
   62CHL1   C25 7059   0.450   1.062   8.575 -0.0633  0.2644 -0.3542
   62CHL1   H25 7060   0.554   1.092   8.599  0.1606 -1.2089  0.5968
   62CHL1   C26 7061   0.444   0.916   8.559  0.5590 -0.2170 -0.5032
   62CHL1  H26A 7062   0.500   0.894   8.465  1.1316  3.2526 -1.0324
   62CHL1  H26B 7063   0.501   0.862   8.637  1.2630 -0.0470 -0.8992
   62CHL1  H26C 7064   0.342   0.873   8.550 -0.4773  1.9624  0.5856
   62CHL1   C27 7065   0.404   1.138   8.452  0.4005  0.4292  0.1767
   62CHL1  H27A 7066   0.419   1.247   8.470 -1.7519  1.0055 -1.2711
   62CHL1  H27B 7067   0.464   1.108   8.364 -0.2458 -2.5775  0.6940
   62CHL1  H27C 7068   0.295   1.135   8.427  0.5713 -2.1110 -0.3565
   63CHL1    C3 7069   1.590   2.535  10.353 -0.7336 -0.1059 -0.5016
   63CHL1    H3 7070   1.513   2.614  10.370  0.1730  0.4109  1.3094
   63CHL1    O3 7071   1.600   2.463  10.475 -0.1099  0.0510 -0.3032
   63CHL1   H3' 7072   1.518   2.413  10.472 -0.1341  0.1251 -0.8632
   63CHL1    C4 7073   1.546   2.430  10.253  0.0310 -0.0834  0.1038
   63CHL1   H4A 7074   1.611   2.340  10.254  1.9911  1.2820 -1.0334
   63CHL1   H4B 7075   1.445   2.401  10.290 -1.7001  0.7020 -3.7352
   63CHL1    C5 7076   1.540   2.499  10.121 -0.0726  0.3999  0.2906
   63CHL1    C6 7077   1.425   2.502  10.052  0.5805 -0.5944 -0.4433
   63CHL1    H6 7078   1.338   2.458  10.104  1.0511 -1.3798 -0.3040
   63CHL1    C7 7079   1.411   2.549   9.910 -0.2729 -0.0153 -0.2276
   63CHL1   H7A 7080   1.344   2.474   9.863 -1.2174  0.3483  0.5194
   63CHL1   H7B 7081   1.372   2.653   9.898  0.5263  0.5339  1.6633
   63CHL1    C8 7082   1.552   2.551   9.849 -0.4908 -0.4199 -0.6699
   63CHL1    H8 7083   1.579   2.444   9.848 -1.4903 -0.6729 -1.8387
   63CHL1   C14 7084   1.548   2.617   9.708 -1.4368  0.3546  0.3598
   63CHL1   H14 7085   1.509   2.719   9.724 -4.1431 -0.3305 -1.4646
   63CHL1   C15 7086   1.453   2.560   9.605 -0.0716 -0.9711  0.2634
   63CHL1  H15A 7087   1.474   2.454   9.581  0.8194 -0.3470 -1.7521
   63CHL1  H15B 7088   1.346   2.580   9.631  0.3353  0.2956  0.9918
   63CHL1   C16 7089   1.497   2.636   9.475 -0.4996  0.2348  0.4671
   63CHL1  H16A 7090   1.515   2.557   9.399 -1.6054  1.0221 -0.6304
   63CHL1  H16B 7091   1.435   2.720   9.438 -1.0934 -0.8029 -0.9377
   63CHL1   C17 7092   1.637   2.703   9.502 -0.2704 -0.0965 -0.3605
   63CHL1   H17 7093   1.611   2.808   9.524 -0.7317  0.2193 -2.3563
   63CHL1   C13 7094   1.678   2.638   9.641 -0.7423 -0.8633 -0.1262
   63CHL1   C18 7095   1.749   2.500   9.630  0.5677 -0.4461 -0.3694
   63CHL1  H18A 7096   1.699   2.449   9.545 -0.4227 -0.4299  0.2040
   63CHL1  H18B 7097   1.852   2.523   9.593  1.4900 -3.2670  0.2844
   63CHL1  H18C 7098   1.749   2.444   9.726  0.7498  2.1115  1.1599
   63CHL1   C12 7099   1.762   2.728   9.736 -0.9660  0.3641  0.5168
   63CHL1  H12A 7100   1.862   2.750   9.693 -0.9498 -1.4870 -0.4490
   63CHL1  H12B 7101   1.712   2.828   9.740  0.0483  0.8145  2.0028
   63CHL1   C11 7102   1.779   2.673   9.877 -0.2549 -0.2475  0.1051
   63CHL1  H11A 7103   1.857   2.594   9.869 -1.5557 -1.6884  1.3179
   63CHL1  H11B 7104   1.824   2.750   9.944 -0.8869 -0.9828  1.4067
   63CHL1    C9 7105   1.651   2.629   9.939  0.3040  0.1226 -0.0802
   63CHL1    H9 7106   1.602   2.727   9.958 -0.9263 -0.7116  1.1372
   63CHL1   C10 7107   1.676   2.554  10.071 -0.0983  0.6917 -0.3476
   63CHL1   C19 7108   1.770   2.438  10.041  0.0848  0.7224  0.1462
   63CHL1  H19A 7109   1.756   2.400   9.938 -0.8219  0.2580  0.4353
   63CHL1  H19B 7110   1.876   2.466  10.057  0.1168  1.4069 -1.2390
   63CHL1  H19C 7111   1.745   2.353  10.108 -0.0645  1.2648  0.7927
   63CHL1    C1 7112   1.731   2.653  10.179 -0.2861 -0.3145 -0.2709
   63CHL1   H1A 7113   1.826   2.694  10.140 -0.5300 -2.0551 -2.8071
   63CHL1   H1B 7114   1.658   2.735  10.193 -1.6410 -1.5574  0.0944
   63CHL1    C2 7115   1.733   2.591  10.318 -0.0698 -0.5052  0.2778
   63CHL1   H2A 7116   1.763   2.676  10.384 -0.9218  1.3140 -1.6119
   63CHL1   H2B 7117   1.799   2.502  10.322  1.0017  0.3234  1.5866
   63CHL1   C20 7118   1.726   2.702   9.381  0.1402  0.0398  0.0504
   63CHL1   H20 7119   1.745   2.596   9.353  1.5459 -0.3967  2.4410
   63CHL1   C21 7120   1.859   2.770   9.413  0.6475  0.0840 -0.0441
   63CHL1  H21A 7121   1.924   2.711   9.481  0.3385  0.3402  0.4781
   63CHL1  H21B 7122   1.844   2.870   9.460  1.2631  0.6066 -0.9463
   63CHL1  H21C 7123   1.919   2.793   9.323  0.4213  4.0678  0.7430
   63CHL1   C22 7124   1.659   2.764   9.257  0.5944 -0.2848 -0.0471
   63CHL1  H22A 7125   1.585   2.835   9.299  1.0385  0.2200 -0.1111
   63CHL1  H22B 7126   1.726   2.823   9.192 -0.3254  0.5339 -0.2592
   63CHL1   C23 7127   1.600   2.664   9.152  0.1168 -0.1380  0.2089
   63CHL1  H23A 7128   1.673   2.586   9.125  2.3627  1.3679  1.7589
   63CHL1  H23B 7129   1.512   2.610   9.193 -0.8856  1.2408 -0.0553
   63CHL1   C24 7130   1.550   2.738   9.027  0.5309  0.5755  0.1151
   63CHL1  H24A 7131   1.460   2.798   9.053 -0.2081 -1.2675  1.9682
   63CHL1  H24B 7132   1.634   2.803   8.995  2.0950 -0.8672  1.1914
   63CHL1   C25 7133   1.510   2.652   8.906 -0.5462  0.2348  0.4762
   63CHL1   H25 7134   1.441   2.570   8.938 -0.4563  0.1641  0.4905
   63CHL1   C26 7135   1.435   2.737   8.809 -0.0627  0.0542 -0.7216
   63CHL1  H26A 7136   1.393   2.665   8.735  1.2668 -2.2123  0.6864
   63CHL1  H26B 7137   1.353   2.782   8.870 -1.0392 -3.0315  0.3728
   63CHL1  H26C 7138   1.484   2.822   8.758 -2.0753  1.3411 -0.5909
   63CHL1   C27 7139   1.634   2.583   8.855  0.0228 -0.5643  0.7551
   63CHL1  H27A 7140   1.701   2.667   8.827  0.4868 -1.1796 -0.0157
   63CHL1  H27B 7141   1.685   2.522   8.933 -0.5798  0.1241  1.6907
   63CHL1  H27C 7142   1.625   2.519   8.764  1.5600 -1.1296  0.9875
   64CHL1    C3 7143   0.526   1.994  10.017 -0.5491 -0.3186 -1.2679
   64CHL1    H3 7144   0.472   1.915   9.960 -2.5495  0.4318 -0.4783
   64CHL1    O3 7145   0.516   1.951  10.155 -0.5878  0.7658  0.3421
   64CHL1   H3' 7146   0.584   2.009  10.191 -1.5319  0.4782  2.6325
   64CHL1    C4 7147   0.675   1.987   9.981  0.9078 -0.5574  0.4393
   64CHL1   H4A 7148   0.745   2.048  10.043  0.2248  0.2948  0.3766
   64CHL1   H4B 7149   0.710   1.883  10.003  0.7973 -0.5953  0.4368
   64CHL1    C5 7150   0.684   2.020   9.831 -0.1498 -0.7518 -0.5676
   64CHL1    C6 7151   0.726   1.917   9.755 -0.7046 -0.1447 -0.2272
   64CHL1    H6 7152   0.752   1.825   9.809 -0.9738  0.7486  1.4868
   64CHL1    C7 7153   0.736   1.922   9.603  0.0152 -0.4544 -0.1205
   64CHL1   H7A 7154   0.830   1.879   9.562  0.2463 -1.1098  1.0579
   64CHL1   H7B 7155   0.650   1.863   9.565  1.4152 -1.7803 -1.2740
   64CHL1    C8 7156   0.710   2.068   9.553 -0.7104 -0.1007  0.4283
   64CHL1    H8 7157   0.805   2.125   9.562 -0.3848 -0.5214 -0.3196
   64CHL1   C14 7158   0.666   2.062   9.412  0.5047  0.7752  0.5796
   64CHL1   H14 7159   0.567   2.011   9.417 -0.6322  2.7143 -1.5346
   64CHL1   C15 7160   0.752   1.976   9.322  0.1797 -0.0705 -0.1699
   64CHL1  H15A 7161   0.857   2.015   9.325  0.0739  0.2388 -0.3988
   64CHL1  H15B 7162   0.747   1.867   9.337 -1.0727 -0.3510 -2.4293
   64CHL1   C16 7163   0.700   2.015   9.176 -0.1484  0.2038 -0.3345
   64CHL1  H16A 7164   0.784   2.051   9.112  0.9229 -2.5533 -0.5441
   64CHL1  H16B 7165   0.650   1.930   9.124  0.1246  0.1247 -0.4667
   64CHL1   C17 7166   0.612   2.135   9.198 -0.7049 -0.0540  1.0002
   64CHL1   H17 7167   0.506   2.101   9.204 -1.5024  2.3968  1.4450
   64CHL1   C13 7168   0.643   2.194   9.338  0.2602 -0.3598 -0.1766
   64CHL1   C18 7169   0.771   2.281   9.334  0.3058  0.5034  0.5140
   64CHL1  H18A 7170   0.827   2.284   9.430 -1.1231  0.1162  1.3809
   64CHL1  H18B 7171   0.849   2.242   9.266 -1.6649  1.3893 -2.3832
   64CHL1  H18C 7172   0.750   2.380   9.289 -1.6939  0.4414  1.2651
   64CHL1   C12 7173   0.532   2.262   9.415  0.5381 -0.3504  0.5635
   64CHL1  H12A 7174   0.522   2.362   9.369  0.9200 -0.1852  0.8330
   64CHL1  H12B 7175   0.438   2.205   9.404 -0.0181  0.8407 -0.9020
   64CHL1   C11 7176   0.565   2.274   9.561 -0.0338  0.2816 -0.8388
   64CHL1  H11A 7177   0.646   2.348   9.580  0.0254 -0.1996  0.8915
   64CHL1  H11B 7178   0.481   2.314   9.623 -0.3855 -0.3719 -0.8843
   64CHL1    C9 7179   0.598   2.139   9.626 -0.2464 -0.0779  0.1476
   64CHL1    H9 7180   0.511   2.072   9.607 -1.3388  2.1876 -3.2494
   64CHL1   C10 7181   0.620   2.146   9.775 -0.0257 -0.2764 -0.0720
   64CHL1   C19 7182   0.723   2.255   9.809  0.0141  0.6302  0.1461
   64CHL1  H19A 7183   0.670   2.352   9.812 -0.8726  0.1403  0.4993
   64CHL1  H19B 7184   0.765   2.242   9.911 -0.2522 -0.3707  0.1319
   64CHL1  H19C 7185   0.814   2.262   9.746  1.2673  2.5610  2.1019
   64CHL1    C1 7186   0.477   2.162   9.843 -0.2010  0.5528 -0.5792
   64CHL1   H1A 7187   0.418   2.251   9.812 -1.0309 -0.1712 -1.1120
   64CHL1   H1B 7188   0.414   2.083   9.796  0.2202 -1.2959  1.8338
   64CHL1    C2 7189   0.470   2.134   9.999 -0.4265  0.2753  0.2949
   64CHL1   H2A 7190   0.368   2.147  10.040  0.4659  2.1450  2.0480
   64CHL1   H2B 7191   0.534   2.205  10.055  0.5113  1.2473 -1.9494
   64CHL1   C20 7192   0.615   2.231   9.083 -0.1302  0.6171 -0.2693
   64CHL1   H20 7193   0.715   2.273   9.059  1.1753 -0.9662  2.1293
   64CHL1   C21 7194   0.530   2.351   9.102 -0.1841 -0.8498 -0.8903
   64CHL1  H21A 7195   0.574   2.427   9.170 -1.1166  0.0139 -1.2491
   64CHL1  H21B 7196   0.433   2.322   9.145  0.1375  2.6262  2.4350
   64CHL1  H21C 7197   0.495   2.398   9.008 -4.0390  1.8189  1.7360
   64CHL1   C22 7198   0.567   2.163   8.951 -0.4239  0.3382  0.1292
   64CHL1  H22A 7199   0.621   2.070   8.924  0.1199  0.8586 -0.6125
   64CHL1  H22B 7200   0.460   2.134   8.963 -0.1009 -0.4627  1.0675
   64CHL1   C23 7201   0.588   2.257   8.825  0.8857  0.0236 -0.6571
   64CHL1  H23A 7202   0.499   2.322   8.815  0.7518 -0.0317  0.1286
   64CHL1  H23B 7203   0.671   2.326   8.848 -0.7178  1.4330  1.0816
   64CHL1   C24 7204   0.606   2.182   8.697  0.1120 -0.0298  0.1220
   64CHL1  H24A 7205   0.686   2.105   8.710  0.5718  0.3232 -0.5951
   64CHL1  H24B 7206   0.514   2.131   8.662  0.2997  0.6292 -1.3376
   64CHL1   C25 7207   0.649   2.267   8.578 -0.1216  0.1640 -0.2452
   64CHL1   H25 7208   0.725   2.340   8.614 -1.0105  1.0627 -0.1914
   64CHL1   C26 7209   0.712   2.172   8.465  0.8762 -0.5488  0.7072
   64CHL1  H26A 7210   0.757   2.233   8.384  2.0490 -0.0681  1.7066
   64CHL1  H26B 7211   0.797   2.117   8.511  0.3825  0.0790  2.4028
   64CHL1  H26C 7212   0.633   2.100   8.431 -0.9029  0.6853  2.1137
   64CHL1   C27 7213   0.536   2.343   8.517  0.5879  0.4391 -0.1191
   64CHL1  H27A 7214   0.571   2.388   8.422 -0.7386  1.3578 -0.1907
   64CHL1  H27B 7215   0.462   2.267   8.483  1.4588 -1.6618  2.4820
   64CHL1  H27C 7216   0.485   2.408   8.592  0.0817 -0.6969  0.5433
   65CHL1    C3 7217   3.688   6.342  10.293 -0.3967 -0.7540  0.2484
   65CHL1    H3 7218   3.728   6.240  10.275 -1.7499 -1.3298  0.4538
   65CHL1    O3 7219   3.654   6.347  10.432 -0.0659 -0.0405 -0.4962
   65CHL1   H3' 7220   3.657   6.439  10.461  2.0577  0.7755 -3.0166
   65CHL1    C4 7221   3.789   6.453  10.262  0.0437 -0.3230  0.5161
   65CHL1   H4A 7222   3.752   6.555  10.289 -2.1289 -0.5862 -1.2770
   65CHL1   H4B 7223   3.886   6.445  10.315  0.5605 -0.4092 -0.4425
   65CHL1    C5 7224   3.813   6.436  10.119  0.8142  0.6531  0.3611
   65CHL1    C6 7225   3.935   6.407  10.079 -0.1255  0.6220 -0.0713
   65CHL1    H6 7226   4.017   6.379  10.147  0.6838  0.1838 -1.2092
   65CHL1    C7 7227   3.966   6.398   9.929  0.0786 -0.2157 -0.3534
   65CHL1   H7A 7228   4.071   6.434   9.925 -0.3535  0.9474 -1.2727
   65CHL1   H7B 7229   3.972   6.294   9.890 -0.6318  0.1164 -1.3647
   65CHL1    C8 7230   3.869   6.482   9.848 -0.2990 -0.6090  0.1655
   65CHL1    H8 7231   3.876   6.591   9.865 -1.1937 -0.6594  0.9340
   65CHL1   C14 7232   3.889   6.450   9.699 -0.0569 -0.0015  0.4274
   65CHL1   H14 7233   3.897   6.339   9.697  3.8909  0.2156 -1.9140
   65CHL1   C15 7234   4.026   6.494   9.642 -0.0362  0.0301 -0.7210
   65CHL1  H15A 7235   4.048   6.592   9.688  1.0323 -0.4341 -0.2386
   65CHL1  H15B 7236   4.094   6.407   9.656 -2.3252 -1.8214 -0.5620
   65CHL1   C16 7237   4.000   6.500   9.493  0.8192 -0.8129  0.0187
   65CHL1  H16A 7238   4.005   6.603   9.451 -0.9087 -0.5827  0.3422
   65CHL1  H16B 7239   4.081   6.464   9.426 -0.9034 -0.6896 -2.1867
   65CHL1   C17 7240   3.849   6.446   9.479  0.1201 -1.7090  0.4431
   65CHL1   H17 7241   3.851   6.336   9.495 -0.6054 -1.3725  3.0197
   65CHL1   C13 7242   3.778   6.498   9.600  0.2756  0.0394 -0.1927
   65CHL1   C18 7243   3.763   6.652   9.597  0.1216 -0.2522 -0.3040
   65CHL1  H18A 7244   3.857   6.699   9.562 -0.1355  0.3562 -0.1861
   65CHL1  H18B 7245   3.681   6.685   9.529  0.7407  3.3350  0.5731
   65CHL1  H18C 7246   3.755   6.704   9.695  1.1089 -0.0299 -0.3354
   65CHL1   C12 7247   3.646   6.417   9.633  0.7831 -0.5141 -0.2867
   65CHL1  H12A 7248   3.556   6.432   9.570  1.0245 -0.3743 -0.5989
   65CHL1  H12B 7249   3.669   6.308   9.627  0.6749 -0.5242 -0.5201
   65CHL1   C11 7250   3.610   6.455   9.779 -0.6018  0.0016 -0.1104
   65CHL1  H11A 7251   3.560   6.554   9.788 -1.2126 -0.4454  1.4785
   65CHL1  H11B 7252   3.537   6.378   9.811  0.5942 -1.4165 -0.7316
   65CHL1    C9 7253   3.730   6.429   9.881  0.5586 -0.0358  0.2098
   65CHL1    H9 7254   3.745   6.320   9.872  2.8892  0.2283  0.6759
   65CHL1   C10 7255   3.692   6.462  10.026 -0.6319 -1.2884 -0.4705
   65CHL1   C19 7256   3.648   6.606  10.045  0.8955 -1.0810  0.7767
   65CHL1  H19A 7257   3.565   6.631   9.976  1.2117 -0.3914  0.6452
   65CHL1  H19B 7258   3.620   6.627  10.151 -1.4536 -0.8751  0.1402
   65CHL1  H19C 7259   3.725   6.682  10.018 -0.0731  0.1587  1.4195
   65CHL1    C1 7260   3.576   6.365  10.064  0.2621 -0.2647  0.6972
   65CHL1   H1A 7261   3.474   6.394  10.031  0.5007 -0.8191 -0.5396
   65CHL1   H1B 7262   3.592   6.262  10.026 -1.3754 -1.0864  2.1475
   65CHL1    C2 7263   3.559   6.363  10.214 -0.0230 -0.6516 -0.1321
   65CHL1   H2A 7264   3.479   6.292  10.245 -3.4582  2.6337 -1.0988
   65CHL1   H2B 7265   3.523   6.462  10.247  0.9642 -0.8054  1.4942
   65CHL1   C20 7266   3.785   6.465   9.344 -0.2550 -0.5664 -0.1679
   65CHL1   H20 7267   3.676   6.478   9.362 -0.4646 -1.4992 -0.7288
   65CHL1   C21 7268   3.806   6.334   9.267 -0.1834 -0.2840  1.4732
   65CHL1  H21A 7269   3.762   6.247   9.321 -2.2452 -0.1408  0.0993
   65CHL1  H21B 7270   3.913   6.310   9.249 -0.2180  1.2389 -0.9035
   65CHL1  H21C 7271   3.757   6.346   9.168  1.4107 -0.1984  0.6792
   65CHL1   C22 7272   3.821   6.593   9.264  0.1641  0.2463  0.2675
   65CHL1  H22A 7273   3.818   6.684   9.327  0.7237  0.1444  0.4451
   65CHL1  H22B 7274   3.921   6.574   9.219 -0.3995  3.6553 -2.6362
   65CHL1   C23 7275   3.719   6.612   9.149  0.6211  0.2231  0.2938
   65CHL1  H23A 7276   3.717   6.526   9.078  0.3593  0.8688 -0.4920
   65CHL1  H23B 7277   3.618   6.617   9.197  0.7874 -0.5292  0.7331
   65CHL1   C24 7278   3.759   6.733   9.072  0.1070 -0.0702  0.3654
   65CHL1  H24A 7279   3.758   6.814   9.149 -1.9184 -2.4104  2.8884
   65CHL1  H24B 7280   3.856   6.712   9.023 -0.1557 -0.3778 -0.0211
   65CHL1   C25 7281   3.670   6.775   8.951  0.1633 -0.3978 -0.4513
   65CHL1   H25 7282   3.564   6.786   8.981 -0.0345 -1.5099 -0.7286
   65CHL1   C26 7283   3.720   6.916   8.907 -0.4712  0.3067  0.4097
   65CHL1  H26A 7284   3.736   6.975   9.000 -0.1978  0.5452  0.2114
   65CHL1  H26B 7285   3.821   6.912   8.862 -0.7203 -0.2702 -0.1041
   65CHL1  H26C 7286   3.640   6.959   8.844 -1.4478 -1.8206  0.1434
   65CHL1   C27 7287   3.661   6.663   8.838 -0.0750  0.0101  0.5166
   65CHL1  H27A 7288   3.608   6.700   8.747  1.4230  1.9482  0.3953
   65CHL1  H27B 7289   3.760   6.632   8.800 -0.1525  2.1439 -1.5937
   65CHL1  H27C 7290   3.601   6.574   8.868  0.8970 -0.4751  1.0085
   66CHL1    C3 7291   1.581   4.252  10.733  0.1961  0.1883 -0.7256
   66CHL1    H3 7292   1.582   4.360  10.706  0.9483  0.5298  0.6556
   66CHL1    O3 7293   1.553   4.250  10.870 -0.6967 -0.0620 -0.3106
   66CHL1   H3' 7294   1.601   4.324  10.909  2.2093 -1.1143 -1.7416
   66CHL1    C4 7295   1.475   4.173  10.663  0.2742  0.2060  0.0254
   66CHL1   H4A 7296   1.482   4.075  10.715 -1.2162  0.1281  0.0893
   66CHL1   H4B 7297   1.368   4.193  10.683  0.1517 -0.7190  0.2983
   66CHL1    C5 7298   1.500   4.159  10.510  0.6377 -0.7615  0.0620
   66CHL1    C6 7299   1.414   4.198  10.419  0.7980  0.6025  0.1603
   66CHL1    H6 7300   1.317   4.241  10.449 -0.8689  0.1470 -4.1412
   66CHL1    C7 7301   1.432   4.181  10.268 -0.2600 -0.2792  0.2613
   66CHL1   H7A 7302   1.346   4.139  10.213  0.2467 -1.2207  0.1743
   66CHL1   H7B 7303   1.430   4.286  10.232 -0.0438  0.1066  1.3543
   66CHL1    C8 7304   1.560   4.114  10.229  0.3492  0.5057 -1.1274
   66CHL1    H8 7305   1.537   4.006  10.223 -1.6599  0.8849 -0.4303
   66CHL1   C14 7306   1.604   4.170  10.093  0.7684  0.2954  0.8920
   66CHL1   H14 7307   1.638   4.275  10.105  0.2029  0.4525  1.1227
   66CHL1   C15 7308   1.487   4.176   9.984  0.0663  0.3896  0.2469
   66CHL1  H15A 7309   1.419   4.089   9.997  0.4475  0.0986  0.2831
   66CHL1  H15B 7310   1.436   4.275   9.983 -1.5235 -0.4162 -2.1693
   66CHL1   C16 7311   1.566   4.174   9.849 -0.5601 -0.2841  0.0906
   66CHL1  H16A 7312   1.518   4.098   9.784 -0.9528  0.7362 -0.8316
   66CHL1  H16B 7313   1.552   4.275   9.804  1.6466  0.7441  1.5546
   66CHL1   C17 7314   1.718   4.158   9.891  0.6681 -0.1550 -0.2358
   66CHL1   H17 7315   1.758   4.260   9.910 -0.4886  0.3187 -0.3025
   66CHL1   C13 7316   1.710   4.081  10.030  0.0046 -0.8855  0.0249
   66CHL1   C18 7317   1.675   3.936  10.000 -0.1491 -0.3775 -0.1889
   66CHL1  H18A 7318   1.652   3.895  10.100  1.1033  0.4589  0.4560
   66CHL1  H18B 7319   1.599   3.925   9.920  0.3002 -0.6026 -0.5864
   66CHL1  H18C 7320   1.766   3.886   9.960  1.8280  0.8979  2.5729
   66CHL1   C12 7321   1.832   4.090  10.125 -0.1534 -0.3616  0.1938
   66CHL1  H12A 7322   1.917   4.034  10.081  0.9041  1.6771 -0.4329
   66CHL1  H12B 7323   1.870   4.194  10.137  0.5484 -0.2538 -2.6071
   66CHL1   C11 7324   1.800   4.052  10.274  0.6463 -0.4624  0.4621
   66CHL1  H11A 7325   1.772   3.944  10.274  0.1802 -0.3471 -0.4489
   66CHL1  H11B 7326   1.882   4.075  10.344  0.9076  1.0317 -0.3122
   66CHL1    C9 7327   1.677   4.131  10.326  0.3609 -0.1414 -0.1032
   66CHL1    H9 7328   1.714   4.236  10.321  1.5234 -0.5698 -0.8950
   66CHL1   C10 7329   1.640   4.104  10.474 -0.6585 -0.1200  0.2422
   66CHL1   C19 7330   1.655   3.960  10.513  0.0138  0.6253  0.0874
   66CHL1  H19A 7331   1.633   3.943  10.621  0.7432 -0.1755  0.1196
   66CHL1  H19B 7332   1.582   3.904  10.452 -1.0290  0.9948  0.9859
   66CHL1  H19C 7333   1.754   3.910  10.503 -0.4293 -0.3372  0.4610
   66CHL1    C1 7334   1.752   4.179  10.561  0.0920 -0.5080  0.4942
   66CHL1   H1A 7335   1.847   4.124  10.545 -1.7135 -3.3477 -0.6617
   66CHL1   H1B 7336   1.759   4.278  10.510 -1.3896 -0.9879 -0.6401
   66CHL1    C2 7337   1.722   4.197  10.707  0.4093  0.4245 -0.2454
   66CHL1   H2A 7338   1.796   4.263  10.756 -0.3910  1.0462  0.1349
   66CHL1   H2B 7339   1.736   4.098  10.757 -0.9638 -1.4621 -3.3956
   66CHL1   C20 7340   1.803   4.111   9.774 -0.2458  0.0022 -0.2658
   66CHL1   H20 7341   1.763   4.010   9.754  0.2636 -0.3119  0.2907
   66CHL1   C21 7342   1.950   4.108   9.820  0.0114  0.0512  0.7495
   66CHL1  H21A 7343   1.994   4.195   9.872  4.2380 -1.5718  0.1141
   66CHL1  H21B 7344   2.022   4.104   9.736 -0.1951  0.3215  0.5589
   66CHL1  H21C 7345   1.962   4.016   9.882 -2.2881 -0.0113  1.1410
   66CHL1   C22 7346   1.787   4.200   9.650  0.0578  0.2099  0.4139
   66CHL1  H22A 7347   1.680   4.206   9.619  0.6356 -0.1233 -1.7160
   66CHL1  H22B 7348   1.813   4.303   9.682  2.2012 -0.4216  0.8015
   66CHL1   C23 7349   1.870   4.160   9.526 -0.1143 -0.4853 -0.1192
   66CHL1  H23A 7350   1.974   4.179   9.561  0.2964 -0.5329 -1.2607
   66CHL1  H23B 7351   1.844   4.056   9.496 -1.0454 -0.8361  1.8734
   66CHL1   C24 7352   1.832   4.244   9.405  0.4196 -0.9979 -0.2838
   66CHL1  H24A 7353   1.727   4.224   9.377  0.5193 -0.0428 -1.3885
   66CHL1  H24B 7354   1.839   4.350   9.436  0.5342 -0.0887 -3.2436
   66CHL1   C25 7355   1.939   4.209   9.292 -0.2886  0.7547 -0.2189
   66CHL1   H25 7356   2.037   4.197   9.342 -0.9910 -1.2577  0.7128
   66CHL1   C26 7357   1.927   4.068   9.221  0.4765 -0.7924  0.4971
   66CHL1  H26A 7358   1.986   4.073   9.128 -0.5087  1.5709 -0.0609
   66CHL1  H26B 7359   1.964   3.987   9.287  0.0493 -0.1280  1.5865
   66CHL1  H26C 7360   1.818   4.052   9.202 -0.1713  1.0825  2.3854
   66CHL1   C27 7361   1.963   4.320   9.191  0.9068  0.6849 -0.0194
   66CHL1  H27A 7362   1.979   4.421   9.235 -0.9027  0.7748  0.4409
   66CHL1  H27B 7363   2.044   4.298   9.118 -0.5584  1.9264 -2.0844
   66CHL1  H27C 7364   1.868   4.337   9.136  0.9605  0.9244 -0.0428
   67CHL1    C3 7365   5.333   4.758  10.502  0.2401  0.0082 -0.2076
   67CHL1    H3 7366   5.397   4.847  10.489  0.6702 -0.0962  1.1021
   67CHL1    O3 7367   5.306   4.733  10.638  0.2138 -0.1058 -0.4070
   67CHL1   H3' 7368   5.257   4.651  10.642 -0.2716  0.2046  0.0949
   67CHL1    C4 7369   5.203   4.766  10.416 -0.4839  0.0291  0.9304
   67CHL1   H4A 7370   5.155   4.666  10.418  0.0270 -0.2225  0.9333
   67CHL1   H4B 7371   5.138   4.840  10.466 -1.9880  0.5948 -1.7528
   67CHL1    C5 7372   5.236   4.798  10.270 -0.3233  0.0930  0.1748
   67CHL1    C6 7373   5.173   4.902  10.213 -0.4165 -0.4373  0.3227
   67CHL1    H6 7374   5.107   4.969  10.270  0.7524  1.4915 -0.5149
   67CHL1    C7 7375   5.196   4.946  10.072 -0.1158 -0.1538 -0.1797
   67CHL1   H7A 7376   5.107   4.983  10.018  0.1351  3.0165  1.4680
   67CHL1   H7B 7377   5.252   5.042  10.075  0.5704 -0.5633  0.1302
   67CHL1    C8 7378   5.270   4.837   9.991 -0.3051 -0.9964 -0.1924
   67CHL1    H8 7379   5.190   4.768   9.958 -1.4553  0.1884  0.0958
   67CHL1   C14 7380   5.331   4.900   9.863  0.0076 -0.6014  0.3796
   67CHL1   H14 7381   5.411   4.969   9.898  0.7157 -2.5532  2.7861
   67CHL1   C15 7382   5.243   4.980   9.772 -0.1095 -0.0739 -0.0775
   67CHL1  H15A 7383   5.140   4.939   9.764  0.2749 -1.9051  3.5069
   67CHL1  H15B 7384   5.243   5.088   9.800  2.2459 -0.1566  0.3674
   67CHL1   C16 7385   5.311   4.974   9.636  0.2247 -0.1706  0.3635
   67CHL1  H16A 7386   5.242   4.949   9.553  1.2679  1.0670 -0.9017
   67CHL1  H16B 7387   5.339   5.079   9.612 -2.1330  0.0811 -1.5042
   67CHL1   C17 7388   5.440   4.897   9.651 -0.4887 -0.1664 -0.1484
   67CHL1   H17 7389   5.510   4.972   9.693 -0.1981  0.7397 -2.2046
   67CHL1   C13 7390   5.404   4.800   9.767  0.2874 -0.2958 -0.6129
   67CHL1   C18 7391   5.309   4.694   9.709 -0.5943 -0.5502 -0.9064
   67CHL1  H18A 7392   5.268   4.629   9.789 -0.1442  1.4837  1.0207
   67CHL1  H18B 7393   5.228   4.736   9.645  1.5824  1.3401 -2.4559
   67CHL1  H18C 7394   5.369   4.634   9.638 -0.7635  0.2288 -1.7128
   67CHL1   C12 7395   5.514   4.737   9.854  0.5779  0.2361  0.3055
   67CHL1  H12A 7396   5.574   4.659   9.802  0.0546 -0.3082  0.5127
   67CHL1  H12B 7397   5.574   4.822   9.892 -1.1905  1.2942  0.8007
   67CHL1   C11 7398   5.471   4.673   9.989  0.1836  0.0859 -0.5067
   67CHL1  H11A 7399   5.415   4.580   9.965  0.2706 -0.4082  1.1519
   67CHL1  H11B 7400   5.563   4.644  10.043  2.0356  0.0304 -3.5897
   67CHL1    C9 7401   5.380   4.772  10.077  0.6094  0.0420  1.0986
   67CHL1    H9 7402   5.445   4.859  10.101 -0.5845  0.7021  1.9438
   67CHL1   C10 7403   5.328   4.700  10.200  0.4955 -0.1648  0.0422
   67CHL1   C19 7404   5.235   4.575  10.162  0.3938  0.0500 -0.1775
   67CHL1  H19A 7405   5.189   4.531  10.253  1.1209 -2.0568 -0.8072
   67CHL1  H19B 7406   5.154   4.592  10.089 -0.3746 -1.8675  0.2149
   67CHL1  H19C 7407   5.304   4.498  10.121 -0.4207 -0.8924  0.2249
   67CHL1    C1 7408   5.446   4.662  10.292  0.5845 -0.6784  0.3422
   67CHL1   H1A 7409   5.498   4.574  10.249 -2.3108 -2.4752  0.3882
   67CHL1   H1B 7410   5.510   4.753  10.291 -0.6616  0.2508 -2.5423
   67CHL1    C2 7411   5.412   4.641  10.441  0.1748 -0.2932 -0.4170
   67CHL1   H2A 7412   5.511   4.630  10.491 -0.9829 -2.6503  1.5098
   67CHL1   H2B 7413   5.356   4.546  10.455 -0.6189  0.4218  1.4633
   67CHL1   C20 7414   5.503   4.840   9.523  0.1912  0.6421 -1.0195
   67CHL1   H20 7415   5.438   4.759   9.484  2.3992 -1.4124 -0.4967
   67CHL1   C21 7416   5.646   4.777   9.556  0.2706  0.3622  0.1829
   67CHL1  H21A 7417   5.702   4.761   9.462 -0.3383  0.1795 -0.1485
   67CHL1  H21B 7418   5.633   4.676   9.600  0.5596  0.3756  0.2982
   67CHL1  H21C 7419   5.707   4.842   9.623 -1.2881  3.0243 -0.8667
   67CHL1   C22 7420   5.508   4.945   9.408  0.1114 -0.4471 -0.1781
   67CHL1  H22A 7421   5.426   5.019   9.414  0.7695  0.1942  0.9672
   67CHL1  H22B 7422   5.602   5.004   9.400 -0.1976 -0.3564 -4.8961
   67CHL1   C23 7423   5.488   4.878   9.271 -0.8998  0.1048 -0.1024
   67CHL1  H23A 7424   5.542   4.781   9.265  0.8173  1.0423 -0.2124
   67CHL1  H23B 7425   5.379   4.858   9.263 -0.8203 -0.1821 -0.4786
   67CHL1   C24 7426   5.539   4.970   9.160  0.1540 -0.0981 -0.4033
   67CHL1  H24A 7427   5.481   5.065   9.163 -0.5815 -0.4714 -2.0418
   67CHL1  H24B 7428   5.646   4.997   9.174  0.2942  0.1073 -1.8317
   67CHL1   C25 7429   5.540   4.913   9.016  1.2128 -0.5009  0.9812
   67CHL1   H25 7430   5.577   4.808   9.017  0.6314 -0.7094  0.4504
   67CHL1   C26 7431   5.402   4.916   8.941 -0.4719  0.3625  0.3819
   67CHL1  H26A 7432   5.322   4.889   9.014 -1.0520  0.0163 -0.3723
   67CHL1  H26B 7433   5.384   5.019   8.903 -0.9114  0.7444  1.6055
   67CHL1  H26C 7434   5.403   4.853   8.850  1.6164 -0.3522  0.8844
   67CHL1   C27 7435   5.649   4.975   8.919 -0.3134  0.0297  0.2458
   67CHL1  H27A 7436   5.636   4.918   8.825 -2.1404 -1.5470  1.4069
   67CHL1  H27B 7437   5.634   5.085   8.908  0.5151  0.0368 -0.8919
   67CHL1  H27C 7438   5.744   4.955   8.973  0.3970 -0.5926 -1.2235
   68CHL1    C3 7439   4.135   6.103  10.392  0.0296  0.3578 -0.2273
   68CHL1    H3 7440   4.096   6.203  10.365 -0.3797  0.6555  1.4256
   68CHL1    O3 7441   4.162   6.098  10.537  0.0815  0.3333 -0.1883
   68CHL1   H3' 7442   4.222   6.172  10.553 -0.8571  0.7354  1.4558
   68CHL1    C4 7443   4.037   5.990  10.355 -0.1280  0.1893  0.7552
   68CHL1   H4A 7444   4.061   5.894  10.404 -1.8855 -0.6930 -0.0835
   68CHL1   H4B 7445   3.941   6.018  10.403  0.0906  0.6775  0.9096
   68CHL1    C5 7446   4.017   5.974  10.202  0.0075  0.7402  0.3307
   68CHL1    C6 7447   3.889   5.990  10.145  0.0052  0.4434  0.9614
   68CHL1    H6 7448   3.800   5.998  10.209 -2.3094 -0.6270 -1.9860
   68CHL1    C7 7449   3.866   5.974   9.997  0.1690  0.5430 -0.1392
   68CHL1   H7A 7450   3.787   5.898   9.980 -0.4850  1.0908  0.4079
   68CHL1   H7B 7451   3.833   6.068   9.948 -0.2816  1.9108  2.7102
   68CHL1    C8 7452   3.983   5.925   9.905  0.1561  0.4510 -0.3764
   68CHL1    H8 7453   3.992   5.814   9.906  0.2520  0.4366  3.1666
   68CHL1   C14 7454   3.971   5.970   9.765 -0.6772  0.1768  0.3789
   68CHL1   H14 7455   3.957   6.080   9.767  0.0306  0.2842 -0.4947
   68CHL1   C15 7456   3.849   5.925   9.687  0.9490  0.0304  0.1881
   68CHL1  H15A 7457   3.831   5.816   9.701  0.7735  0.0389  0.0288
   68CHL1  H15B 7458   3.755   5.975   9.718  1.1413 -0.7330  2.0455
   68CHL1   C16 7459   3.889   5.956   9.543  0.2116 -1.0415  0.7650
   68CHL1  H16A 7460   3.871   5.874   9.470 -1.8011  1.2733 -1.4299
   68CHL1  H16B 7461   3.837   6.047   9.506 -1.1843 -2.4083 -0.7044
   68CHL1   C17 7462   4.048   5.987   9.546  0.8246  0.6171  0.8344
   68CHL1   H17 7463   4.052   6.098   9.542 -1.8069  0.6927 -1.4062
   68CHL1   C13 7464   4.092   5.935   9.677  1.3891 -0.7556 -0.1631
   68CHL1   C18 7465   4.110   5.786   9.660  0.3878  0.4062 -0.4136
   68CHL1  H18A 7466   4.021   5.736   9.617 -0.3544 -0.0202  1.5392
   68CHL1  H18B 7467   4.197   5.758   9.597 -0.2933 -1.6923 -0.4854
   68CHL1  H18C 7468   4.118   5.737   9.760  0.4250 -1.8838 -1.4900
   68CHL1   C12 7469   4.219   6.008   9.733 -0.5378  0.3546  0.9254
   68CHL1  H12A 7470   4.317   5.992   9.682  0.3757  1.5460  2.2461
   68CHL1  H12B 7471   4.192   6.116   9.739 -1.4792  0.1405  0.5314
   68CHL1   C11 7472   4.240   5.959   9.872  0.9654  0.2855  0.3901
   68CHL1  H11A 7473   4.268   5.851   9.878  0.9563  0.2933  0.5927
   68CHL1  H11B 7474   4.331   6.010   9.912  0.9077 -0.5685  1.6618
   68CHL1    C9 7475   4.113   5.990   9.964  0.7236  0.4696  0.1899
   68CHL1    H9 7476   4.081   6.096   9.959  2.6560  1.0614 -0.4261
   68CHL1   C10 7477   4.138   5.960  10.113  0.1194  0.3142 -0.8874
   68CHL1   C19 7478   4.182   5.814  10.143  0.1328 -0.1254  0.2808
   68CHL1  H19A 7479   4.279   5.794  10.093 -0.2395 -0.0815 -0.4588
   68CHL1  H19B 7480   4.194   5.797  10.252  0.3436 -2.0135 -0.0071
   68CHL1  H19C 7481   4.105   5.740  10.112  1.0476 -0.7285 -0.5962
   68CHL1    C1 7482   4.246   6.066  10.167  0.6264  0.6509  0.1246
   68CHL1   H1A 7483   4.344   6.041  10.121 -0.7151  0.1744 -2.5140
   68CHL1   H1B 7484   4.207   6.163  10.130 -1.3788 -0.9860 -2.1863
   68CHL1    C2 7485   4.272   6.070  10.320 -0.0082 -0.1927  0.2836
   68CHL1   H2A 7486   4.359   6.134  10.345 -0.1454  1.3499 -2.9777
   68CHL1   H2B 7487   4.298   5.971  10.363  0.0608 -0.4654 -0.3706
   68CHL1   C20 7488   4.118   5.943   9.407  0.5585  0.1538 -0.1048
   68CHL1   H20 7489   4.113   5.836   9.380  4.9518 -0.4295  0.9768
   68CHL1   C21 7490   4.272   5.980   9.419  0.4386 -0.2427  0.3500
   68CHL1  H21A 7491   4.311   5.950   9.319  0.6452 -0.4924  0.5043
   68CHL1  H21B 7492   4.330   5.914   9.487 -0.1761 -1.5030 -0.3348
   68CHL1  H21C 7493   4.295   6.087   9.438 -1.9522  0.3563  0.0510
   68CHL1   C22 7494   4.065   6.029   9.293 -0.0503 -0.3273 -0.0841
   68CHL1  H22A 7495   3.955   6.046   9.296 -0.1854 -1.3672  1.4369
   68CHL1  H22B 7496   4.118   6.126   9.285 -2.2079  0.9476  0.6921
   68CHL1   C23 7497   4.083   5.958   9.155  0.7289 -0.8852  0.5791
   68CHL1  H23A 7498   4.192   5.962   9.133  0.6135 -0.7960  0.0299
   68CHL1  H23B 7499   4.045   5.854   9.160  0.3226 -0.7155  1.0685
   68CHL1   C24 7500   4.016   6.039   9.042  0.5151  0.3723  0.0143
   68CHL1  H24A 7501   4.002   6.148   9.061 -3.8569  0.1955 -1.5511
   68CHL1  H24B 7502   4.073   6.016   8.949  0.4476 -1.7923  0.4817
   68CHL1   C25 7503   3.888   5.970   8.991  0.3645 -0.2249 -0.3043
   68CHL1   H25 7504   3.902   5.863   9.019  2.0093  0.3809  1.2833
   68CHL1   C26 7505   3.768   6.026   9.067  0.2903 -0.4260 -1.0224
   68CHL1  H26A 7506   3.782   6.040   9.176  1.7372 -1.1001 -1.1239
   68CHL1  H26B 7507   3.751   6.130   9.031 -0.8000 -0.3580 -0.3200
   68CHL1  H26C 7508   3.670   5.973   9.060 -1.0855  1.8702  0.0931
   68CHL1   C27 7509   3.865   5.995   8.843  0.2255  0.3313  0.0749
   68CHL1  H27A 7510   3.770   5.950   8.806 -0.5688 -0.0383  2.4755
   68CHL1  H27B 7511   3.868   6.106   8.838 -1.3458  0.4283  0.8237
   68CHL1  H27C 7512   3.951   5.964   8.780 -0.2591  2.7495 -1.8551
   69CHL1    C3 7513   2.517   3.939   6.740  0.2015 -0.2381 -0.5942
   69CHL1    H3 7514   2.611   3.889   6.772  0.1217 -1.7632 -2.6010
   69CHL1    O3 7515   2.493   3.914   6.610 -0.5019 -0.3885  0.1846
   69CHL1   H3' 7516   2.428   3.984   6.595 -0.5720 -0.0304  2.0826
   69CHL1    C4 7517   2.407   3.881   6.828  0.4725  0.6425  0.7773
   69CHL1   H4A 7518   2.319   3.926   6.776 -0.2446 -0.3160  1.1440
   69CHL1   H4B 7519   2.402   3.773   6.805  0.7101  0.2546  2.5317
   69CHL1    C5 7520   2.411   3.909   6.972  0.3923 -0.3598  0.5134
   69CHL1    C6 7521   2.426   3.808   7.063 -0.4905  0.1316 -0.4593
   69CHL1    H6 7522   2.442   3.703   7.033 -0.9735 -0.5661  1.6154
   69CHL1    C7 7523   2.440   3.834   7.216  0.3421 -0.1138 -0.0325
   69CHL1   H7A 7524   2.373   3.761   7.267  0.0101 -0.2717 -0.6871
   69CHL1   H7B 7525   2.543   3.822   7.253  0.0822 -0.3451  0.6239
   69CHL1    C8 7526   2.383   3.979   7.247  0.0350  0.1335  0.2203
   69CHL1    H8 7527   2.274   3.977   7.227 -0.0121 -0.0173  0.5053
   69CHL1   C14 7528   2.407   4.008   7.391  0.2208 -0.3009 -1.1470
   69CHL1   H14 7529   2.517   4.006   7.409 -0.0736  2.5725  1.2680
   69CHL1   C15 7530   2.336   3.916   7.499 -0.5723  0.3309  0.0202
   69CHL1  H15A 7531   2.235   3.881   7.466  0.0786  0.3568 -2.1072
   69CHL1  H15B 7532   2.394   3.821   7.506 -1.8948 -0.3873  1.5157
   69CHL1   C16 7533   2.343   4.004   7.623  0.7556  0.3713  0.5967
   69CHL1  H16A 7534   2.249   4.009   7.682 -0.4194 -0.8334 -1.1471
   69CHL1  H16B 7535   2.428   3.970   7.686  0.3775 -0.9896  0.3856
   69CHL1   C17 7536   2.393   4.144   7.579 -0.3116 -0.3688  1.0701
   69CHL1   H17 7537   2.504   4.144   7.583 -0.3608 -0.5517  2.5846
   69CHL1   C13 7538   2.369   4.153   7.429  0.9402  0.0833 -0.0290
   69CHL1   C18 7539   2.220   4.184   7.397 -0.4821  0.0025 -0.8183
   69CHL1  H18A 7540   2.149   4.120   7.453 -0.9498  0.8437 -0.4430
   69CHL1  H18B 7541   2.195   4.284   7.436  1.2374  1.1399 -2.4967
   69CHL1  H18C 7542   2.194   4.167   7.290 -0.4089 -1.7003 -0.5724
   69CHL1   C12 7543   2.468   4.240   7.351 -0.0564 -0.3510 -0.1988
   69CHL1  H12A 7544   2.437   4.346   7.366 -0.1871 -0.3891 -0.1974
   69CHL1  H12B 7545   2.575   4.224   7.378  0.3832 -0.1102 -1.7558
   69CHL1   C11 7546   2.464   4.228   7.199  0.9108  0.5219 -0.8785
   69CHL1  H11A 7547   2.368   4.272   7.166 -0.2868 -2.1075 -1.0417
   69CHL1  H11B 7548   2.551   4.286   7.161  1.6284 -0.3124 -0.5413
   69CHL1    C9 7549   2.452   4.078   7.151 -0.2999 -0.8416 -0.8360
   69CHL1    H9 7550   2.556   4.040   7.161  0.1898  0.0973 -2.2153
   69CHL1   C10 7551   2.405   4.061   7.001  0.1516 -0.2754  0.0280
   69CHL1   C19 7552   2.261   4.116   6.981 -0.0112 -0.1085  0.1125
   69CHL1  H19A 7553   2.252   4.227   6.986  0.2167  0.0016 -1.5423
   69CHL1  H19B 7554   2.216   4.093   6.882  0.7295 -0.2993 -0.1862
   69CHL1  H19C 7555   2.198   4.067   7.058  0.4036 -1.1193 -0.1898
   69CHL1    C1 7556   2.514   4.136   6.907 -0.1871  0.1923  0.4639
   69CHL1   H1A 7557   2.507   4.246   6.921  1.1841  0.3303  0.1765
   69CHL1   H1B 7558   2.617   4.105   6.933  0.0625  0.4778 -0.1579
   69CHL1    C2 7559   2.511   4.097   6.757  0.2454  0.0626 -0.2027
   69CHL1   H2A 7560   2.605   4.135   6.712  0.4522 -1.9814 -1.5787
   69CHL1   H2B 7561   2.429   4.145   6.699  0.1337 -1.2029 -1.1309
   69CHL1   C20 7562   2.338   4.259   7.666 -0.2862 -0.6962  0.3073
   69CHL1   H20 7563   2.228   4.269   7.658  0.0758  1.7834 -2.4945
   69CHL1   C21 7564   2.407   4.389   7.629  1.0424 -1.0268  0.9558
   69CHL1  H21A 7565   2.369   4.426   7.532 -1.0406  1.7634  2.7536
   69CHL1  H21B 7566   2.513   4.365   7.607  1.6500  2.4736 -0.2774
   69CHL1  H21C 7567   2.404   4.465   7.710 -0.6927 -1.0481  0.9279
   69CHL1   C22 7568   2.376   4.235   7.818  0.2048 -0.2110 -0.3495
   69CHL1  H22A 7569   2.419   4.140   7.857 -0.3951  0.4510  2.0375
   69CHL1  H22B 7570   2.453   4.311   7.844 -0.6872  0.5991 -0.0296
   69CHL1   C23 7571   2.257   4.274   7.905  0.2864  0.0045  0.2267
   69CHL1  H23A 7572   2.230   4.376   7.870  2.4791  0.2581 -0.7722
   69CHL1  H23B 7573   2.176   4.202   7.881  1.8907 -2.1624  1.1920
   69CHL1   C24 7574   2.300   4.273   8.053 -0.1718 -0.7539  0.4516
   69CHL1  H24A 7575   2.330   4.171   8.086 -0.5018 -0.4643  1.6753
   69CHL1  H24B 7576   2.391   4.337   8.053 -0.2071 -0.7033 -0.5259
   69CHL1   C25 7577   2.202   4.322   8.154  0.7617  1.0241 -0.5713
   69CHL1   H25 7578   2.149   4.415   8.126 -1.7205 -0.7035 -1.7569
   69CHL1   C26 7579   2.080   4.219   8.164 -0.1183 -0.5025 -0.0889
   69CHL1  H26A 7580   1.976   4.257   8.166  0.1044  0.0565  1.7102
   69CHL1  H26B 7581   2.073   4.159   8.071  0.5315  1.6994 -1.5913
   69CHL1  H26C 7582   2.079   4.143   8.244 -2.4471 -1.4138 -0.9353
   69CHL1   C27 7583   2.266   4.321   8.294 -0.6606  0.3743 -0.0057
   69CHL1  H27A 7584   2.193   4.313   8.377  0.0186 -2.9962  0.3691
   69CHL1  H27B 7585   2.332   4.231   8.304 -0.6248  0.3998 -0.0126
   69CHL1  H27C 7586   2.332   4.410   8.296 -0.9104  0.5430  0.8155
   70CHL1    C3 7587   2.430   0.753   7.242 -0.2616  0.6340  0.3744
   70CHL1    H3 7588   2.349   0.677   7.249  1.0154 -0.6800  1.2804
   70CHL1    O3 7589   2.447   0.783   7.104 -0.4564  0.1114 -0.0244
   70CHL1   H3' 7590   2.503   0.860   7.106 -1.0955  0.5892 -0.3746
   70CHL1    C4 7591   2.396   0.884   7.314  0.8152 -0.0599  0.1345
   70CHL1   H4A 7592   2.476   0.954   7.282  1.3861 -0.8681 -0.2517
   70CHL1   H4B 7593   2.297   0.916   7.277  1.5875  0.3909 -1.5978
   70CHL1    C5 7594   2.397   0.867   7.460 -0.5010 -0.1496  0.2746
   70CHL1    C6 7595   2.293   0.911   7.538  0.2116 -0.1361 -0.0232
   70CHL1    H6 7596   2.213   0.970   7.489  0.1002  0.0551  0.3896
   70CHL1    C7 7597   2.284   0.907   7.693 -0.3855  0.1511 -1.2664
   70CHL1   H7A 7598   2.249   1.000   7.742  0.8957  0.0778 -0.1709
   70CHL1   H7B 7599   2.210   0.827   7.714  1.2785 -1.2041 -0.4263
   70CHL1    C8 7600   2.424   0.880   7.755 -0.1654  0.4293  0.7201
   70CHL1    H8 7601   2.484   0.974   7.761 -0.1164  0.4301  0.2378
   70CHL1   C14 7602   2.414   0.821   7.897  0.0950 -0.6368  0.1541
   70CHL1   H14 7603   2.372   0.718   7.892  1.7645 -1.3279  0.0377
   70CHL1   C15 7604   2.325   0.899   7.994  0.1216 -0.3456  0.2474
   70CHL1  H15A 7605   2.349   1.007   7.991 -0.1182 -0.1859  2.8482
   70CHL1  H15B 7606   2.218   0.906   7.965  0.5174  1.8456 -0.7333
   70CHL1   C16 7607   2.352   0.835   8.133 -0.1931 -0.3140  0.3596
   70CHL1  H16A 7608   2.362   0.921   8.201 -0.3327  0.7746 -0.9774
   70CHL1  H16B 7609   2.266   0.774   8.168  0.2681 -1.9961 -1.3412
   70CHL1   C17 7610   2.479   0.749   8.113  0.0512  0.2403  0.6911
   70CHL1   H17 7611   2.441   0.648   8.090 -0.0278  0.5823 -0.7345
   70CHL1   C13 7612   2.541   0.794   7.977  0.6674 -0.0984  0.7797
   70CHL1   C18 7613   2.632   0.915   7.989  0.2115 -1.3359  0.1812
   70CHL1  H18A 7614   2.691   0.948   7.901  2.0237 -2.5218  0.9251
   70CHL1  H18B 7615   2.583   1.013   8.012 -0.4557 -1.9832  1.5758
   70CHL1  H18C 7616   2.707   0.906   8.070 -0.0125  1.4389  0.7652
   70CHL1   C12 7617   2.612   0.689   7.892  0.1557  0.1033  0.1239
   70CHL1  H12A 7618   2.712   0.650   7.919 -1.1571 -2.5227  1.3277
   70CHL1  H12B 7619   2.551   0.596   7.894  0.8569 -0.4835 -2.9442
   70CHL1   C11 7620   2.633   0.726   7.743 -0.4716  0.1514  0.0607
   70CHL1  H11A 7621   2.709   0.807   7.740  0.4705 -0.7782 -3.1109
   70CHL1  H11B 7622   2.681   0.642   7.688  0.5114  0.6623  0.1209
   70CHL1    C9 7623   2.501   0.775   7.675  0.0430  0.2528  0.0153
   70CHL1    H9 7624   2.430   0.689   7.674  0.5691 -0.1849  0.1028
   70CHL1   C10 7625   2.528   0.807   7.521  0.2123 -0.6895 -0.1846
   70CHL1   C19 7626   2.656   0.892   7.506 -0.1186  0.6694 -0.4478
   70CHL1  H19A 7627   2.741   0.821   7.503 -0.8271 -0.2553  0.7806
   70CHL1  H19B 7628   2.659   0.952   7.412  1.6178 -1.9099 -2.0965
   70CHL1  H19C 7629   2.673   0.951   7.598 -0.9152 -1.6960  1.2711
   70CHL1    C1 7630   2.559   0.669   7.446 -0.2942  0.6121  0.7838
   70CHL1   H1A 7631   2.653   0.629   7.491 -0.5168  0.2426  0.9176
   70CHL1   H1B 7632   2.472   0.608   7.477 -0.8016  1.0249  0.1663
   70CHL1    C2 7633   2.562   0.682   7.295  0.2290 -0.0028 -0.3100
   70CHL1   H2A 7634   2.565   0.580   7.250 -1.7837  0.0809 -0.7128
   70CHL1   H2B 7635   2.656   0.738   7.276  0.9830 -1.7858 -2.1031
   70CHL1   C20 7636   2.573   0.727   8.235  0.4329 -0.3624 -0.7133
   70CHL1   H20 7637   2.644   0.813   8.240  1.9770 -1.6277 -0.2987
   70CHL1   C21 7638   2.658   0.594   8.219  0.7576  0.0869  0.4034
   70CHL1  H21A 7639   2.592   0.504   8.217  3.5386 -1.9447 -2.4472
   70CHL1  H21B 7640   2.715   0.581   8.314 -0.9148  2.6154  1.8293
   70CHL1  H21C 7641   2.726   0.599   8.132 -0.2164  1.2876 -0.3132
   70CHL1   C22 7642   2.495   0.731   8.360  0.1790  0.1958 -0.4277
   70CHL1  H22A 7643   2.460   0.835   8.372  0.5410  0.7249 -3.5756
   70CHL1  H22B 7644   2.409   0.661   8.353 -0.4361  1.1215 -2.2844
   70CHL1   C23 7645   2.546   0.676   8.494 -0.0888  0.3106 -0.1607
   70CHL1  H23A 7646   2.553   0.565   8.499 -0.3185  0.3765  1.7691
   70CHL1  H23B 7647   2.645   0.720   8.517  0.1606  0.2206 -1.0374
   70CHL1   C24 7648   2.454   0.715   8.616  0.5116  0.2352  0.3977
   70CHL1  H24A 7649   2.427   0.822   8.600  1.9244  0.5888  0.3461
   70CHL1  H24B 7650   2.359   0.657   8.618  1.4046 -1.2076  1.2904
   70CHL1   C25 7651   2.530   0.701   8.753 -0.2704  0.0313 -0.2387
   70CHL1   H25 7652   2.609   0.777   8.775  0.4143 -0.6646 -0.2678
   70CHL1   C26 7653   2.427   0.701   8.860  0.4475 -0.1065 -0.2286
   70CHL1  H26A 7654   2.464   0.667   8.959  3.3471 -0.2648 -1.3172
   70CHL1  H26B 7655   2.371   0.797   8.866  0.6681 -0.0522  1.1908
   70CHL1  H26C 7656   2.350   0.624   8.838 -0.8766  1.7232 -2.0977
   70CHL1   C27 7657   2.592   0.554   8.758  0.3670  0.0146 -0.4543
   70CHL1  H27A 7658   2.511   0.489   8.718  0.4019 -0.6747  0.5877
   70CHL1  H27B 7659   2.684   0.551   8.697  1.6112 -0.3909  1.4274
   70CHL1  H27C 7660   2.622   0.522   8.860  1.3303  0.2552 -0.6573
   71CHL1    C3 7661   1.749   2.829   6.807 -0.0780  0.6491  0.6033
   71CHL1    H3 7662   1.673   2.908   6.824 -0.9865 -0.1391  0.2339
   71CHL1    O3 7663   1.751   2.800   6.668 -0.7466  0.2129  0.2236
   71CHL1   H3' 7664   1.732   2.888   6.634 -1.6038  1.0688  2.8090
   71CHL1    C4 7665   1.887   2.864   6.846 -0.3439  0.5164  0.8868
   71CHL1   H4A 7666   1.960   2.784   6.818 -1.9632 -0.4991 -0.4882
   71CHL1   H4B 7667   1.904   2.958   6.790 -2.6362  0.9556  0.8931
   71CHL1    C5 7668   1.890   2.885   7.002 -0.1618  0.3262 -0.1391
   71CHL1    C6 7669   1.935   3.008   7.049 -0.7767  0.2278 -0.2974
   71CHL1    H6 7670   1.964   3.094   6.986  0.3395  0.6786  0.8293
   71CHL1    C7 7671   1.956   3.028   7.201 -0.6579 -0.3888 -0.3978
   71CHL1   H7A 7672   2.055   3.076   7.217 -0.1127 -1.9974  1.2371
   71CHL1   H7B 7673   1.882   3.106   7.227  0.4477  0.4018  0.3948
   71CHL1    C8 7674   1.943   2.898   7.285  0.1917 -0.3056  0.2872
   71CHL1    H8 7675   2.035   2.837   7.269 -0.1545 -1.0168  0.9512
   71CHL1   C14 7676   1.935   2.925   7.437 -0.2499  0.2025  0.2682
   71CHL1   H14 7677   1.846   2.990   7.444 -0.6750 -0.0759 -2.0471
   71CHL1   C15 7678   2.045   3.007   7.501 -0.0373 -0.2783  0.5420
   71CHL1  H15A 7679   2.147   2.975   7.470 -0.6721 -0.9905 -0.8288
   71CHL1  H15B 7680   2.036   3.117   7.487  0.1207 -0.2239  0.8554
   71CHL1   C16 7681   2.031   2.976   7.652  0.1566  0.8233 -0.3550
   71CHL1  H16A 7682   2.131   2.939   7.684 -1.0076 -2.6504 -0.5461
   71CHL1  H16B 7683   1.997   3.065   7.709 -2.6183  0.6041 -1.5770
   71CHL1   C17 7684   1.926   2.868   7.661 -0.5230  0.2935 -0.0387
   71CHL1   H17 7685   1.824   2.910   7.669 -0.5877 -0.1469  1.8506
   71CHL1   C13 7686   1.920   2.801   7.527  0.1039  0.7055 -0.7907
   71CHL1   C18 7687   2.040   2.708   7.503  0.3601 -0.0666  0.6530
   71CHL1  H18A 7688   2.057   2.625   7.575 -0.5319  1.3293  2.4908
   71CHL1  H18B 7689   2.043   2.664   7.401  1.7352  2.9305 -0.6334
   71CHL1  H18C 7690   2.140   2.755   7.516 -0.4092  1.6783  0.4076
   71CHL1   C12 7691   1.786   2.739   7.490  0.1313 -0.1593  0.0979
   71CHL1  H12A 7692   1.781   2.646   7.550 -0.3771  0.8757  1.7043
   71CHL1  H12B 7693   1.706   2.810   7.522 -0.0109 -1.2300  2.2275
   71CHL1   C11 7694   1.782   2.705   7.337  0.0377  0.1690 -0.6817
   71CHL1  H11A 7695   1.847   2.615   7.335  0.2886  0.3641 -1.6511
   71CHL1  H11B 7696   1.680   2.670   7.310 -0.6905  0.6837  1.3132
   71CHL1    C9 7697   1.822   2.821   7.235  0.2961  0.0855 -0.8855
   71CHL1    H9 7698   1.736   2.891   7.228  1.1605  1.1273 -1.1669
   71CHL1   C10 7699   1.843   2.774   7.092  0.3592  0.8482 -0.0020
   71CHL1   C19 7700   1.943   2.658   7.078  0.3645  0.4035 -0.0841
   71CHL1  H19A 7701   1.974   2.627   6.976  1.3331  1.0243  0.0087
   71CHL1  H19B 7702   2.034   2.692   7.132 -0.1024 -0.8091  1.4988
   71CHL1  H19C 7703   1.902   2.567   7.127  0.3553 -0.2033 -1.2185
   71CHL1    C1 7704   1.703   2.737   7.029 -0.0039  0.0981  0.7675
   71CHL1   H1A 7705   1.665   2.650   7.087 -0.5184 -0.7063 -0.7477
   71CHL1   H1B 7706   1.625   2.815   7.037 -0.6551 -0.4994  0.3436
   71CHL1    C2 7707   1.713   2.706   6.877  0.3008 -0.6662 -0.3104
   71CHL1   H2A 7708   1.613   2.681   6.836  0.6767  0.1308 -1.7283
   71CHL1   H2B 7709   1.787   2.627   6.849  1.5004  0.3878 -0.1325
   71CHL1   C20 7710   1.935   2.778   7.792  0.2888 -0.2221  0.3657
   71CHL1   H20 7711   2.022   2.714   7.769 -1.5760 -2.4096 -0.8084
   71CHL1   C21 7712   1.804   2.690   7.815  0.0344  0.0789 -0.4547
   71CHL1  H21A 7713   1.713   2.728   7.764  0.7471  2.4650 -0.0087
   71CHL1  H21B 7714   1.782   2.674   7.922 -1.8654 -2.3182 -1.1589
   71CHL1  H21C 7715   1.830   2.589   7.776  0.0625 -0.2553  0.4225
   71CHL1   C22 7716   1.962   2.864   7.916 -0.0755  0.0690 -0.6072
   71CHL1  H22A 7717   2.047   2.933   7.896  1.7318 -1.2218  2.1420
   71CHL1  H22B 7718   1.878   2.931   7.941  1.7912  2.5716 -0.8058
   71CHL1   C23 7719   2.006   2.783   8.037  0.4294 -0.8455 -0.5855
   71CHL1  H23A 7720   1.911   2.746   8.082  0.4201  2.1056  1.9879
   71CHL1  H23B 7721   2.068   2.698   8.003  1.0709 -0.0763 -1.3589
   71CHL1   C24 7722   2.086   2.868   8.145  0.0113 -0.2889 -0.4467
   71CHL1  H24A 7723   2.169   2.914   8.087  1.4717 -0.2829  1.6015
   71CHL1  H24B 7724   2.028   2.958   8.178  0.1651  0.1227 -1.2669
   71CHL1   C25 7725   2.125   2.800   8.280  0.0948 -0.2799 -0.3929
   71CHL1   H25 7726   2.211   2.736   8.255 -0.1902 -1.0827  0.6602
   71CHL1   C26 7727   2.177   2.898   8.386 -0.1351 -0.4382  0.2404
   71CHL1  H26A 7728   2.270   2.943   8.344 -0.4579 -0.3922 -0.4277
   71CHL1  H26B 7729   2.110   2.986   8.398  0.9031  0.6487 -1.5813
   71CHL1  H26C 7730   2.175   2.860   8.490  0.7121 -2.2647 -0.3865
   71CHL1   C27 7731   2.014   2.703   8.332 -0.3821  0.0133  0.2055
   71CHL1  H27A 7732   2.045   2.642   8.420  0.2873 -1.2271 -0.8621
   71CHL1  H27B 7733   1.926   2.767   8.354  0.6955  1.7494 -0.4753
   71CHL1  H27C 7734   1.991   2.621   8.260 -3.0523  1.1400 -0.2758
   72CHL1    C3 7735   2.422   1.409   7.168 -0.5899  0.3691 -0.6783
   72CHL1    H3 7736   2.318   1.431   7.201 -0.0093  0.3949  1.1721
   72CHL1    O3 7737   2.442   1.397   7.032 -0.2068  0.7753 -0.3032
   72CHL1   H3' 7738   2.531   1.362   7.024 -0.1602  0.5138  1.3001
   72CHL1    C4 7739   2.517   1.512   7.241 -0.1073  0.5804 -0.1938
   72CHL1   H4A 7740   2.624   1.491   7.220 -0.4387 -1.9593  0.5096
   72CHL1   H4B 7741   2.495   1.614   7.201 -1.6791  0.6007  0.7041
   72CHL1    C5 7742   2.480   1.512   7.386  0.0844  0.8585 -0.1189
   72CHL1    C6 7743   2.433   1.620   7.448  0.0464 -0.7364  0.3012
   72CHL1    H6 7744   2.421   1.714   7.392  0.1055 -1.5811 -1.1617
   72CHL1    C7 7745   2.397   1.632   7.593  0.1055  1.0892  0.8963
   72CHL1   H7A 7746   2.417   1.732   7.638  1.9159  0.2919  1.9091
   72CHL1   H7B 7747   2.289   1.609   7.604 -0.2055  0.8020 -2.3050
   72CHL1    C8 7748   2.477   1.525   7.678  0.1061 -0.1239  0.5249
   72CHL1    H8 7749   2.583   1.559   7.686 -0.4013  1.1781  1.7122
   72CHL1   C14 7750   2.409   1.510   7.818  0.1851 -0.0787 -0.6421
   72CHL1   H14 7751   2.302   1.483   7.807  0.4636 -1.4054 -0.1093
   72CHL1   C15 7752   2.406   1.634   7.906  0.2095 -0.5810 -0.1655
   72CHL1  H15A 7753   2.500   1.693   7.909  1.0523 -1.8830 -0.6726
   72CHL1  H15B 7754   2.332   1.704   7.862  0.2218 -0.6959 -0.3688
   72CHL1   C16 7755   2.367   1.582   8.050 -0.4622 -0.6379  0.8774
   72CHL1  H16A 7756   2.433   1.635   8.122 -1.0530  1.2826  0.0417
   72CHL1  H16B 7757   2.261   1.601   8.078 -0.4361  1.5247 -0.4125
   72CHL1   C17 7758   2.396   1.424   8.042  0.9016  0.1143  0.3106
   72CHL1   H17 7759   2.300   1.372   8.024 -0.0002  0.5728  3.4058
   72CHL1   C13 7760   2.469   1.402   7.910  0.2410  0.5523  0.1715
   72CHL1   C18 7761   2.617   1.439   7.941  0.2128  0.3263 -0.3433
   72CHL1  H18A 7762   2.618   1.536   7.996 -0.8358  0.7883 -1.1124
   72CHL1  H18B 7763   2.675   1.371   8.007 -3.9539  0.0854  3.3809
   72CHL1  H18C 7764   2.673   1.455   7.846 -0.4651 -0.7849 -0.9418
   72CHL1   C12 7765   2.444   1.267   7.833  0.1199  0.3632 -1.0817
   72CHL1  H12A 7766   2.485   1.183   7.894  2.7477  1.4435 -1.2889
   72CHL1  H12B 7767   2.334   1.254   7.828  0.0227 -0.0556  1.5029
   72CHL1   C11 7768   2.510   1.268   7.700  0.4831  0.4102 -0.5032
   72CHL1  H11A 7769   2.619   1.284   7.707  0.8166 -1.6612 -0.6228
   72CHL1  H11B 7770   2.491   1.172   7.647 -1.8818  2.7867 -4.2572
   72CHL1    C9 7771   2.460   1.384   7.609  0.1049  0.0772 -0.1010
   72CHL1    H9 7772   2.349   1.373   7.612  0.0041  0.7477 -0.9138
   72CHL1   C10 7773   2.511   1.379   7.465  0.1649 -0.7518 -0.2953
   72CHL1   C19 7774   2.661   1.354   7.465 -0.6181  0.6887  0.6939
   72CHL1  H19A 7775   2.716   1.439   7.510 -0.8312 -0.1748  2.6260
   72CHL1  H19B 7776   2.689   1.265   7.525  0.4040 -0.0465 -0.8414
   72CHL1  H19C 7777   2.704   1.346   7.363 -0.6393 -2.9030  0.8877
   72CHL1    C1 7778   2.441   1.264   7.386  0.2283  0.2880 -0.6273
   72CHL1   H1A 7779   2.485   1.167   7.419 -0.0775 -0.8357 -3.3984
   72CHL1   H1B 7780   2.334   1.264   7.415  0.5291 -0.0827  0.4753
   72CHL1    C2 7781   2.453   1.269   7.234 -0.4193 -0.1224 -1.0117
   72CHL1   H2A 7782   2.402   1.189   7.175 -0.5438 -0.5780 -0.2875
   72CHL1   H2B 7783   2.560   1.257   7.209  0.6133  1.4025  2.4820
   72CHL1   C20 7784   2.457   1.368   8.173  1.0840  0.1330  1.1870
   72CHL1   H20 7785   2.555   1.418   8.189  0.7353  0.5882  1.9449
   72CHL1   C21 7786   2.493   1.225   8.159  0.5395 -0.1195 -0.0982
   72CHL1  H21A 7787   2.398   1.174   8.135 -0.2941  1.4271 -0.1213
   72CHL1  H21B 7788   2.529   1.179   8.253 -0.9370  1.9443  1.5175
   72CHL1  H21C 7789   2.579   1.205   8.091  0.4660 -0.7325 -0.0156
   72CHL1   C22 7790   2.366   1.394   8.295  0.5611 -0.5598  0.0870
   72CHL1  H22A 7791   2.358   1.505   8.304  1.3628 -0.4887 -0.0428
   72CHL1  H22B 7792   2.263   1.355   8.277  0.9614 -1.2499 -0.6955
   72CHL1   C23 7793   2.407   1.331   8.432 -0.7606  0.1300  0.8767
   72CHL1  H23A 7794   2.374   1.225   8.438  0.8485 -0.4179  0.3087
   72CHL1  H23B 7795   2.517   1.335   8.449 -0.3842 -0.6996 -1.2778
   72CHL1   C24 7796   2.342   1.398   8.552  0.3017 -0.4837 -0.0626
   72CHL1  H24A 7797   2.391   1.495   8.573 -2.4124  0.4968  2.0541
   72CHL1  H24B 7798   2.238   1.427   8.524 -0.0506 -0.3011  1.4001
   72CHL1   C25 7799   2.335   1.320   8.689 -0.5525 -0.7080  0.2170
   72CHL1   H25 7800   2.431   1.276   8.725  0.0938 -0.6690 -1.3903
   72CHL1   C26 7801   2.298   1.424   8.803  0.0901 -0.1624  0.0973
   72CHL1  H26A 7802   2.377   1.502   8.804 -1.3725  1.3335  0.9085
   72CHL1  H26B 7803   2.195   1.463   8.790  0.3355  0.1249 -1.1162
   72CHL1  H26C 7804   2.289   1.362   8.894  0.7778 -1.0057 -0.3918
   72CHL1   C27 7805   2.240   1.205   8.679 -0.0529  0.0692 -0.8630
   72CHL1  H27A 7806   2.234   1.151   8.776  0.1400 -0.9867 -1.4400
   72CHL1  H27B 7807   2.139   1.241   8.651  0.3666 -0.1378 -2.6887
   72CHL1  H27C 7808   2.274   1.138   8.597 -0.5415  0.2002 -1.1752
   73CHL1    C3 7809   1.887   4.560   6.937  0.0003 -0.6478 -0.0062
   73CHL1    H3 7810   1.902   4.669   6.955  1.2306 -0.8375  0.1653
   73CHL1    O3 7811   1.902   4.527   6.802  0.3022  0.5440  0.1201
   73CHL1   H3' 7812   1.924   4.611   6.760 -0.3957  1.1657  0.9661
   73CHL1    C4 7813   1.999   4.478   7.013  0.0433  0.0138 -0.3596
   73CHL1   H4A 7814   1.987   4.370   6.989 -0.3556 -0.1042  0.3392
   73CHL1   H4B 7815   2.097   4.513   6.975  0.4600  0.5691  1.1841
   73CHL1    C5 7816   1.978   4.485   7.164  0.3510 -0.3557  0.2663
   73CHL1    C6 7817   2.073   4.538   7.251 -0.3574 -0.5884  0.1307
   73CHL1    H6 7818   2.173   4.566   7.215 -1.2197  2.4145 -0.1053
   73CHL1    C7 7819   2.059   4.544   7.399  0.0498  0.0078  0.4620
   73CHL1   H7A 7820   2.153   4.506   7.445 -0.4857 -1.2532  0.5450
   73CHL1   H7B 7821   2.030   4.648   7.425 -1.2710 -0.8354  2.4764
   73CHL1    C8 7822   1.943   4.449   7.448  0.6113 -0.4667 -0.0448
   73CHL1    H8 7823   1.980   4.346   7.435  0.5312 -0.3384 -1.3366
   73CHL1   C14 7824   1.919   4.493   7.595 -0.2192  0.1394  0.6779
   73CHL1   H14 7825   1.877   4.596   7.595  2.5415  1.2980 -0.1963
   73CHL1   C15 7826   2.031   4.487   7.702  0.9623 -0.1441  0.0648
   73CHL1  H15A 7827   2.084   4.390   7.689 -1.5175 -1.3219 -1.6613
   73CHL1  H15B 7828   2.104   4.569   7.685  0.7329  0.0015 -0.2157
   73CHL1   C16 7829   1.954   4.493   7.834  0.5652  1.3737  0.2980
   73CHL1  H16A 7830   1.993   4.413   7.900  0.8545  2.0437  0.9418
   73CHL1  H16B 7831   1.973   4.594   7.875 -0.1379  1.1821  1.0910
   73CHL1   C17 7832   1.800   4.461   7.810  0.2556  0.1539  0.7621
   73CHL1   H17 7833   1.763   4.566   7.805  0.5423  0.1804 -1.3681
   73CHL1   C13 7834   1.801   4.413   7.663  0.7543  0.5486 -0.3096
   73CHL1   C18 7835   1.840   4.264   7.664  0.1699 -0.2319  0.3430
   73CHL1  H18A 7836   1.748   4.209   7.696  0.1559 -2.8632 -3.8186
   73CHL1  H18B 7837   1.856   4.233   7.558 -1.6904 -2.3988  0.6567
   73CHL1  H18C 7838   1.920   4.238   7.736 -0.6897  1.0164  1.7823
   73CHL1   C12 7839   1.673   4.450   7.581  0.0517 -0.7144 -0.0435
   73CHL1  H12A 7840   1.579   4.399   7.613  0.0420 -0.0973  0.9199
   73CHL1  H12B 7841   1.647   4.554   7.608 -0.7848 -0.7592 -0.6465
   73CHL1   C11 7842   1.686   4.420   7.428  0.1811  0.6445 -0.1140
   73CHL1  H11A 7843   1.687   4.309   7.438  2.5014  0.6501  0.0955
   73CHL1  H11B 7844   1.590   4.451   7.382 -0.2576  1.1344  1.1063
   73CHL1    C9 7845   1.815   4.477   7.365  0.1420  0.0986  1.2923
   73CHL1    H9 7846   1.790   4.585   7.366 -0.1211  0.0346  1.6241
   73CHL1   C10 7847   1.834   4.440   7.218 -0.4174  0.4801 -0.2601
   73CHL1   C19 7848   1.811   4.284   7.200 -0.1436 -0.3140 -0.5294
   73CHL1  H19A 7849   1.705   4.254   7.213 -0.0827 -1.0338 -1.6618
   73CHL1  H19B 7850   1.837   4.256   7.096  1.7713 -1.6267  0.2709
   73CHL1  H19C 7851   1.884   4.235   7.269 -1.0325 -0.2465  0.4699
   73CHL1    C1 7852   1.733   4.525   7.137  0.0405  0.0447 -0.7152
   73CHL1   H1A 7853   1.635   4.481   7.167  0.6634 -0.2896  0.8328
   73CHL1   H1B 7854   1.740   4.634   7.157 -1.3112  0.0822 -0.3590
   73CHL1    C2 7855   1.748   4.516   6.978  0.3798  0.1909  0.7905
   73CHL1   H2A 7856   1.679   4.584   6.924  0.0087  0.1088  1.1667
   73CHL1   H2B 7857   1.728   4.410   6.948  2.7920 -0.0093 -0.2595
   73CHL1   C20 7858   1.732   4.384   7.926  0.3173 -0.0798 -0.6840
   73CHL1   H20 7859   1.783   4.286   7.939  0.1293 -0.0490  0.3304
   73CHL1   C21 7860   1.585   4.359   7.892  0.2127  0.1688  0.2028
   73CHL1  H21A 7861   1.534   4.306   7.976  0.6487 -1.4567 -0.5287
   73CHL1  H21B 7862   1.572   4.295   7.801 -0.8096 -0.3922  0.7349
   73CHL1  H21C 7863   1.525   4.448   7.866 -0.4263 -0.8409 -1.9669
   73CHL1   C22 7864   1.756   4.452   8.067  0.0605  0.0473  0.2006
   73CHL1  H22A 7865   1.865   4.466   8.077  0.2069 -0.4520 -0.6252
   73CHL1  H22B 7866   1.691   4.541   8.080 -0.4262 -0.1408 -0.9003
   73CHL1   C23 7867   1.721   4.361   8.188 -0.3813 -0.2120 -0.3310
   73CHL1  H23A 7868   1.611   4.349   8.186 -0.3317 -1.1256  1.2088
   73CHL1  H23B 7869   1.771   4.261   8.184 -1.2231 -0.6040 -1.2423
   73CHL1   C24 7870   1.758   4.422   8.327 -0.3562 -0.3065  0.6737
   73CHL1  H24A 7871   1.868   4.440   8.333 -0.5204  2.0100 -2.2598
   73CHL1  H24B 7872   1.720   4.525   8.346 -0.4901  0.0231 -1.3027
   73CHL1   C25 7873   1.716   4.317   8.433  0.9004  0.6027  0.2106
   73CHL1   H25 7874   1.778   4.229   8.408 -1.0798 -0.9375  0.6091
   73CHL1   C26 7875   1.753   4.369   8.568 -0.5523  0.0580  0.2170
   73CHL1  H26A 7876   1.852   4.418   8.556 -0.5013 -0.0289  0.2830
   73CHL1  H26B 7877   1.693   4.458   8.596  1.9915  1.5773  0.9225
   73CHL1  H26C 7878   1.769   4.292   8.647  2.5230  0.8547  0.4274
   73CHL1   C27 7879   1.569   4.274   8.432  0.2835 -0.3277  0.1005
   73CHL1  H27A 7880   1.502   4.361   8.446 -1.8100 -2.0091  0.8171
   73CHL1  H27B 7881   1.541   4.230   8.334  1.6420 -2.9530  0.8647
   73CHL1  H27C 7882   1.561   4.195   8.510  1.4847  0.1351  0.7087
   74CHL1    C3 7883   1.347   2.513   6.899 -0.2141  0.2035 -0.0256
   74CHL1    H3 7884   1.417   2.597   6.921 -1.6202  1.0610  1.2188
   74CHL1    O3 7885   1.329   2.517   6.755 -0.6044  0.5563 -0.4367
   74CHL1   H3' 7886   1.281   2.439   6.727  1.7077 -1.0205 -0.1220
   74CHL1    C4 7887   1.399   2.374   6.949  0.2853 -1.0665 -0.0906
   74CHL1   H4A 7888   1.332   2.289   6.926  0.3398 -1.3091  0.6328
   74CHL1   H4B 7889   1.492   2.349   6.894  1.2599  1.6806  0.2407
   74CHL1    C5 7890   1.421   2.383   7.103 -0.1022  0.9075  0.6438
   74CHL1    C6 7891   1.530   2.340   7.157 -0.2234  0.5967 -0.2661
   74CHL1    H6 7892   1.605   2.302   7.086 -0.5059 -0.7760  0.1571
   74CHL1    C7 7893   1.557   2.342   7.304  0.2585  0.0840  0.5913
   74CHL1   H7A 7894   1.601   2.243   7.326 -0.9948 -1.0668 -1.8913
   74CHL1   H7B 7895   1.637   2.416   7.329 -0.6635  1.2809  0.0642
   74CHL1    C8 7896   1.437   2.381   7.395  0.0131 -0.2324  0.0584
   74CHL1    H8 7897   1.375   2.293   7.422  2.2120 -0.4898  4.6218
   74CHL1   C14 7898   1.480   2.418   7.538  0.7963 -0.5167 -0.9729
   74CHL1   H14 7899   1.546   2.508   7.534  0.5711 -0.2335  1.1471
   74CHL1   C15 7900   1.574   2.325   7.622  0.0450 -0.0317 -0.6112
   74CHL1  H15A 7901   1.522   2.227   7.615  0.9496 -0.5141 -0.5855
   74CHL1  H15B 7902   1.670   2.328   7.566  0.6769 -1.6556  0.3578
   74CHL1   C16 7903   1.573   2.383   7.764 -0.4964  0.1467  0.1858
   74CHL1  H16A 7904   1.557   2.303   7.838 -1.9966  0.0557 -0.2109
   74CHL1  H16B 7905   1.671   2.436   7.774 -1.6085  2.1660  0.7150
   74CHL1   C17 7906   1.463   2.492   7.768 -0.3985  0.1251  0.4390
   74CHL1   H17 7907   1.522   2.584   7.748 -0.2683  0.1161  0.7772
   74CHL1   C13 7908   1.370   2.466   7.638 -0.0789  0.0429 -0.5092
   74CHL1   C18 7909   1.262   2.359   7.672 -0.5086 -0.6268  0.2782
   74CHL1  H18A 7910   1.314   2.276   7.724  2.6339 -0.2007 -2.0988
   74CHL1  H18B 7911   1.190   2.400   7.747 -0.7956  0.0788 -0.3809
   74CHL1  H18C 7912   1.204   2.318   7.587 -1.1639 -0.9335  0.8555
   74CHL1   C12 7913   1.305   2.582   7.565 -0.0833  0.1976 -0.3267
   74CHL1  H12A 7914   1.228   2.635   7.625 -1.1502  2.0530 -3.1972
   74CHL1  H12B 7915   1.376   2.658   7.524 -1.7258  2.6174  1.1918
   74CHL1   C11 7916   1.240   2.535   7.426 -0.2568  0.1407  0.9204
   74CHL1  H11A 7917   1.172   2.449   7.445  0.9396 -1.0126  0.1456
   74CHL1  H11B 7918   1.191   2.623   7.381  0.6514 -0.0914 -0.5562
   74CHL1    C9 7919   1.354   2.492   7.332 -0.3662  0.4133  0.1804
   74CHL1    H9 7920   1.434   2.568   7.319 -0.1069  0.1702  0.3538
   74CHL1   C10 7921   1.313   2.452   7.191  0.0167  0.2734  0.1607
   74CHL1   C19 7922   1.197   2.353   7.200  0.9547  0.2659  0.0707
   74CHL1  H19A 7923   1.108   2.390   7.254 -0.1469 -0.7113 -1.0388
   74CHL1  H19B 7924   1.159   2.338   7.097  2.3875 -0.6013 -0.3540
   74CHL1  H19C 7925   1.217   2.260   7.257  1.6109 -0.3284 -1.0994
   74CHL1    C1 7926   1.256   2.575   7.114  0.1038  0.0499  0.0624
   74CHL1   H1A 7927   1.171   2.619   7.170 -1.0037  0.3511 -1.7878
   74CHL1   H1B 7928   1.337   2.651   7.123 -1.5578  1.4793  3.8016
   74CHL1    C2 7929   1.225   2.559   6.963  0.6077  0.3075 -0.1865
   74CHL1   H2A 7930   1.186   2.662   6.945  0.0395  0.3755  1.3721
   74CHL1   H2B 7931   1.142   2.489   6.939  1.0154 -0.4135  0.4752
   74CHL1   C20 7932   1.400   2.518   7.907 -0.4905 -0.2274 -0.4201
   74CHL1   H20 7933   1.353   2.424   7.940  2.4029 -1.4949  0.2685
   74CHL1   C21 7934   1.310   2.642   7.905 -0.0349 -0.1793  0.4919
   74CHL1  H21A 7935   1.253   2.648   8.000  2.2090  1.3659  1.7735
   74CHL1  H21B 7936   1.228   2.629   7.831  0.1951 -0.0057  0.2072
   74CHL1  H21C 7937   1.375   2.730   7.887 -1.7973  1.4705  1.9084
   74CHL1   C22 7938   1.516   2.543   8.012  0.5233 -0.8326 -0.1409
   74CHL1  H22A 7939   1.600   2.471   8.002  3.7799  2.9525 -1.1979
   74CHL1  H22B 7940   1.563   2.640   7.985 -1.2563 -0.7267 -3.0531
   74CHL1   C23 7941   1.471   2.549   8.161 -0.3592  0.1409 -0.0575
   74CHL1  H23A 7942   1.403   2.637   8.165  1.5849  1.7694 -1.7112
   74CHL1  H23B 7943   1.414   2.461   8.198  0.4724 -0.3357  0.0880
   74CHL1   C24 7944   1.587   2.579   8.257  0.0977 -0.0238  0.1804
   74CHL1  H24A 7945   1.649   2.488   8.274 -1.6921 -1.3930 -0.4039
   74CHL1  H24B 7946   1.648   2.657   8.206 -0.7835 -0.8719 -2.2842
   74CHL1   C25 7947   1.548   2.623   8.400 -0.5170 -0.0983  0.5052
   74CHL1   H25 7948   1.491   2.719   8.397  0.8677  0.7483  0.6701
   74CHL1   C26 7949   1.467   2.509   8.463  0.1513 -0.0928  0.8231
   74CHL1  H26A 7950   1.366   2.503   8.419 -0.7169  2.2545  2.3676
   74CHL1  H26B 7951   1.518   2.414   8.436  3.1278  1.2859  1.2958
   74CHL1  H26C 7952   1.469   2.518   8.573  2.2320  0.7041  0.7546
   74CHL1   C27 7953   1.668   2.660   8.486  0.2212 -0.4377  0.0298
   74CHL1  H27A 7954   1.636   2.680   8.590 -0.6052  2.2786 -0.6968
   74CHL1  H27B 7955   1.742   2.577   8.482  1.3579  0.4459  1.9215
   74CHL1  H27C 7956   1.725   2.748   8.449  2.0123 -1.9696 -0.9802
   75CHL1    C3 7957   4.025   4.637   6.712  0.7250  0.2043  0.2731
   75CHL1    H3 7958   3.995   4.742   6.732  0.5309  0.1843  0.0847
   75CHL1    O3 7959   4.039   4.634   6.571 -0.0992  0.5256  0.2425
   75CHL1   H3' 7960   3.958   4.671   6.535  0.1161  0.5932 -0.1771
   75CHL1    C4 7961   4.154   4.615   6.791 -0.2564 -0.2079  0.8726
   75CHL1   H4A 7962   4.193   4.516   6.761 -0.3733  0.7776 -2.8387
   75CHL1   H4B 7963   4.228   4.694   6.764  0.4917 -1.0263  0.5072
   75CHL1    C5 7964   4.126   4.622   6.943 -0.3272  0.5431 -0.7941
   75CHL1    C6 7965   4.189   4.709   7.029  0.1299 -0.4791  0.3011
   75CHL1    H6 7966   4.262   4.776   6.981  1.2664 -1.5842  0.4866
   75CHL1    C7 7967   4.186   4.714   7.180  1.4618  0.1824 -0.0525
   75CHL1   H7A 7968   4.289   4.722   7.221  1.4619 -0.4916  0.0913
   75CHL1   H7B 7969   4.130   4.804   7.213 -0.5550 -0.7827 -0.7451
   75CHL1    C8 7970   4.118   4.584   7.233  0.0070  0.0416 -0.1678
   75CHL1    H8 7971   4.191   4.500   7.235 -0.8471 -0.6752  1.7812
   75CHL1   C14 7972   4.065   4.617   7.380  0.0904  0.5636 -0.1270
   75CHL1   H14 7973   3.985   4.695   7.376 -0.8958 -0.4512 -0.6608
   75CHL1   C15 7974   4.158   4.688   7.479  0.3223  0.6384  0.6997
   75CHL1  H15A 7975   4.258   4.643   7.497  0.1843 -0.0400 -0.1917
   75CHL1  H15B 7976   4.172   4.795   7.454 -0.4457  0.2627 -1.4149
   75CHL1   C16 7977   4.082   4.659   7.609 -0.6069  0.2415 -0.4078
   75CHL1  H16A 7978   4.161   4.622   7.677  0.7705 -0.4573 -2.3586
   75CHL1  H16B 7979   4.033   4.747   7.656 -0.3057 -0.7544  1.8829
   75CHL1   C17 7980   3.975   4.542   7.595 -0.7104 -0.4220  0.4210
   75CHL1   H17 7981   3.878   4.595   7.594 -0.7059 -0.4180 -0.5575
   75CHL1   C13 7982   4.011   4.495   7.452  0.1556  0.1043 -0.4462
   75CHL1   C18 7983   4.115   4.383   7.474 -0.6107 -0.3531 -1.1322
   75CHL1  H18A 7984   4.161   4.342   7.382 -1.3511 -1.3989 -1.0381
   75CHL1  H18B 7985   4.201   4.424   7.532 -1.6310  0.5645 -0.2404
   75CHL1  H18C 7986   4.066   4.300   7.530  1.7799  1.0054  3.2484
   75CHL1   C12 7987   3.890   4.448   7.364  0.3324 -0.0281 -0.1796
   75CHL1  H12A 7988   3.837   4.368   7.420  0.0466 -0.7528 -1.4567
   75CHL1  H12B 7989   3.821   4.533   7.348  2.0285  1.1859 -1.2156
   75CHL1   C11 7990   3.939   4.404   7.221  0.7105 -0.1237  0.6273
   75CHL1  H11A 7991   4.011   4.320   7.232  2.5520  1.0734 -1.9178
   75CHL1  H11B 7992   3.848   4.374   7.166  1.9073 -0.5712 -1.1467
   75CHL1    C9 7993   4.004   4.524   7.155 -0.1224 -0.0794  1.2543
   75CHL1    H9 7994   3.929   4.605   7.161 -2.6504 -2.3086  0.5060
   75CHL1   C10 7995   4.035   4.511   6.995 -0.0144 -0.9871  0.3139
   75CHL1   C19 7996   4.085   4.369   6.976 -0.1392  0.0767 -0.9376
   75CHL1  H19A 7997   4.011   4.288   6.991 -1.0398  1.0284 -0.1718
   75CHL1  H19B 7998   4.110   4.360   6.868 -1.6632 -0.6830 -1.2433
   75CHL1  H19C 7999   4.172   4.344   7.041 -0.2315 -2.0110 -1.5860
   75CHL1    C1 8000   3.898   4.536   6.907 -0.4874 -0.0975  0.4925
   75CHL1   H1A 8001   3.829   4.452   6.927  2.9499 -2.9570  0.8515
   75CHL1   H1B 8002   3.852   4.635   6.931  0.9730  0.6030  0.4691
   75CHL1    C2 8003   3.918   4.542   6.755 -0.1221  0.3142 -0.7500
   75CHL1   H2A 8004   3.821   4.561   6.704  0.3004 -0.4953 -1.8664
   75CHL1   H2B 8005   3.946   4.438   6.728  2.3438  0.9809 -0.8502
   75CHL1   C20 8006   3.979   4.441   7.713  0.7236  0.1969  0.1089
   75CHL1   H20 8007   4.082   4.401   7.711  1.0956  0.8977  2.7435
   75CHL1   C21 8008   3.872   4.326   7.698 -0.4632 -0.0653  0.2744
   75CHL1  H21A 8009   3.872   4.265   7.791  1.7029  0.5747  0.7299
   75CHL1  H21B 8010   3.876   4.272   7.601 -1.7932  2.4448 -1.2629
   75CHL1  H21C 8011   3.775   4.380   7.705 -0.5804  0.0721 -2.1187
   75CHL1   C22 8012   3.969   4.509   7.856 -0.2978  0.3432 -0.5675
   75CHL1  H22A 8013   4.012   4.611   7.848 -1.4021  1.0160  1.6251
   75CHL1  H22B 8014   3.868   4.528   7.897 -0.8852  2.0070 -2.6898
   75CHL1   C23 8015   4.067   4.440   7.956  0.1752 -0.0328 -0.0280
   75CHL1  H23A 8016   4.030   4.342   7.994 -1.4789  0.8742  0.7471
   75CHL1  H23B 8017   4.168   4.417   7.916 -0.4059 -1.6785 -0.5828
   75CHL1   C24 8018   4.069   4.509   8.091 -0.3603  0.1186 -0.5121
   75CHL1  H24A 8019   4.123   4.605   8.082 -1.3637  0.5443 -2.1304
   75CHL1  H24B 8020   3.965   4.527   8.127 -1.5880 -2.5397 -2.5542
   75CHL1   C25 8021   4.133   4.418   8.201  0.1732  0.1358 -0.4782
   75CHL1   H25 8022   4.065   4.331   8.209  1.4447 -0.9548 -1.3290
   75CHL1   C26 8023   4.276   4.366   8.172  0.3620 -0.1790  0.4652
   75CHL1  H26A 8024   4.319   4.307   8.255  0.2483 -1.4053 -0.3328
   75CHL1  H26B 8025   4.279   4.303   8.080  0.2207 -0.6190  0.7639
   75CHL1  H26C 8026   4.333   4.461   8.157  1.1781 -0.5959  0.8779
   75CHL1   C27 8027   4.133   4.480   8.336 -0.6149  0.1550 -0.3707
   75CHL1  H27A 8028   4.031   4.516   8.364 -0.3961  0.0435  0.5543
   75CHL1  H27B 8029   4.178   4.421   8.418 -1.0277  0.0300 -0.2341
   75CHL1  H27C 8030   4.201   4.567   8.341 -0.6906  0.2606 -1.1302
   76CHL1    C3 8031   1.521   0.324   7.310 -0.3138 -0.3777  0.3070
   76CHL1    H3 8032   1.498   0.424   7.353  0.7303 -0.0293  0.0684
   76CHL1    O3 8033   1.558   0.352   7.177  0.2970 -0.1157  0.1419
   76CHL1   H3' 8034   1.501   0.416   7.135  1.8097  0.2422 -1.4568
   76CHL1    C4 8035   1.649   0.274   7.376  0.2691 -0.1102  0.3484
   76CHL1   H4A 8036   1.682   0.182   7.322 -0.1453 -0.7695  1.2062
   76CHL1   H4B 8037   1.732   0.346   7.366 -0.0974  0.4974  1.6401
   76CHL1    C5 8038   1.618   0.229   7.519  0.0191 -0.1927 -0.0518
   76CHL1    C6 8039   1.683   0.278   7.622  0.2318 -0.0210  0.1204
   76CHL1    H6 8040   1.764   0.351   7.605  1.0835 -1.0282 -0.1772
   76CHL1    C7 8041   1.668   0.238   7.768  0.5445  0.3860 -0.4454
   76CHL1   H7A 8042   1.763   0.208   7.817  1.3879  3.5665 -0.0258
   76CHL1   H7B 8043   1.618   0.324   7.817 -0.2632 -1.0952  1.3906
   76CHL1    C8 8044   1.579   0.112   7.774  0.5852  0.1969  0.7297
   76CHL1    H8 8045   1.642   0.030   7.735 -0.5594  0.4666 -1.7924
   76CHL1   C14 8046   1.531   0.078   7.913  0.1099 -0.1271  0.6260
   76CHL1   H14 8047   1.457   0.156   7.941  0.6706  1.0989 -1.2323
   76CHL1   C15 8048   1.647   0.066   8.017  0.4492  0.0549 -0.5580
   76CHL1  H15A 8049   1.737   0.021   7.971  1.4645 -1.4657  2.7450
   76CHL1  H15B 8050   1.665   0.170   8.054 -0.4997  0.0000  0.0792
   76CHL1   C16 8051   1.591  -0.020   8.135  0.3653 -0.2746 -0.6804
   76CHL1  H16A 8052   1.655  -0.110   8.139  0.8842  0.1413  0.4592
   76CHL1  H16B 8053   1.585   0.032   8.233 -2.3371 -0.6675 -0.6088
   76CHL1   C17 8054   1.447  -0.061   8.093  0.2867 -0.2189 -0.1119
   76CHL1   H17 8055   1.381   0.022   8.127  0.6170  0.3983 -0.9681
   76CHL1   C13 8056   1.439  -0.048   7.933 -0.6052 -0.1355 -0.0955
   76CHL1   C18 8057   1.505  -0.176   7.875  0.4770  0.1088  0.1634
   76CHL1  H18A 8058   1.609  -0.189   7.913  0.3749 -1.0654  0.0454
   76CHL1  H18B 8059   1.439  -0.264   7.889  1.2549 -1.3289 -4.5439
   76CHL1  H18C 8060   1.518  -0.162   7.766 -1.5952 -2.6427 -0.4855
   76CHL1   C12 8061   1.308  -0.018   7.859  0.7535  0.1923  0.6394
   76CHL1  H12A 8062   1.241  -0.106   7.871  3.3414 -1.9234 -0.1606
   76CHL1  H12B 8063   1.256   0.071   7.900  1.6586  0.1733  1.8556
   76CHL1   C11 8064   1.337   0.023   7.708  0.4047 -0.1757 -0.5895
   76CHL1  H11A 8065   1.355  -0.080   7.669 -1.4953 -0.7536  0.0405
   76CHL1  H11B 8066   1.244   0.066   7.667 -0.4183 -0.6840  0.7072
   76CHL1    C9 8067   1.463   0.122   7.682  0.7985 -0.2325 -0.5237
   76CHL1    H9 8068   1.423   0.221   7.712  0.3664 -0.0033 -1.8352
   76CHL1   C10 8069   1.497   0.131   7.532 -0.2464 -0.2859  0.1886
   76CHL1   C19 8070   1.527  -0.011   7.467  0.2913 -0.2618 -0.1481
   76CHL1  H19A 8071   1.584  -0.073   7.540  1.7199  2.0629  0.7414
   76CHL1  H19B 8072   1.426  -0.055   7.454  1.8207 -3.7796 -0.8780
   76CHL1  H19C 8073   1.583  -0.011   7.370  1.3693  0.8888  0.4701
   76CHL1    C1 8074   1.374   0.202   7.467 -0.0118 -1.1438  0.6080
   76CHL1   H1A 8075   1.280   0.145   7.486 -2.1358  2.1069  0.2483
   76CHL1   H1B 8076   1.364   0.296   7.524 -0.6930 -1.9908  1.9065
   76CHL1    C2 8077   1.393   0.236   7.320 -0.4281 -0.6966 -0.0494
   76CHL1   H2A 8078   1.301   0.286   7.283  0.2199 -0.0056 -0.7306
   76CHL1   H2B 8079   1.415   0.152   7.250  0.2048 -0.9140  0.4030
   76CHL1   C20 8080   1.393  -0.189   8.156 -0.7424  0.9079  0.3305
   76CHL1   H20 8081   1.423  -0.270   8.087 -1.9589  0.5033  0.2625
   76CHL1   C21 8082   1.239  -0.169   8.166  0.6701  0.7800 -0.3333
   76CHL1  H21A 8083   1.184  -0.254   8.212  0.5552 -0.1567 -2.1600
   76CHL1  H21B 8084   1.195  -0.149   8.066  0.7218 -1.2763 -0.7860
   76CHL1  H21C 8085   1.215  -0.076   8.223 -0.4949 -0.9982  2.1956
   76CHL1   C22 8086   1.458  -0.226   8.300  0.1801 -0.2918  0.2761
   76CHL1  H22A 8087   1.567  -0.235   8.282  0.2636 -2.6830  1.8117
   76CHL1  H22B 8088   1.428  -0.157   8.382  0.0542  1.0782 -0.8991
   76CHL1   C23 8089   1.409  -0.359   8.356 -0.1160 -0.1507 -0.2633
   76CHL1  H23A 8090   1.299  -0.368   8.345 -0.4074  1.2207  1.2549
   76CHL1  H23B 8091   1.454  -0.443   8.299 -0.5133 -0.5980  0.0837
   76CHL1   C24 8092   1.442  -0.380   8.503  0.0693 -0.3852 -0.2263
   76CHL1  H24A 8093   1.436  -0.487   8.531  0.2854  0.3604  2.8849
   76CHL1  H24B 8094   1.548  -0.354   8.527 -0.8757  2.1793  1.3778
   76CHL1   C25 8095   1.349  -0.301   8.598  0.1237 -0.0382 -0.9607
   76CHL1   H25 8096   1.343  -0.199   8.555 -0.3727 -0.2420 -1.3838
   76CHL1   C26 8097   1.203  -0.358   8.611  0.5874 -0.1504 -0.0359
   76CHL1  H26A 8098   1.140  -0.316   8.693  1.4247  3.1495 -1.0369
   76CHL1  H26B 8099   1.144  -0.339   8.519  2.5467  4.9334 -0.4186
   76CHL1  H26C 8100   1.219  -0.467   8.621 -0.9008 -0.4554 -0.8453
   76CHL1   C27 8101   1.400  -0.292   8.744  0.1620 -0.2582 -0.3869
   76CHL1  H27A 8102   1.493  -0.232   8.754 -0.0493  0.8000 -4.1509
   76CHL1  H27B 8103   1.325  -0.249   8.814 -0.6813 -2.2777  0.0017
   76CHL1  H27C 8104   1.423  -0.396   8.778  1.3549 -0.9611 -3.2536
   77CHL1    C3 8105   1.697   4.914   6.969  0.1325  0.2784  0.4990
   77CHL1    H3 8106   1.754   4.821   6.987  1.6840  0.7479 -1.7312
   77CHL1    O3 8107   1.685   4.950   6.831 -0.1150 -0.0444  0.0431
   77CHL1   H3' 8108   1.671   5.044   6.846  1.7494 -0.2411  3.5789
   77CHL1    C4 8109   1.559   4.906   7.026  0.4901  0.2116 -0.4861
   77CHL1   H4A 8110   1.490   4.991   7.004 -0.7582 -0.2881  1.3740
   77CHL1   H4B 8111   1.509   4.817   6.981  1.2010 -1.4897  2.0173
   77CHL1    C5 8112   1.568   4.903   7.181  0.4159  0.4389 -0.3282
   77CHL1    C6 8113   1.502   4.808   7.247  0.2075  0.3418 -0.7021
   77CHL1    H6 8114   1.435   4.744   7.189  1.6217 -1.0003 -0.8636
   77CHL1    C7 8115   1.500   4.788   7.395  0.1624  0.8640 -0.2928
   77CHL1   H7A 8116   1.396   4.787   7.434  0.2675  3.0883  0.1185
   77CHL1   H7B 8117   1.555   4.699   7.432 -2.2316  0.3028  2.1492
   77CHL1    C8 8118   1.567   4.901   7.474 -0.0986 -0.0236 -0.2386
   77CHL1    H8 8119   1.501   4.991   7.468  1.9560  1.3947 -1.9931
   77CHL1   C14 8120   1.601   4.860   7.617 -0.3575 -0.2455  0.8375
   77CHL1   H14 8121   1.675   4.781   7.597  0.9754  0.9111  1.1251
   77CHL1   C15 8122   1.500   4.786   7.707  0.0063 -0.7993  0.8907
   77CHL1  H15A 8123   1.397   4.826   7.690  0.0837 -0.6501  0.7757
   77CHL1  H15B 8124   1.490   4.676   7.693 -1.1085 -0.7440  1.1903
   77CHL1   C16 8125   1.535   4.810   7.850 -0.1169 -0.7688  0.3555
   77CHL1  H16A 8126   1.457   4.870   7.903 -0.4443 -0.8593 -0.0180
   77CHL1  H16B 8127   1.547   4.715   7.907  3.4315  0.2312  1.3857
   77CHL1   C17 8128   1.670   4.882   7.835 -0.1702 -0.0687  0.8873
   77CHL1   H17 8129   1.735   4.802   7.794 -3.3596 -2.6281  0.6819
   77CHL1   C13 8130   1.658   4.966   7.701  0.3061  0.4344 -0.0767
   77CHL1   C18 8131   1.558   5.081   7.719 -0.2057  0.0075 -0.2119
   77CHL1  H18A 8132   1.547   5.157   7.639 -0.2793 -1.0300 -1.1882
   77CHL1  H18B 8133   1.453   5.050   7.742 -0.7411  1.0059 -1.2942
   77CHL1  H18C 8134   1.587   5.147   7.804 -1.2773 -0.8447  0.8518
   77CHL1   C12 8135   1.793   5.011   7.643  0.2021  0.0622 -0.6928
   77CHL1  H12A 8136   1.843   5.095   7.696  0.4978  0.6261 -1.8425
   77CHL1  H12B 8137   1.865   4.927   7.647 -0.7416 -0.7890 -1.1632
   77CHL1   C11 8138   1.770   5.054   7.498  0.0787  0.2024 -0.7824
   77CHL1  H11A 8139   1.705   5.144   7.501 -1.2417 -0.7757  1.0221
   77CHL1  H11B 8140   1.868   5.072   7.449 -0.1780 -0.9011 -1.7041
   77CHL1    C9 8141   1.698   4.955   7.404 -0.8583 -0.0486  0.9537
   77CHL1    H9 8142   1.767   4.869   7.391 -1.7217 -0.4768 -0.8761
   77CHL1   C10 8143   1.664   4.998   7.259 -0.3310 -0.4594 -0.2760
   77CHL1   C19 8144   1.591   5.133   7.251 -0.1964 -0.0934  0.1032
   77CHL1  H19A 8145   1.483   5.119   7.273 -0.3689  0.3894 -0.4434
   77CHL1  H19B 8146   1.621   5.213   7.322 -1.8178  0.8898 -0.2920
   77CHL1  H19C 8147   1.596   5.182   7.152  0.1116  0.4151  0.3685
   77CHL1    C1 8148   1.792   5.013   7.178 -0.7465 -0.1203 -0.0980
   77CHL1   H1A 8149   1.848   5.097   7.225 -2.5015  2.1360 -1.9575
   77CHL1   H1B 8150   1.844   4.916   7.194 -2.3288 -1.4675 -2.6939
   77CHL1    C2 8151   1.776   5.033   7.031 -0.2319  0.1867  0.7678
   77CHL1   H2A 8152   1.868   5.048   6.971 -1.2481  1.9323 -0.4047
   77CHL1   H2B 8153   1.713   5.122   7.014 -1.6975 -1.0378 -0.3323
   77CHL1   C20 8154   1.719   4.938   7.974  0.2005 -0.4669  0.5919
   77CHL1   H20 8155   1.675   5.040   7.966 -2.1281 -1.5607 -1.1458
   77CHL1   C21 8156   1.867   4.948   7.962 -0.5220 -0.5946  0.2939
   77CHL1  H21A 8157   1.914   4.847   7.965 -0.0886 -0.4062 -0.0703
   77CHL1  H21B 8158   1.907   5.005   8.048 -0.0792 -1.6532  0.7946
   77CHL1  H21C 8159   1.894   5.008   7.872  0.4436 -0.0620  0.9348
   77CHL1   C22 8160   1.678   4.866   8.105 -0.5318 -0.0281  0.0565
   77CHL1  H22A 8161   1.577   4.820   8.106 -0.0049 -1.1953  1.2900
   77CHL1  H22B 8162   1.745   4.777   8.113  0.9315  1.0845  0.3342
   77CHL1   C23 8163   1.697   4.957   8.225  0.6533 -0.5461  0.3488
   77CHL1  H23A 8164   1.803   4.988   8.217  0.2058  0.5443 -1.6316
   77CHL1  H23B 8165   1.634   5.047   8.209 -3.1539 -2.6308  2.6378
   77CHL1   C24 8166   1.676   4.889   8.359 -0.6435  0.0797 -0.2047
   77CHL1  H24A 8167   1.566   4.895   8.375 -0.5822  1.0448 -0.1338
   77CHL1  H24B 8168   1.718   4.786   8.356 -2.2053 -0.6866  2.6501
   77CHL1   C25 8169   1.735   4.956   8.480  0.4621  0.4346 -0.6907
   77CHL1   H25 8170   1.844   4.938   8.485  0.3564  0.3216  1.6565
   77CHL1   C26 8171   1.725   5.110   8.477  0.0129  0.0190  0.1129
   77CHL1  H26A 8172   1.621   5.141   8.455  0.4879  1.9530  0.5604
   77CHL1  H26B 8173   1.754   5.137   8.580 -0.6643 -1.2958  0.6625
   77CHL1  H26C 8174   1.788   5.150   8.394 -0.6980 -1.6286 -1.2747
   77CHL1   C27 8175   1.687   4.896   8.610 -0.3705 -0.0796  0.5620
   77CHL1  H27A 8176   1.581   4.928   8.616 -0.5814 -0.5953 -0.2505
   77CHL1  H27B 8177   1.701   4.786   8.601 -1.2905 -0.1950  0.4778
   77CHL1  H27C 8178   1.735   4.936   8.701  1.3471 -1.4300  0.2941
   78CHL1    C3 8179   4.012   6.236   6.715  0.2153 -0.7347  0.0417
   78CHL1    H3 8180   3.904   6.260   6.714  0.0331 -1.3880  1.9190
   78CHL1    O3 8181   4.050   6.205   6.585  0.0062 -0.3113 -0.6864
   78CHL1   H3' 8182   3.994   6.128   6.572 -0.6606  0.2051 -0.8883
   78CHL1    C4 8183   4.091   6.364   6.766 -0.7161  0.6220  0.8333
   78CHL1   H4A 8184   4.198   6.343   6.748 -0.9377  0.4881 -0.3631
   78CHL1   H4B 8185   4.074   6.449   6.697  0.2678  1.0416  1.0990
   78CHL1    C5 8186   4.067   6.409   6.912 -0.4802 -0.2033  0.5000
   78CHL1    C6 8187   4.037   6.537   6.937  0.4692 -0.6054  0.0160
   78CHL1    H6 8188   4.023   6.608   6.854 -1.4799  0.4193  1.1684
   78CHL1    C7 8189   4.030   6.602   7.074  0.3945 -0.7622 -0.4195
   78CHL1   H7A 8190   4.100   6.688   7.069 -0.7607  0.4428  3.1348
   78CHL1   H7B 8191   3.923   6.625   7.090  0.0980 -2.0808 -0.4655
   78CHL1    C8 8192   4.070   6.496   7.177  0.1607 -0.1207 -0.3878
   78CHL1    H8 8193   4.181   6.498   7.183  0.2040 -1.7054 -0.5475
   78CHL1   C14 8194   4.023   6.539   7.313 -0.3552 -0.7324 -0.6096
   78CHL1   H14 8195   3.912   6.540   7.313 -0.3572  0.8800  0.0531
   78CHL1   C15 8196   4.060   6.685   7.352 -0.3967  0.2540  0.4931
   78CHL1  H15A 8197   4.170   6.699   7.340 -0.1691 -1.7747  0.0780
   78CHL1  H15B 8198   3.999   6.755   7.292 -0.0631  0.7135  0.6838
   78CHL1   C16 8199   4.025   6.697   7.503 -0.0515  0.2183 -0.1188
   78CHL1  H16A 8200   4.104   6.745   7.566 -0.0258  0.6251 -0.4605
   78CHL1  H16B 8201   3.932   6.757   7.508  0.2940  0.8332 -0.9742
   78CHL1   C17 8202   3.991   6.547   7.550 -0.2955  0.8339  0.0501
   78CHL1   H17 8203   3.884   6.521   7.534 -0.1997  1.1129 -1.1418
   78CHL1   C13 8204   4.061   6.453   7.433 -0.2418  0.3095  0.2530
   78CHL1   C18 8205   4.220   6.458   7.453  0.3009 -0.0866  0.3482
   78CHL1  H18A 8206   4.260   6.562   7.458  0.4753 -0.0853 -0.8154
   78CHL1  H18B 8207   4.241   6.420   7.555  0.0214 -0.2653  0.3392
   78CHL1  H18C 8208   4.281   6.401   7.380 -1.5342 -2.1517  0.3674
   78CHL1   C12 8209   4.006   6.307   7.405  0.7860 -0.2011  0.2801
   78CHL1  H12A 8210   4.038   6.226   7.474  1.4160  0.5437  0.8702
   78CHL1  H12B 8211   3.896   6.317   7.410  0.7761 -0.7071  1.1436
   78CHL1   C11 8212   4.060   6.258   7.268 -0.4681 -0.1322 -0.1379
   78CHL1  H11A 8213   4.170   6.247   7.279 -0.3944  0.4299 -0.2823
   78CHL1  H11B 8214   4.012   6.161   7.244  3.0952 -1.6150 -1.5997
   78CHL1    C9 8215   4.025   6.354   7.150  0.5997  0.1900  1.1402
   78CHL1    H9 8216   3.914   6.353   7.146  0.5910 -1.0992  1.4023
   78CHL1   C10 8217   4.079   6.296   7.017 -0.0808  0.4004  0.2169
   78CHL1   C19 8218   4.224   6.246   7.030 -0.3873  0.3911  0.3635
   78CHL1  H19A 8219   4.275   6.234   6.933 -0.0479 -0.3309  0.6283
   78CHL1  H19B 8220   4.292   6.309   7.092  1.5531 -2.1289  0.9064
   78CHL1  H19C 8221   4.243   6.143   7.068 -0.6078 -0.3292 -1.4322
   78CHL1    C1 8222   3.993   6.172   6.968 -0.6374 -0.1831  1.4740
   78CHL1   H1A 8223   4.008   6.086   7.037 -0.4777 -2.2544 -1.0548
   78CHL1   H1B 8224   3.888   6.206   6.965 -1.0206 -1.3977 -0.1285
   78CHL1    C2 8225   4.029   6.121   6.822  0.1454  0.5370  0.2099
   78CHL1   H2A 8226   3.953   6.042   6.804 -0.3097  1.0650 -0.2098
   78CHL1   H2B 8227   4.125   6.065   6.827 -0.0844  0.0752 -0.4381
   78CHL1   C20 8228   4.023   6.518   7.699  0.3088  1.2405  0.2418
   78CHL1   H20 8229   4.129   6.542   7.720  0.8343  0.6531 -1.6557
   78CHL1   C21 8230   4.000   6.371   7.733 -0.5143 -0.6240 -0.4182
   78CHL1  H21A 8231   3.897   6.348   7.698 -0.2457  0.4793 -2.0033
   78CHL1  H21B 8232   4.019   6.345   7.839 -0.1426  0.2692 -0.2553
   78CHL1  H21C 8233   4.071   6.327   7.660 -1.3553 -1.6761 -0.6096
   78CHL1   C22 8234   3.938   6.606   7.795  0.9697 -0.0279 -0.4135
   78CHL1  H22A 8235   3.930   6.714   7.769 -2.5011 -0.3898 -1.0591
   78CHL1  H22B 8236   3.843   6.549   7.793  1.5403 -1.0640  0.9392
   78CHL1   C23 8237   3.976   6.590   7.940 -0.0178 -0.6809 -0.5579
   78CHL1  H23A 8238   3.952   6.485   7.969 -0.9995 -0.1906  0.4691
   78CHL1  H23B 8239   4.085   6.607   7.947 -0.0913 -0.6118  0.5528
   78CHL1   C24 8240   3.883   6.666   8.037 -0.2277 -0.1115  1.1844
   78CHL1  H24A 8241   3.921   6.770   8.046  0.3039 -0.1496 -0.5191
   78CHL1  H24B 8242   3.779   6.674   7.999 -0.3732  2.0660  1.9362
   78CHL1   C25 8243   3.874   6.595   8.179 -0.4853  0.1527  0.0994
   78CHL1   H25 8244   3.842   6.491   8.158 -2.4427  0.2982  2.0828
   78CHL1   C26 8245   4.011   6.582   8.246 -0.1144 -0.7163 -0.6885
   78CHL1  H26A 8246   3.994   6.554   8.352 -0.9284  1.0134 -0.3515
   78CHL1  H26B 8247   4.077   6.503   8.203 -0.6996 -0.2223 -2.5432
   78CHL1  H26C 8248   4.073   6.673   8.234  0.0362 -0.3936  2.2338
   78CHL1   C27 8249   3.779   6.655   8.271  0.0326 -0.5939 -0.5023
   78CHL1  H27A 8250   3.676   6.657   8.228 -0.4964  0.1913  0.7454
   78CHL1  H27B 8251   3.774   6.595   8.365 -0.1738  1.1494  0.6201
   78CHL1  H27C 8252   3.804   6.759   8.300  0.9869 -1.1173  0.5761
   79CHL1    C3 8253   2.494   6.128   7.300 -0.4251 -0.0915 -0.2942
   79CHL1    H3 8254   2.426   6.040   7.312  0.1382 -0.8007 -2.1271
   79CHL1    O3 8255   2.493   6.180   7.163 -0.1286  0.2371 -0.0314
   79CHL1   H3' 8256   2.444   6.114   7.114  0.1418  0.5512 -0.7285
   79CHL1    C4 8257   2.456   6.241   7.391 -0.3091  0.2379  0.5632
   79CHL1   H4A 8258   2.511   6.335   7.368  0.0834 -0.1182  0.0369
   79CHL1   H4B 8259   2.349   6.253   7.366  0.2217 -1.0990 -2.6089
   79CHL1    C5 8260   2.481   6.191   7.531  0.3849 -0.1852  0.4765
   79CHL1    C6 8261   2.374   6.186   7.618 -0.3712  0.6593  0.3113
   79CHL1    H6 8262   2.275   6.222   7.586 -1.7806 -2.0547  1.4988
   79CHL1    C7 8263   2.400   6.151   7.757  0.4097  0.2311 -0.3690
   79CHL1   H7A 8264   2.352   6.230   7.819  1.4660  0.9680 -0.4803
   79CHL1   H7B 8265   2.348   6.056   7.783  0.4558  0.4738  0.6404
   79CHL1    C8 8266   2.551   6.151   7.806  0.4765  0.4752 -0.3305
   79CHL1    H8 8267   2.584   6.257   7.808 -1.6287  1.1456  0.5195
   79CHL1   C14 8268   2.568   6.088   7.943 -0.1796 -0.8650  0.9189
   79CHL1   H14 8269   2.532   5.985   7.927 -1.0037 -0.5037  0.3840
   79CHL1   C15 8270   2.479   6.140   8.058  0.6517  0.7187 -0.6103
   79CHL1  H15A 8271   2.487   6.250   8.066 -1.4285  0.9942 -2.0198
   79CHL1  H15B 8272   2.371   6.115   8.047  0.4399  0.8879  0.9516
   79CHL1   C16 8273   2.541   6.067   8.183 -0.2413 -0.2784  0.0255
   79CHL1  H16A 8274   2.568   6.141   8.261 -0.0602  1.0781 -1.2934
   79CHL1  H16B 8275   2.475   5.987   8.224 -2.5013  1.8578  0.6963
   79CHL1   C17 8276   2.674   5.998   8.135  0.3140 -0.2674  0.2391
   79CHL1   H17 8277   2.637   5.896   8.110 -0.7864  0.2550 -0.3014
   79CHL1   C13 8278   2.705   6.066   8.001 -0.3990 -0.3528 -0.3913
   79CHL1   C18 8279   2.777   6.205   8.022 -0.3814 -0.6781  0.0694
   79CHL1  H18A 8280   2.724   6.265   8.099  1.0275  1.3980 -0.5399
   79CHL1  H18B 8281   2.885   6.198   8.046 -0.3863 -0.7885  0.0592
   79CHL1  H18C 8282   2.774   6.264   7.928  1.0707 -0.1614  0.3477
   79CHL1   C12 8283   2.788   5.987   7.903  0.6288 -0.0717 -0.4650
   79CHL1  H12A 8284   2.897   5.984   7.925  0.2851 -2.1270  1.1326
   79CHL1  H12B 8285   2.752   5.882   7.906 -1.1694  0.4510 -2.3749
   79CHL1   C11 8286   2.778   6.051   7.761 -0.1106 -0.7850 -0.4597
   79CHL1  H11A 8287   2.844   6.140   7.751 -1.8497  0.3188 -2.5872
   79CHL1  H11B 8288   2.820   5.969   7.699 -0.3271 -1.4271  0.2489
   79CHL1    C9 8289   2.635   6.076   7.705  0.5943  0.1601 -0.3808
   79CHL1    H9 8290   2.582   5.979   7.692 -1.3997  1.5646 -3.2204
   79CHL1   C10 8291   2.630   6.147   7.563 -0.6864 -0.4980  0.7687
   79CHL1   C19 8292   2.731   6.261   7.557  0.5362 -0.3237  0.0497
   79CHL1  H19A 8293   2.835   6.224   7.554  0.0577 -1.6123 -1.6390
   79CHL1  H19B 8294   2.718   6.324   7.467  1.8575 -0.2898 -0.1202
   79CHL1  H19C 8295   2.706   6.337   7.634 -1.1968 -1.2799  0.4810
   79CHL1    C1 8296   2.657   6.036   7.458 -0.5444  0.3946  0.1767
   79CHL1   H1A 8297   2.762   6.001   7.473 -1.2037 -1.1300  1.3111
   79CHL1   H1B 8298   2.590   5.952   7.483 -1.6892  1.0560 -0.6309
   79CHL1    C2 8299   2.631   6.072   7.309  0.0865 -0.2130  0.3310
   79CHL1   H2A 8300   2.631   5.977   7.251  1.9385 -0.8336  1.2775
   79CHL1   H2B 8301   2.716   6.134   7.274 -1.4622 -0.1608 -3.4433
   79CHL1   C20 8302   2.781   5.989   8.244  0.9938  0.1469 -0.1410
   79CHL1   H20 8303   2.796   6.090   8.289  0.3657  0.3857 -0.4553
   79CHL1   C21 8304   2.909   5.940   8.200 -0.1246  0.6749 -0.0289
   79CHL1  H21A 8305   2.978   5.956   8.286 -0.9662  0.0097  0.7767
   79CHL1  H21B 8306   2.947   5.998   8.113 -1.2515  0.3353 -0.7522
   79CHL1  H21C 8307   2.910   5.831   8.178  0.3041  1.0280 -1.8245
   79CHL1   C22 8308   2.731   5.917   8.369  0.2203 -0.2653 -0.2122
   79CHL1  H22A 8309   2.639   5.962   8.413  0.0002 -0.2108 -0.7305
   79CHL1  H22B 8310   2.713   5.812   8.338 -0.2979 -0.9865  2.4163
   79CHL1   C23 8311   2.827   5.908   8.486 -0.3149  0.0797 -0.1920
   79CHL1  H23A 8312   2.900   5.831   8.452  0.1052  0.3918 -0.0067
   79CHL1  H23B 8313   2.882   6.004   8.500 -0.3520  0.2476 -1.1558
   79CHL1   C24 8314   2.772   5.850   8.614 -0.2047  0.7081  0.6378
   79CHL1  H24A 8315   2.683   5.909   8.645 -1.4971 -0.6892 -0.2912
   79CHL1  H24B 8316   2.723   5.752   8.592 -0.5469  1.1272 -0.4594
   79CHL1   C25 8317   2.867   5.830   8.735  0.3863 -0.2676 -0.5300
   79CHL1   H25 8318   2.961   5.781   8.701  0.0657  0.6291 -2.8102
   79CHL1   C26 8319   2.890   5.965   8.797  0.3379 -0.4416 -0.5627
   79CHL1  H26A 8320   2.922   6.044   8.726  1.0453 -0.1566  0.0634
   79CHL1  H26B 8321   2.798   6.009   8.842 -0.0925 -1.2403 -0.6398
   79CHL1  H26C 8322   2.976   5.964   8.866  0.6708  0.7871 -0.9549
   79CHL1   C27 8323   2.815   5.718   8.829 -0.4996 -0.2510  0.1108
   79CHL1  H27A 8324   2.712   5.739   8.864 -0.6692 -0.3917 -0.3017
   79CHL1  H27B 8325   2.810   5.634   8.756  3.4625 -1.2587  0.8329
   79CHL1  H27C 8326   2.885   5.685   8.909 -0.0313  0.4760 -0.0008
   80CHL1    C3 8327   0.569   3.402   6.997 -0.2308  0.2561  0.4975
   80CHL1    H3 8328   0.492   3.442   7.066 -1.4088  2.1872 -1.8239
   80CHL1    O3 8329   0.507   3.439   6.873  0.2875 -0.6027  0.0994
   80CHL1   H3' 8330   0.577   3.427   6.808  1.8808  2.0402  1.2456
   80CHL1    C4 8331   0.699   3.478   7.022  0.4005 -0.0372 -0.1824
   80CHL1   H4A 8332   0.785   3.468   6.952  2.0529  0.3774  1.7427
   80CHL1   H4B 8333   0.665   3.582   7.001 -2.5716 -1.1419 -1.0863
   80CHL1    C5 8334   0.743   3.442   7.163  0.4245 -0.8536 -0.0260
   80CHL1    C6 8335   0.755   3.535   7.266 -0.1477 -0.2994  0.3715
   80CHL1    H6 8336   0.732   3.640   7.245  0.4844  0.1276  1.8002
   80CHL1    C7 8337   0.805   3.498   7.400  0.0257 -0.2844 -0.2052
   80CHL1   H7A 8338   0.867   3.577   7.448  0.4743  0.0826 -1.3734
   80CHL1   H7B 8339   0.721   3.499   7.473 -1.6165 -0.3217 -2.0617
   80CHL1    C8 8340   0.887   3.367   7.405  0.5884  0.2210  0.1650
   80CHL1    H8 8341   0.989   3.389   7.367  0.6001  1.6243  0.9755
   80CHL1   C14 8342   0.910   3.324   7.548  0.1292  0.1633  0.0595
   80CHL1   H14 8343   0.807   3.313   7.589 -1.6003  1.8175 -3.6538
   80CHL1   C15 8344   0.972   3.432   7.647 -0.4392 -0.7176  0.0143
   80CHL1  H15A 8345   1.052   3.490   7.596 -0.4788  1.5430  2.4000
   80CHL1  H15B 8346   0.896   3.503   7.686  1.4357  1.9923 -1.1185
   80CHL1   C16 8347   1.027   3.344   7.758  0.4570  0.4961  0.1555
   80CHL1  H16A 8348   1.136   3.368   7.756  0.5859  0.7703  4.7416
   80CHL1  H16B 8349   0.982   3.364   7.857  1.1198  0.8308  0.3954
   80CHL1   C17 8350   0.984   3.196   7.725  0.0945 -0.8570  0.4703
   80CHL1   H17 8351   0.881   3.185   7.766 -0.5877  2.2884 -0.3232
   80CHL1   C13 8352   0.981   3.192   7.571  0.3351  0.2787 -0.9985
   80CHL1   C18 8353   1.123   3.193   7.515  0.9918  0.4594 -0.2490
   80CHL1  H18A 8354   1.180   3.277   7.559 -0.3886  0.8236  0.8957
   80CHL1  H18B 8355   1.171   3.095   7.537 -0.2412 -0.7838 -2.7996
   80CHL1  H18C 8356   1.120   3.209   7.405 -0.4910  1.1516 -0.1199
   80CHL1   C12 8357   0.892   3.083   7.508  0.1285 -0.0922 -0.3687
   80CHL1  H12A 8358   0.935   2.981   7.510  1.2295  0.3565 -0.6563
   80CHL1  H12B 8359   0.797   3.087   7.565 -0.6164  1.3788 -1.6612
   80CHL1   C11 8360   0.856   3.116   7.362  0.2024  0.0679  1.1140
   80CHL1  H11A 8361   0.942   3.087   7.299 -0.1659  3.4761 -1.1072
   80CHL1  H11B 8362   0.769   3.051   7.338  0.8147 -0.5596  0.5774
   80CHL1    C9 8363   0.804   3.258   7.333  0.7288 -0.1900 -0.5196
   80CHL1    H9 8364   0.701   3.261   7.375  0.7723  0.0185 -0.4248
   80CHL1   C10 8365   0.770   3.296   7.183 -0.1843  0.0912 -0.0841
   80CHL1   C19 8366   0.890   3.243   7.099 -0.1751  0.2965 -0.1532
   80CHL1  H19A 8367   0.981   3.297   7.133  0.2215 -0.3038 -0.2650
   80CHL1  H19B 8368   0.886   3.134   7.118 -0.3795  0.4991  1.0173
   80CHL1  H19C 8369   0.883   3.274   6.993  0.7438 -0.1524 -0.3457
   80CHL1    C1 8370   0.637   3.219   7.140  0.0903  0.0080 -0.8300
   80CHL1   H1A 8371   0.651   3.111   7.157 -0.3443  0.3952  2.3808
   80CHL1   H1B 8372   0.551   3.260   7.197 -0.0832  0.6324 -1.5257
   80CHL1    C2 8373   0.586   3.250   7.001  0.0501  0.1796 -0.1626
   80CHL1   H2A 8374   0.493   3.193   6.977  1.0959 -1.6121 -0.0048
   80CHL1   H2B 8375   0.655   3.217   6.921 -0.6901 -0.7639 -0.4289
   80CHL1   C20 8376   1.077   3.096   7.794 -0.4147  0.2174 -0.2806
   80CHL1   H20 8377   1.183   3.124   7.772  0.5804 -2.9376  0.2193
   80CHL1   C21 8378   1.070   2.947   7.759  0.0785  0.5986  0.1662
   80CHL1  H21A 8379   0.965   2.911   7.767  0.0963  0.0102 -1.9161
   80CHL1  H21B 8380   1.130   2.882   7.826  0.1981  1.7541  1.1972
   80CHL1  H21C 8381   1.104   2.929   7.655  1.3351 -1.4449  0.8969
   80CHL1   C22 8382   1.058   3.108   7.947  0.1962  0.0324 -0.7641
   80CHL1  H22A 8383   1.048   3.213   7.984  0.8013  0.6635 -2.3396
   80CHL1  H22B 8384   0.960   3.067   7.980  1.1387  0.7886  3.1558
   80CHL1   C23 8385   1.175   3.049   8.029  0.6639 -0.1748 -0.0465
   80CHL1  H23A 8386   1.173   2.939   8.014 -2.7193  0.0605 -1.8815
   80CHL1  H23B 8387   1.274   3.090   7.998  0.3370 -0.5095 -1.5412
   80CHL1   C24 8388   1.153   3.075   8.181  0.5477 -0.4049 -0.1557
   80CHL1  H24A 8389   1.165   3.181   8.211 -4.2751 -0.3311  1.9400
   80CHL1  H24B 8390   1.050   3.050   8.215  0.3931 -0.3582 -0.5942
   80CHL1   C25 8391   1.250   2.985   8.262 -0.5579  1.2646  0.3864
   80CHL1   H25 8392   1.340   2.967   8.201  1.0616  3.2889  2.1100
   80CHL1   C26 8393   1.298   3.036   8.397 -0.2223  0.1149 -0.4197
   80CHL1  H26A 8394   1.210   3.074   8.454 -0.9529 -1.9255 -0.1466
   80CHL1  H26B 8395   1.350   2.963   8.464  0.8255  0.0520 -1.2940
   80CHL1  H26C 8396   1.378   3.112   8.388  1.3146 -1.5427 -0.8921
   80CHL1   C27 8397   1.199   2.843   8.285 -0.0272 -0.7303  0.3383
   80CHL1  H27A 8398   1.111   2.835   8.352 -1.4896  0.7407 -1.3352
   80CHL1  H27B 8399   1.168   2.788   8.193  2.2294 -0.9430 -0.3245
   80CHL1  H27C 8400   1.278   2.783   8.334 -0.4384  0.5153  2.5744
   81CHL1    C3 8401   5.170   3.508   6.811  0.1718  0.1990 -0.8431
   81CHL1    H3 8402   5.088   3.444   6.851  0.0173  0.4861 -0.6993
   81CHL1    O3 8403   5.208   3.491   6.678 -0.1668  0.1532 -0.3848
   81CHL1   H3' 8404   5.141   3.456   6.619  1.3891  1.0420 -2.7614
   81CHL1    C4 8405   5.109   3.647   6.820 -0.3808 -0.2026 -0.1342
   81CHL1   H4A 8406   5.184   3.722   6.788 -0.4939  1.1509  2.5857
   81CHL1   H4B 8407   5.020   3.667   6.756 -0.0749  3.5168  0.4854
   81CHL1    C5 8408   5.066   3.677   6.962  0.6803 -0.9797  0.2583
   81CHL1    C6 8409   4.935   3.715   6.994  0.0836 -0.2760  0.1161
   81CHL1    H6 8410   4.863   3.727   6.912 -0.4884 -0.5318  0.5768
   81CHL1    C7 8411   4.875   3.739   7.132  0.1503 -0.2201 -0.2403
   81CHL1   H7A 8412   4.819   3.834   7.147 -0.2648 -0.8368  2.1940
   81CHL1   H7B 8413   4.813   3.654   7.165  0.8571 -0.4038  0.6212
   81CHL1    C8 8414   4.990   3.756   7.235  0.1954 -0.4977  0.3048
   81CHL1    H8 8415   5.045   3.853   7.229  0.1656 -0.4791  0.3359
   81CHL1   C14 8416   4.940   3.757   7.377  0.5457  0.2096  0.0517
   81CHL1   H14 8417   4.897   3.657   7.396 -0.2487  0.3921 -0.7395
   81CHL1   C15 8418   4.837   3.856   7.424 -0.1355  0.6859 -0.2087
   81CHL1  H15A 8419   4.861   3.954   7.377 -0.0420  0.9293  0.3398
   81CHL1  H15B 8420   4.740   3.814   7.389  0.3051  0.9739 -1.8215
   81CHL1   C16 8421   4.856   3.857   7.574  0.1996 -0.4418  0.4058
   81CHL1  H16A 8422   4.867   3.961   7.611 -0.2594 -0.2847  0.1041
   81CHL1  H16B 8423   4.763   3.813   7.615 -0.5414 -0.6403 -1.4442
   81CHL1   C17 8424   4.973   3.764   7.618 -0.5563 -0.4193 -0.1002
   81CHL1   H17 8425   4.942   3.661   7.645 -2.4324  0.2841  0.4800
   81CHL1   C13 8426   5.058   3.756   7.484  0.8946 -0.4542  0.6562
   81CHL1   C18 8427   5.139   3.882   7.463 -0.1357  0.6757  0.6731
   81CHL1  H18A 8428   5.180   3.892   7.360 -1.8757  0.6691 -0.0227
   81CHL1  H18B 8429   5.077   3.974   7.471  1.2759  1.6425  0.6695
   81CHL1  H18C 8430   5.222   3.894   7.536  1.7000  0.9181 -1.3932
   81CHL1   C12 8431   5.133   3.625   7.465 -0.2143 -0.4728 -0.3985
   81CHL1  H12A 8432   5.212   3.608   7.542 -0.3974  0.1998 -0.0555
   81CHL1  H12B 8433   5.062   3.542   7.477  0.2731 -0.8008  0.2354
   81CHL1   C11 8434   5.201   3.618   7.328  0.3675 -0.2707  0.1167
   81CHL1  H11A 8435   5.277   3.698   7.327  1.6636 -1.4928 -1.5379
   81CHL1  H11B 8436   5.255   3.521   7.317  2.0567  0.9226 -2.4132
   81CHL1    C9 8437   5.097   3.640   7.214  0.6434 -0.6685 -0.7057
   81CHL1    H9 8438   5.031   3.551   7.221 -0.3720  0.0924 -0.4523
   81CHL1   C10 8439   5.160   3.644   7.068  0.4964  0.4422  0.3471
   81CHL1   C19 8440   5.258   3.765   7.058 -0.5277  0.3085 -0.0213
   81CHL1  H19A 8441   5.341   3.760   7.132  0.6467  1.5988 -1.2074
   81CHL1  H19B 8442   5.315   3.783   6.965 -0.2999  0.2510  0.1078
   81CHL1  H19C 8443   5.207   3.864   7.063  0.4222  0.9824 -2.9171
   81CHL1    C1 8444   5.231   3.508   7.051 -0.3330 -0.5103 -0.1874
   81CHL1   H1A 8445   5.321   3.511   7.117 -0.6542  1.0964  0.2123
   81CHL1   H1B 8446   5.164   3.426   7.085 -0.3691  0.0812  1.2058
   81CHL1    C2 8447   5.289   3.487   6.911 -0.3250  0.4103 -0.2032
   81CHL1   H2A 8448   5.335   3.386   6.902  3.2186  1.9354  0.3221
   81CHL1   H2B 8449   5.376   3.551   6.886  1.5814 -1.0201  2.4936
   81CHL1   C20 8450   5.038   3.817   7.745 -0.4206  0.5388  0.5372
   81CHL1   H20 8451   5.056   3.925   7.722  1.4124 -0.0569 -0.9365
   81CHL1   C21 8452   5.176   3.743   7.771  0.0787  0.3309  0.0723
   81CHL1  H21A 8453   5.227   3.775   7.864 -2.2999  1.5017  1.0073
   81CHL1  H21B 8454   5.246   3.765   7.687 -0.3277  0.8102 -0.1431
   81CHL1  H21C 8455   5.161   3.633   7.774 -0.6289  0.4505  1.0330
   81CHL1   C22 8456   4.944   3.802   7.864 -0.4078 -0.5879  0.5707
   81CHL1  H22A 8457   4.847   3.841   7.826 -0.2388 -0.7343 -0.0195
   81CHL1  H22B 8458   4.943   3.694   7.891  1.1293 -1.4340 -2.4790
   81CHL1   C23 8459   4.991   3.879   7.984 -0.3791  0.3787 -0.2809
   81CHL1  H23A 8460   5.093   3.845   8.012 -1.1906 -3.5663 -1.8661
   81CHL1  H23B 8461   5.008   3.987   7.961 -0.5090  0.6426  0.8132
   81CHL1   C24 8462   4.878   3.874   8.092  0.1590  0.1021 -0.5682
   81CHL1  H24A 8463   4.792   3.915   8.035  1.1995  3.4357  0.1486
   81CHL1  H24B 8464   4.862   3.765   8.108 -0.8347  0.4926  1.3334
   81CHL1   C25 8465   4.906   3.956   8.218  0.6591  0.0235  0.3817
   81CHL1   H25 8466   4.991   3.907   8.270  0.7168 -1.3316 -0.9753
   81CHL1   C26 8467   4.945   4.104   8.194  0.4730  0.5119  0.3320
   81CHL1  H26A 8468   5.048   4.115   8.155  0.7250 -0.7541  0.5874
   81CHL1  H26B 8469   4.868   4.150   8.128 -0.0530  0.9153  1.2281
   81CHL1  H26C 8470   4.923   4.165   8.284  1.1934  1.4758 -0.1423
   81CHL1   C27 8471   4.789   3.954   8.326  0.1321  0.7660 -0.1400
   81CHL1  H27A 8472   4.728   3.861   8.325  0.5435  0.4920 -1.8536
   81CHL1  H27B 8473   4.831   3.981   8.425  1.3422 -4.0286  0.7568
   81CHL1  H27C 8474   4.730   4.044   8.300 -0.5260  0.4958  0.4009
   82CHL1    C3 8475   6.256   4.256   7.063 -0.0351 -0.1781  0.3091
   82CHL1    H3 8476   6.334   4.308   7.122 -2.6192  2.2985  1.6653
   82CHL1    O3 8477   6.279   4.278   6.920 -0.0233  0.4429  0.3985
   82CHL1   H3' 8478   6.204   4.327   6.886 -1.9103 -1.1891  1.9994
   82CHL1    C4 8479   6.260   4.106   7.075 -0.5456 -0.1349  0.3107
   82CHL1   H4A 8480   6.182   4.061   7.011  0.6621  0.3494 -1.5248
   82CHL1   H4B 8481   6.356   4.076   7.028 -0.3606  0.3227  0.3927
   82CHL1    C5 8482   6.237   4.060   7.222  0.5231  0.1383 -0.1478
   82CHL1    C6 8483   6.317   3.982   7.291  0.5025 -0.3136 -0.4961
   82CHL1    H6 8484   6.405   3.954   7.231  1.4529  0.3720  0.5472
   82CHL1    C7 8485   6.300   3.921   7.433 -0.2143 -0.7574  0.0102
   82CHL1   H7A 8486   6.309   3.811   7.439 -0.1079 -0.8568 -1.7527
   82CHL1   H7B 8487   6.382   3.966   7.493  0.6902 -1.0867 -0.9519
   82CHL1    C8 8488   6.159   3.958   7.484  0.0931  0.0940  0.0139
   82CHL1    H8 8489   6.091   3.880   7.442  1.2552  0.5053 -2.6576
   82CHL1   C14 8490   6.155   3.949   7.629  0.7132 -0.0614 -0.1376
   82CHL1   H14 8491   6.219   4.033   7.664  0.4114  1.1998 -2.4921
   82CHL1   C15 8492   6.217   3.831   7.704 -0.1959  0.2294  0.4811
   82CHL1  H15A 8493   6.180   3.739   7.654 -2.6576  2.1351 -1.3068
   82CHL1  H15B 8494   6.328   3.824   7.693 -0.5319 -3.2293 -1.3593
   82CHL1   C16 8495   6.167   3.840   7.852  0.4640  0.3726  0.1175
   82CHL1  H16A 8496   6.120   3.743   7.880  1.0066  0.1367  0.2188
   82CHL1  H16B 8497   6.256   3.850   7.919 -0.0426 -0.4403  0.9255
   82CHL1   C17 8498   6.067   3.959   7.850 -0.1180 -0.0705  0.1087
   82CHL1   H17 8499   6.119   4.055   7.869 -0.7166  0.3536 -0.3924
   82CHL1   C13 8500   6.023   3.979   7.703  0.2733  0.4150  0.2319
   82CHL1   C18 8501   5.916   3.865   7.665  0.4772  0.0384  0.4953
   82CHL1  H18A 8502   5.817   3.870   7.715  0.0368  0.3963 -0.3966
   82CHL1  H18B 8503   5.886   3.865   7.558 -2.0164  2.5657  1.1570
   82CHL1  H18C 8504   5.945   3.765   7.705  0.4269 -0.1022  0.1798
   82CHL1   C12 8505   5.957   4.111   7.660 -0.3758  0.4831  0.5026
   82CHL1  H12A 8506   5.848   4.106   7.683 -0.9919  2.7502 -1.7303
   82CHL1  H12B 8507   6.005   4.197   7.711  4.0141 -1.1933 -0.6187
   82CHL1   C11 8508   5.962   4.123   7.509  0.0052 -0.4452  0.0563
   82CHL1  H11A 8509   5.897   4.052   7.454 -0.6092  0.8123 -0.8608
   82CHL1  H11B 8510   5.920   4.220   7.475  0.5085 -0.2838 -0.1091
   82CHL1    C9 8511   6.106   4.098   7.449  0.4039  0.3970  0.1989
   82CHL1    H9 8512   6.180   4.170   7.490  0.1879  0.1886  0.9651
   82CHL1   C10 8513   6.109   4.114   7.288  0.2248 -0.4212  0.8146
   82CHL1   C19 8514   5.992   4.035   7.224  0.0197  0.2120  1.5200
   82CHL1  H19A 8515   5.994   3.929   7.258 -2.8461 -0.4872 -0.3565
   82CHL1  H19B 8516   5.897   4.092   7.228  0.9184  2.0658 -1.7220
   82CHL1  H19C 8517   6.011   4.023   7.115 -4.2705 -0.0519  0.7292
   82CHL1    C1 8518   6.095   4.267   7.259  0.1027 -0.4197 -0.2481
   82CHL1   H1A 8519   5.997   4.303   7.297  0.6962  1.4533 -0.4137
   82CHL1   H1B 8520   6.168   4.307   7.333 -0.6149 -2.7550  1.7916
   82CHL1    C2 8521   6.118   4.307   7.112 -0.1296  0.0875 -0.1766
   82CHL1   H2A 8522   6.132   4.417   7.108 -0.1929  0.0654 -1.1895
   82CHL1   H2B 8523   6.032   4.281   7.047 -0.7757 -1.5345  1.2920
   82CHL1   C20 8524   5.966   3.957   7.964 -0.4856 -0.5237 -0.3852
   82CHL1   H20 8525   5.893   3.876   7.944 -0.5009 -1.4196  2.9624
   82CHL1   C21 8526   5.876   4.083   7.986  0.0353  0.3249  0.2752
   82CHL1  H21A 8527   5.814   4.098   7.895 -1.4065 -1.1488  1.0003
   82CHL1  H21B 8528   5.937   4.176   7.993  0.6749  0.2390 -3.0314
   82CHL1  H21C 8529   5.818   4.076   8.080 -0.1034 -1.7213  0.0450
   82CHL1   C22 8530   6.029   3.918   8.105  0.6276  0.5340  0.2657
   82CHL1  H22A 8531   5.944   3.893   8.172 -0.8158 -0.2905 -1.8475
   82CHL1  H22B 8532   6.085   3.823   8.090 -0.1213 -0.2091  2.0413
   82CHL1   C23 8533   6.132   4.019   8.162  0.0164  0.3879  0.2039
   82CHL1  H23A 8534   6.207   4.027   8.080  0.4739 -0.2745  0.5579
   82CHL1  H23B 8535   6.085   4.119   8.165  1.9927  1.4383 -1.8640
   82CHL1   C24 8536   6.179   3.994   8.306 -0.4909  0.1633  0.0443
   82CHL1  H24A 8537   6.254   4.072   8.331  1.5266 -1.3634 -1.0600
   82CHL1  H24B 8538   6.091   4.007   8.373 -0.4053  1.7584 -0.1391
   82CHL1   C25 8539   6.233   3.854   8.333  0.2565 -0.4562 -0.5861
   82CHL1   H25 8540   6.157   3.775   8.314 -0.9377  0.5072  0.1064
   82CHL1   C26 8541   6.360   3.824   8.246  0.4366 -0.6913 -0.1428
   82CHL1  H26A 8542   6.324   3.808   8.143 -0.0414  0.8895 -0.2399
   82CHL1  H26B 8543   6.429   3.911   8.241  0.2555 -0.4597  1.1881
   82CHL1  H26C 8544   6.412   3.733   8.284  0.1645 -0.4017  0.9575
   82CHL1   C27 8545   6.252   3.837   8.486  0.2712  0.1129  0.0461
   82CHL1  H27A 8546   6.154   3.860   8.533 -0.3691 -0.5104 -0.9649
   82CHL1  H27B 8547   6.273   3.731   8.512 -2.7174 -0.6090 -0.2914
   82CHL1  H27C 8548   6.331   3.906   8.521  0.6795  0.2937 -1.1822
   83CHL1    C3 8549   2.458   5.604   6.915 -0.7202 -0.5429 -0.0620
   83CHL1    H3 8550   2.458   5.715   6.919 -3.8347 -0.4811 -0.3001
   83CHL1    O3 8551   2.479   5.546   6.788  0.0093  0.0147 -0.4258
   83CHL1   H3' 8552   2.404   5.487   6.778 -1.2369  1.0580  2.1898
   83CHL1    C4 8553   2.565   5.545   7.008 -0.0656  0.5081 -0.8553
   83CHL1   H4A 8554   2.553   5.436   6.988 -2.4880  0.4111  0.8370
   83CHL1   H4B 8555   2.668   5.571   6.978  0.3347  0.7613  0.7122
   83CHL1    C5 8556   2.547   5.578   7.160  0.3303 -0.4634  0.3951
   83CHL1    C6 8557   2.648   5.633   7.230 -0.8657 -0.2761  0.6861
   83CHL1    H6 8558   2.739   5.649   7.171 -0.6242 -1.5120  0.6975
   83CHL1    C7 8559   2.652   5.655   7.377  0.0085 -0.6803  0.0798
   83CHL1   H7A 8560   2.741   5.607   7.422 -0.5964 -0.3796  1.6176
   83CHL1   H7B 8561   2.649   5.763   7.405 -2.3582 -1.0614  1.4442
   83CHL1    C8 8562   2.532   5.588   7.439 -0.3742 -0.1606 -0.5630
   83CHL1    H8 8563   2.557   5.481   7.455  0.9259  0.1116 -0.6758
   83CHL1   C14 8564   2.506   5.650   7.574 -0.2092 -0.3542 -0.5688
   83CHL1   H14 8565   2.473   5.755   7.561 -0.6300 -0.4088  0.0330
   83CHL1   C15 8566   2.629   5.657   7.670 -0.1715 -0.3190  0.0476
   83CHL1  H15A 8567   2.690   5.567   7.648 -2.2955 -1.9009  0.4468
   83CHL1  H15B 8568   2.694   5.746   7.653  0.2714 -0.6708 -0.0954
   83CHL1   C16 8569   2.573   5.663   7.806 -0.4191 -0.6114  0.0574
   83CHL1  H16A 8570   2.610   5.573   7.860  0.4607 -0.4095 -0.2013
   83CHL1  H16B 8571   2.605   5.755   7.860 -1.6391  0.1372 -0.4799
   83CHL1   C17 8572   2.415   5.665   7.790 -0.7029 -1.2536  0.3113
   83CHL1   H17 8573   2.385   5.772   7.786  1.0135 -0.7944 -1.2330
   83CHL1   C13 8574   2.392   5.590   7.654 -0.1191  0.4563 -0.1213
   83CHL1   C18 8575   2.399   5.442   7.664 -0.6646 -0.8134 -0.0522
   83CHL1  H18A 8576   2.377   5.390   7.568 -1.7506 -0.3855 -0.0463
   83CHL1  H18B 8577   2.502   5.416   7.696 -0.4634  0.7729  0.6695
   83CHL1  H18C 8578   2.332   5.390   7.736 -0.1504 -1.3232  0.0602
   83CHL1   C12 8579   2.259   5.618   7.586  0.2473  0.8268  0.3348
   83CHL1  H12A 8580   2.180   5.570   7.648  1.0114 -3.2648 -1.6994
   83CHL1  H12B 8581   2.241   5.727   7.596 -0.5553  0.7958 -0.6408
   83CHL1   C11 8582   2.262   5.578   7.437 -0.4961  0.4246  0.0511
   83CHL1  H11A 8583   2.245   5.469   7.425 -0.3232  0.3437  0.5153
   83CHL1  H11B 8584   2.178   5.631   7.387  0.6730  1.4463 -0.8649
   83CHL1    C9 8585   2.398   5.612   7.361  0.0239 -0.7666 -0.1516
   83CHL1    H9 8586   2.392   5.722   7.345 -2.3094 -0.5879  1.6745
   83CHL1   C10 8587   2.408   5.549   7.220 -0.4172  0.2571 -0.3139
   83CHL1   C19 8588   2.386   5.398   7.231  0.5175  0.5720  0.7368
   83CHL1  H19A 8589   2.281   5.369   7.250  0.4936 -2.0168 -2.8486
   83CHL1  H19B 8590   2.404   5.337   7.141 -2.5061  1.1127 -0.2981
   83CHL1  H19C 8591   2.450   5.361   7.314  1.0513  0.9864  0.5133
   83CHL1    C1 8592   2.307   5.611   7.121 -0.6112 -0.3464 -0.3381
   83CHL1   H1A 8593   2.208   5.600   7.171  0.6168 -0.2577  2.1838
   83CHL1   H1B 8594   2.328   5.720   7.119 -1.0097 -0.2866 -2.3342
   83CHL1    C2 8595   2.321   5.567   6.976 -0.4635  0.1632  0.2113
   83CHL1   H2A 8596   2.251   5.622   6.909 -0.6139 -0.0000  0.2358
   83CHL1   H2B 8597   2.286   5.462   6.976  2.8564 -1.0666 -2.2753
   83CHL1   C20 8598   2.355   5.608   7.916  0.5699 -0.7905  0.1422
   83CHL1   H20 8599   2.396   5.505   7.915  1.9800 -0.2462 -0.1466
   83CHL1   C21 8600   2.196   5.625   7.923  0.4998 -0.1885 -0.3655
   83CHL1  H21A 8601   2.159   5.579   8.017  3.1978 -1.3538  0.1849
   83CHL1  H21B 8602   2.149   5.566   7.842  2.3443 -0.0719 -1.5684
   83CHL1  H21C 8603   2.158   5.729   7.911 -1.1633 -0.3284  3.0831
   83CHL1   C22 8604   2.413   5.678   8.046 -0.0872 -0.5141 -0.9038
   83CHL1  H22A 8605   2.522   5.664   8.059 -0.4153  0.3747  3.5369
   83CHL1  H22B 8606   2.401   5.788   8.046  0.9567 -0.4013  0.0858
   83CHL1   C23 8607   2.361   5.626   8.185  0.5219  0.9652  0.3214
   83CHL1  H23A 8608   2.254   5.654   8.191 -0.5192 -2.2412 -1.7800
   83CHL1  H23B 8609   2.367   5.516   8.197  0.1001  1.0424  1.2397
   83CHL1   C24 8610   2.430   5.693   8.302  0.2135 -0.3775  0.6914
   83CHL1  H24A 8611   2.538   5.678   8.278  0.1551 -0.0780  0.2201
   83CHL1  H24B 8612   2.404   5.801   8.295  1.2170 -0.1194  0.9126
   83CHL1   C25 8613   2.386   5.631   8.440 -0.7548  0.4301  0.0504
   83CHL1   H25 8614   2.443   5.683   8.519 -0.3104 -1.6622  1.1607
   83CHL1   C26 8615   2.242   5.641   8.483  0.1973 -0.1292 -0.0974
   83CHL1  H26A 8616   2.184   5.573   8.418 -1.7845  1.5015 -0.0725
   83CHL1  H26B 8617   2.234   5.607   8.588 -0.4199 -0.1726 -0.1593
   83CHL1  H26C 8618   2.198   5.742   8.467  2.9116  1.7031  3.3090
   83CHL1   C27 8619   2.433   5.486   8.458 -0.1234 -0.5568 -0.0055
   83CHL1  H27A 8620   2.391   5.429   8.372 -4.1745 -0.6813  1.9201
   83CHL1  H27B 8621   2.544   5.484   8.464 -0.1510 -0.5543  0.4928
   83CHL1  H27C 8622   2.396   5.437   8.551 -1.0928  0.0572 -0.0613
   84CHL1    C3 8623   4.725   2.076   6.972  0.2879 -0.3498  0.6042
   84CHL1    H3 8624   4.663   2.168   6.972  1.0477  0.1780 -0.9808
   84CHL1    O3 8625   4.740   2.025   6.837  0.0641 -0.0755  0.4533
   84CHL1   H3' 8626   4.677   1.958   6.812  0.0915  0.7421 -2.0090
   84CHL1    C4 8627   4.863   2.109   7.030 -0.1168 -0.4450 -0.2288
   84CHL1   H4A 8628   4.932   2.023   7.021  0.7523  0.0833  1.2462
   84CHL1   H4B 8629   4.896   2.200   6.974 -1.0607  0.2540  0.3233
   84CHL1    C5 8630   4.853   2.148   7.175 -0.1343  0.0128  0.0536
   84CHL1    C6 8631   4.926   2.246   7.229 -0.3376 -0.3220  0.7195
   84CHL1    H6 8632   4.989   2.292   7.152  0.4731 -0.2282  1.4424
   84CHL1    C7 8633   4.934   2.287   7.375  0.0793  0.4624  0.8616
   84CHL1   H7A 8634   5.040   2.309   7.400 -0.0567  0.5691  1.3554
   84CHL1   H7B 8635   4.872   2.378   7.381 -0.7709 -0.0537 -0.0189
   84CHL1    C8 8636   4.858   2.180   7.464  0.0064  0.3239 -0.0834
   84CHL1    H8 8637   4.931   2.097   7.473 -1.3771 -1.0012 -0.8384
   84CHL1   C14 8638   4.830   2.237   7.604 -0.1854  0.1937  0.3863
   84CHL1   H14 8639   4.748   2.308   7.582 -0.4258  0.2158  1.3723
   84CHL1   C15 8640   4.939   2.316   7.678 -0.3451  0.1634  0.1633
   84CHL1  H15A 8641   5.028   2.254   7.702  0.3857  1.1516  0.0248
   84CHL1  H15B 8642   4.967   2.407   7.621 -0.9039  1.6134  2.1443
   84CHL1   C16 8643   4.877   2.346   7.812  0.0549  0.0104  0.2868
   84CHL1  H16A 8644   4.941   2.340   7.903 -0.9497 -1.7171  0.8991
   84CHL1  H16B 8645   4.822   2.443   7.815 -0.3411 -0.2256  0.7963
   84CHL1   C17 8646   4.757   2.241   7.820 -0.0891  0.1525 -0.5382
   84CHL1   H17 8647   4.665   2.301   7.805  0.1444  0.7586  0.4270
   84CHL1   C13 8648   4.769   2.145   7.702  0.6739  0.0426 -0.0017
   84CHL1   C18 8649   4.864   2.028   7.739  0.3010  0.3750 -0.1274
   84CHL1  H18A 8650   4.901   1.972   7.651  0.6814  0.5273 -0.0618
   84CHL1  H18B 8651   4.950   2.074   7.791 -1.2317  3.7011 -0.3902
   84CHL1  H18C 8652   4.827   1.946   7.804  1.0778  0.2289  0.1352
   84CHL1   C12 8653   4.633   2.092   7.641 -0.3262  0.8062 -0.5160
   84CHL1  H12A 8654   4.592   2.012   7.706 -0.2713  0.4919 -0.8663
   84CHL1  H12B 8655   4.561   2.177   7.647 -1.0985  0.0322  1.5783
   84CHL1   C11 8656   4.651   2.033   7.498  0.3643 -0.5051 -0.0234
   84CHL1  H11A 8657   4.711   1.942   7.518 -0.5475 -0.6018  2.3896
   84CHL1  H11B 8658   4.551   2.002   7.458  0.6495 -1.5290  0.0474
   84CHL1    C9 8659   4.736   2.124   7.403 -0.5019  0.4139 -0.1534
   84CHL1    H9 8660   4.670   2.211   7.387 -0.4937  0.4510  0.0108
   84CHL1   C10 8661   4.760   2.061   7.267 -0.1964  0.3908  0.0696
   84CHL1   C19 8662   4.830   1.919   7.284 -0.4238 -0.4509  0.3288
   84CHL1  H19A 8663   4.924   1.919   7.343 -0.7225 -1.1682  0.8138
   84CHL1  H19B 8664   4.754   1.850   7.327 -0.9424 -0.0002  0.1476
   84CHL1  H19C 8665   4.848   1.868   7.188  0.2558  1.8829 -0.8225
   84CHL1    C1 8666   4.619   2.043   7.200 -0.2192  0.3043  0.0662
   84CHL1   H1A 8667   4.561   1.971   7.261 -2.1148  0.9749 -0.9241
   84CHL1   H1B 8668   4.563   2.139   7.202  1.2474  1.1952 -0.8992
   84CHL1    C2 8669   4.636   1.989   7.056 -0.3945 -0.2156 -1.1879
   84CHL1   H2A 8670   4.535   1.980   7.011 -0.6920 -0.5387 -0.4678
   84CHL1   H2B 8671   4.661   1.882   7.042  2.1646 -0.5020  4.0454
   84CHL1   C20 8672   4.733   2.173   7.963  0.8734  0.1924  0.2272
   84CHL1   H20 8673   4.824   2.111   7.973  1.2980  0.9101  0.8948
   84CHL1   C21 8674   4.609   2.079   7.961  0.2163 -0.5697 -0.2300
   84CHL1  H21A 8675   4.581   2.040   8.062 -0.1995  0.5949  0.1124
   84CHL1  H21B 8676   4.625   1.995   7.891 -0.6226  0.7722 -2.0640
   84CHL1  H21C 8677   4.519   2.129   7.919 -0.3756 -1.8159 -0.4919
   84CHL1   C22 8678   4.730   2.263   8.092  0.3109  1.2629  0.0300
   84CHL1  H22A 8679   4.783   2.358   8.070  2.7141 -0.4067 -1.6340
   84CHL1  H22B 8680   4.624   2.293   8.108 -0.2166  0.5801 -2.0541
   84CHL1   C23 8681   4.779   2.189   8.217  0.2693  0.2483  0.0288
   84CHL1  H23A 8682   4.697   2.121   8.251 -0.3522  1.8050  1.7462
   84CHL1  H23B 8683   4.870   2.131   8.191  0.8307  0.5936  1.1707
   84CHL1   C24 8684   4.823   2.267   8.339  0.1231  0.6979  0.3261
   84CHL1  H24A 8685   4.886   2.346   8.294  0.2298 -0.2544 -1.2512
   84CHL1  H24B 8686   4.738   2.301   8.402  0.2699  0.2424  0.7706
   84CHL1   C25 8687   4.891   2.181   8.453 -0.0849 -0.3355  0.0852
   84CHL1   H25 8688   4.970   2.127   8.396 -0.0967 -0.9754  0.6653
   84CHL1   C26 8689   4.959   2.261   8.569  0.6831 -0.7568  0.1242
   84CHL1  H26A 8690   4.887   2.295   8.647  0.1029 -0.8674 -0.3594
   84CHL1  H26B 8691   5.041   2.211   8.624  2.1753  0.5183 -0.9207
   84CHL1  H26C 8692   5.004   2.354   8.529 -2.5165  0.5612 -0.5677
   84CHL1   C27 8693   4.797   2.086   8.519 -0.2239 -0.7260 -0.2823
   84CHL1  H27A 8694   4.858   2.019   8.583  0.8179  3.4272  3.3739
   84CHL1  H27B 8695   4.723   2.148   8.575  2.1543  3.3361 -1.3939
   84CHL1  H27C 8696   4.742   2.031   8.440 -0.6172  1.4271 -1.5608
   85CHL1    C3 8697   3.967   5.637   6.834 -0.7118 -0.0659  0.3981
   85CHL1    H3 8698   3.891   5.577   6.888 -0.1348 -0.2035  1.0518
   85CHL1    O3 8699   3.934   5.644   6.699  0.1431  0.4323 -0.5155
   85CHL1   H3' 8700   3.870   5.716   6.691  0.5096  0.5339 -2.7391
   85CHL1    C4 8701   3.988   5.783   6.879 -0.3513  0.3210 -0.0517
   85CHL1   H4A 8702   4.067   5.833   6.819 -0.9752  0.6275 -0.6179
   85CHL1   H4B 8703   3.888   5.831   6.874 -1.1247 -1.1611  0.7941
   85CHL1    C5 8704   4.036   5.772   7.024  0.1031  0.5906  0.4569
   85CHL1    C6 8705   3.966   5.825   7.126  0.2187  0.4716  0.8959
   85CHL1    H6 8706   3.869   5.873   7.106  0.0705  0.7528  2.2120
   85CHL1    C7 8707   4.007   5.837   7.271 -0.0467 -0.1338  0.1153
   85CHL1   H7A 8708   3.996   5.936   7.320 -0.4612 -1.0969  2.0541
   85CHL1   H7B 8709   3.953   5.764   7.336 -1.1980  1.2684  0.7557
   85CHL1    C8 8710   4.162   5.807   7.283 -0.2046 -0.6503 -0.4749
   85CHL1    H8 8711   4.216   5.896   7.244  1.4854 -1.1436  0.6965
   85CHL1   C14 8712   4.204   5.782   7.427  0.1570 -0.3435  1.0218
   85CHL1   H14 8713   4.163   5.686   7.465 -2.6748  0.1593 -0.5572
   85CHL1   C15 8714   4.156   5.892   7.532  0.0486  0.5707  0.2355
   85CHL1  H15A 8715   4.179   5.991   7.488 -2.5836  0.7174 -0.8698
   85CHL1  H15B 8716   4.048   5.868   7.535  0.0407  0.6066  0.2280
   85CHL1   C16 8717   4.233   5.860   7.658  0.2028 -0.8808 -0.0014
   85CHL1  H16A 8718   4.281   5.954   7.692 -0.0528 -0.7119 -0.1075
   85CHL1  H16B 8719   4.165   5.812   7.731  1.4045 -0.4788  1.3923
   85CHL1   C17 8720   4.345   5.755   7.606  0.2517 -0.2251 -0.4241
   85CHL1   H17 8721   4.290   5.661   7.628 -1.1715 -0.0010 -2.9578
   85CHL1   C13 8722   4.350   5.757   7.448 -0.5009  0.1949 -0.1305
   85CHL1   C18 8723   4.440   5.876   7.415 -0.2966  0.2954  0.1700
   85CHL1  H18A 8724   4.541   5.848   7.451 -0.4161  0.6815  0.8203
   85CHL1  H18B 8725   4.447   5.906   7.308  0.5786 -1.4841 -0.2880
   85CHL1  H18C 8726   4.415   5.975   7.461 -0.1809  0.5828 -0.3867
   85CHL1   C12 8727   4.384   5.626   7.370 -0.1935 -0.1799 -0.4717
   85CHL1  H12A 8728   4.493   5.607   7.381 -0.0405  1.1633  0.4626
   85CHL1  H12B 8729   4.326   5.540   7.411  0.7454 -0.1110  1.0641
   85CHL1   C11 8730   4.355   5.651   7.220  0.0873 -0.2652  0.3584
   85CHL1  H11A 8731   4.426   5.728   7.184  1.2380 -1.8484 -0.8052
   85CHL1  H11B 8732   4.386   5.555   7.175 -0.1941 -0.7961  1.2736
   85CHL1    C9 8733   4.211   5.692   7.196 -0.3202  0.0939  0.0511
   85CHL1    H9 8734   4.150   5.606   7.230 -0.3470 -0.2930 -0.9766
   85CHL1   C10 8735   4.177   5.705   7.042  0.5151  0.2409 -0.6828
   85CHL1   C19 8736   4.288   5.794   6.976  0.0794  0.6653 -0.3096
   85CHL1  H19A 8737   4.252   5.829   6.877 -2.1513 -0.5418  0.0378
   85CHL1  H19B 8738   4.309   5.889   7.030  1.5935  1.2026 -1.8032
   85CHL1  H19C 8739   4.385   5.741   6.967 -0.9048 -1.2022  0.0004
   85CHL1    C1 8740   4.155   5.562   6.980 -0.3219  0.1837 -0.4125
   85CHL1   H1A 8741   4.243   5.496   6.998 -0.2912  0.2498 -0.3250
   85CHL1   H1B 8742   4.075   5.518   7.043 -0.0970  0.0959 -0.1881
   85CHL1    C2 8743   4.096   5.559   6.839  0.3026 -0.5569 -0.0207
   85CHL1   H2A 8744   4.089   5.451   6.812 -1.9602 -0.6224  0.6984
   85CHL1   H2B 8745   4.169   5.614   6.778  2.7251 -0.9805  2.3768
   85CHL1   C20 8746   4.473   5.747   7.689  0.0047  0.2956 -0.2415
   85CHL1   H20 8747   4.539   5.834   7.668 -1.3590  1.3967 -0.0531
   85CHL1   C21 8748   4.547   5.616   7.655  0.5854 -0.3173 -0.2283
   85CHL1  H21A 8749   4.602   5.572   7.741  0.2034 -0.3006  0.0245
   85CHL1  H21B 8750   4.618   5.635   7.572  1.3285 -2.3903 -0.0939
   85CHL1  H21C 8751   4.478   5.541   7.611  1.0476 -2.4931  2.6106
   85CHL1   C22 8752   4.430   5.737   7.838  0.7454 -0.0561  0.1203
   85CHL1  H22A 8753   4.370   5.828   7.856  3.9871  2.0255  0.7579
   85CHL1  H22B 8754   4.371   5.643   7.846  0.4202 -0.1833 -3.1940
   85CHL1   C23 8755   4.538   5.767   7.944 -0.1802  0.1615  0.1515
   85CHL1  H23A 8756   4.616   5.689   7.932  1.2865  1.6517 -0.0782
   85CHL1  H23B 8757   4.569   5.871   7.922 -2.3134  0.1917 -3.0126
   85CHL1   C24 8758   4.494   5.769   8.096 -0.2621 -0.2608  0.2916
   85CHL1  H24A 8759   4.451   5.870   8.108  1.0891  0.0158  3.1558
   85CHL1  H24B 8760   4.406   5.702   8.108 -1.0581  0.8412  0.6291
   85CHL1   C25 8761   4.602   5.735   8.199  0.3093 -0.0892 -0.9163
   85CHL1   H25 8762   4.688   5.805   8.191  2.0257 -1.9135  0.9365
   85CHL1   C26 8763   4.560   5.773   8.349  0.3027  0.3196 -0.6827
   85CHL1  H26A 8764   4.514   5.874   8.358 -1.8253 -0.7345  1.0309
   85CHL1  H26B 8765   4.474   5.713   8.387  0.1496  1.1589  0.3278
   85CHL1  H26C 8766   4.643   5.766   8.423 -1.2736 -0.1763  1.0773
   85CHL1   C27 8767   4.664   5.594   8.187  0.5929 -0.4166  0.0498
   85CHL1  H27A 8768   4.602   5.504   8.164  0.4811 -0.4957  0.6677
   85CHL1  H27B 8769   4.742   5.613   8.110  2.5956  1.6097  2.5096
   85CHL1  H27C 8770   4.731   5.575   8.273  0.6003  0.5029  0.2554
   86CHL1    C3 8771   6.504   3.414   7.067  0.3916  0.5980  0.5888
   86CHL1    H3 8772   6.394   3.424   7.069  0.1423 -1.4176 -0.6095
   86CHL1    O3 8773   6.547   3.430   6.937 -0.8564  0.3107  0.1988
   86CHL1   H3' 8774   6.640   3.408   6.940 -0.5046  0.9188 -3.3883
   86CHL1    C4 8775   6.566   3.515   7.149 -0.5502  0.1991 -0.3363
   86CHL1   H4A 8776   6.675   3.502   7.134 -0.1573  2.5739  0.1305
   86CHL1   H4B 8777   6.537   3.617   7.115 -0.7614  0.2535  0.0009
   86CHL1    C5 8778   6.530   3.500   7.292 -0.0266 -0.2442 -0.0589
   86CHL1    C6 8779   6.476   3.597   7.373  0.4472  0.4018  0.7103
   86CHL1    H6 8780   6.459   3.698   7.334 -1.2010 -0.1898 -0.1626
   86CHL1    C7 8781   6.445   3.584   7.523  0.7819 -0.6841 -0.1254
   86CHL1   H7A 8782   6.500   3.665   7.574 -0.1050 -0.9837  1.3471
   86CHL1   H7B 8783   6.335   3.590   7.541  0.8293 -1.2833  0.3948
   86CHL1    C8 8784   6.511   3.466   7.593 -0.6061 -0.4361  0.1435
   86CHL1    H8 8785   6.620   3.487   7.598 -0.3021 -1.3010 -2.1589
   86CHL1   C14 8786   6.454   3.438   7.730  0.4063 -0.4881 -0.1908
   86CHL1   H14 8787   6.350   3.406   7.710  0.8500 -0.8981 -1.8537
   86CHL1   C15 8788   6.440   3.557   7.829  0.3284  0.2276 -0.2000
   86CHL1  H15A 8789   6.536   3.613   7.823 -0.6122  1.8776  0.0727
   86CHL1  H15B 8790   6.365   3.625   7.785 -1.1323 -0.3869  1.2950
   86CHL1   C16 8791   6.420   3.492   7.962  0.1796  1.0125  0.3476
   86CHL1  H16A 8792   6.508   3.516   8.025  0.6166 -0.1890  0.2228
   86CHL1  H16B 8793   6.326   3.517   8.015 -0.6469 -1.1800  0.0009
   86CHL1   C17 8794   6.417   3.333   7.931  0.3234 -0.2594 -0.1204
   86CHL1   H17 8795   6.310   3.310   7.911  0.8662 -0.3720 -3.0956
   86CHL1   C13 8796   6.500   3.314   7.805 -0.0709 -0.1154 -0.2141
   86CHL1   C18 8797   6.654   3.322   7.837  0.6089  0.1329 -0.0131
   86CHL1  H18A 8798   6.711   3.366   7.753  0.5449 -2.2524 -1.3481
   86CHL1  H18B 8799   6.672   3.394   7.920 -1.9533 -0.0145  0.7045
   86CHL1  H18C 8800   6.702   3.224   7.858 -0.1216 -0.1707  0.2731
   86CHL1   C12 8801   6.469   3.191   7.723  0.0809  0.1674  0.2659
   86CHL1  H12A 8802   6.510   3.095   7.761  0.1530 -0.0995 -0.4658
   86CHL1  H12B 8803   6.359   3.182   7.729  0.3592 -1.0415  4.7651
   86CHL1   C11 8804   6.524   3.207   7.580 -0.3290  0.3755 -0.3219
   86CHL1  H11A 8805   6.635   3.198   7.588 -0.3426 -0.7090 -1.2579
   86CHL1  H11B 8806   6.485   3.122   7.519 -1.1228  1.1468 -0.9087
   86CHL1    C9 8807   6.488   3.341   7.503 -0.8745  0.1807  0.1979
   86CHL1    H9 8808   6.378   3.329   7.490 -0.9248 -0.0636  0.8627
   86CHL1   C10 8809   6.561   3.365   7.363  0.2603  0.6291  0.0686
   86CHL1   C19 8810   6.714   3.355   7.385 -0.4359  0.3495 -0.5100
   86CHL1  H19A 8811   6.745   3.264   7.439 -1.1750 -0.4579 -1.4232
   86CHL1  H19B 8812   6.777   3.356   7.293 -0.9046  0.1166 -0.8339
   86CHL1  H19C 8813   6.754   3.437   7.448  1.0119 -0.6122 -0.1678
   86CHL1    C1 8814   6.500   3.257   7.263 -0.0032  0.5054  0.3100
   86CHL1   H1A 8815   6.525   3.153   7.290 -0.5641  0.7951  2.0073
   86CHL1   H1B 8816   6.391   3.265   7.281  0.1240  2.4398  0.3597
   86CHL1    C2 8817   6.536   3.274   7.115  0.3611  0.2856 -0.0239
   86CHL1   H2A 8818   6.474   3.198   7.063  0.0510  1.0009 -0.7121
   86CHL1   H2B 8819   6.645   3.256   7.103 -0.0116 -0.6938 -2.2309
   86CHL1   C20 8820   6.460   3.258   8.057 -0.6144  0.3645 -0.3166
   86CHL1   H20 8821   6.568   3.265   8.080 -0.5103  1.9872 -1.2085
   86CHL1   C21 8822   6.437   3.113   8.039 -1.0164  0.5151  0.1493
   86CHL1  H21A 8823   6.433   3.062   8.138 -0.2781 -1.0059 -0.5791
   86CHL1  H21B 8824   6.524   3.064   7.989  0.5703  3.0077  0.4117
   86CHL1  H21C 8825   6.340   3.107   7.985 -1.7617  0.7286  1.4477
   86CHL1   C22 8826   6.389   3.295   8.189  0.0590  0.2740  0.5215
   86CHL1  H22A 8827   6.365   3.404   8.191  0.7883  0.4379  0.4264
   86CHL1  H22B 8828   6.293   3.238   8.189 -0.4626  1.1201 -0.7687
   86CHL1   C23 8829   6.467   3.263   8.317  0.1325  0.3611 -0.4850
   86CHL1  H23A 8830   6.527   3.170   8.307  2.5573  1.8565 -0.4171
   86CHL1  H23B 8831   6.545   3.342   8.327 -1.7887  2.2175  0.1654
   86CHL1   C24 8832   6.382   3.263   8.445 -0.1201 -0.3404 -0.1242
   86CHL1  H24A 8833   6.310   3.347   8.431 -0.1442 -0.4463 -0.6309
   86CHL1  H24B 8834   6.327   3.166   8.447  0.1579 -0.4925  0.4784
   86CHL1   C25 8835   6.466   3.297   8.572  0.2137 -0.5999 -1.1282
   86CHL1   H25 8836   6.522   3.391   8.551 -0.9856 -0.3180 -3.2263
   86CHL1   C26 8837   6.390   3.319   8.709  0.3016  0.1021  0.2566
   86CHL1  H26A 8838   6.351   3.222   8.748  0.1940 -0.2190 -0.6357
   86CHL1  H26B 8839   6.464   3.362   8.780  0.4489  2.4991 -1.2923
   86CHL1  H26C 8840   6.300   3.380   8.684  0.4868  0.5403  0.6549
   86CHL1   C27 8841   6.565   3.183   8.600  0.3316  0.2461 -0.3013
   86CHL1  H27A 8842   6.633   3.207   8.685  3.1657  1.1842 -2.7371
   86CHL1  H27B 8843   6.512   3.087   8.615  0.1174  0.2930 -0.7381
   86CHL1  H27C 8844   6.638   3.177   8.516 -1.0313 -1.2954 -1.3890
   87CHL1    C3 8845   6.270   2.041   6.890 -0.5817 -0.4758  0.2623
   87CHL1    H3 8846   6.186   2.103   6.928  0.1117  0.1708  0.7520
   87CHL1    O3 8847   6.298   2.057   6.752  0.1051 -0.4596  0.1762
   87CHL1   H3' 8848   6.303   1.967   6.721 -2.1293 -0.5079 -0.1073
   87CHL1    C4 8849   6.399   2.071   6.976 -0.3988 -0.4114 -0.1375
   87CHL1   H4A 8850   6.474   2.000   6.935  2.0930  2.7790 -1.2120
   87CHL1   H4B 8851   6.428   2.176   6.955 -0.7921 -0.3189 -0.2315
   87CHL1    C5 8852   6.380   2.048   7.124 -0.7988 -0.2100 -0.9098
   87CHL1    C6 8853   6.408   2.147   7.203  0.0846  0.5189  0.0540
   87CHL1    H6 8854   6.440   2.244   7.163  0.1436 -0.8978 -3.5337
   87CHL1    C7 8855   6.372   2.138   7.347 -0.0535 -0.7759 -0.2411
   87CHL1   H7A 8856   6.440   2.193   7.415  0.9471 -0.7359 -1.2588
   87CHL1   H7B 8857   6.272   2.185   7.362  1.0094  1.4079  0.2073
   87CHL1    C8 8858   6.377   1.995   7.403 -0.0231 -0.5952 -0.0305
   87CHL1    H8 8859   6.479   1.956   7.382  0.3436  1.1369 -1.6691
   87CHL1   C14 8860   6.334   1.989   7.554 -0.3388  0.6619 -0.1772
   87CHL1   H14 8861   6.233   2.033   7.565 -0.2162  1.1586 -0.9523
   87CHL1   C15 8862   6.427   2.056   7.657  0.0559 -0.2711  0.1787
   87CHL1  H15A 8863   6.534   2.035   7.633  0.1226  1.9411 -1.5777
   87CHL1  H15B 8864   6.415   2.166   7.656 -0.4869 -0.3329 -0.0806
   87CHL1   C16 8865   6.381   1.998   7.787  0.8176 -0.1488 -0.5029
   87CHL1  H16A 8866   6.462   1.987   7.862  1.2286  1.9427 -0.6166
   87CHL1  H16B 8867   6.301   2.063   7.828  0.7014  0.4790 -1.6997
   87CHL1   C17 8868   6.310   1.863   7.752  0.9683  0.9638 -0.6277
   87CHL1   H17 8869   6.202   1.889   7.750  1.5327  3.6939  1.4838
   87CHL1   C13 8870   6.327   1.841   7.600  0.0219  0.5620 -0.2421
   87CHL1   C18 8871   6.457   1.768   7.579 -0.4232 -0.9347  0.0579
   87CHL1  H18A 8872   6.448   1.660   7.606 -0.1413 -1.0253 -0.2042
   87CHL1  H18B 8873   6.495   1.770   7.475  2.1867 -2.4048  0.8997
   87CHL1  H18C 8874   6.540   1.821   7.631 -0.4636  0.0574 -0.8877
   87CHL1   C12 8875   6.206   1.777   7.531  0.5468  0.7537 -0.0251
   87CHL1  H12A 8876   6.189   1.670   7.557  0.0697  0.9231  0.3693
   87CHL1  H12B 8877   6.110   1.826   7.558 -0.1552 -1.3113  1.3585
   87CHL1   C11 8878   6.229   1.778   7.376 -0.0909 -0.3509 -0.5635
   87CHL1  H11A 8879   6.310   1.706   7.357  0.5213  0.2865 -0.4037
   87CHL1  H11B 8880   6.145   1.732   7.320 -0.3631  0.9716 -1.2788
   87CHL1    C9 8881   6.270   1.920   7.317  0.0401 -0.1544  0.1722
   87CHL1    H9 8882   6.169   1.964   7.336  0.1331 -0.0918  0.5277
   87CHL1   C10 8883   6.317   1.922   7.168 -0.1219 -0.6587 -0.5966
   87CHL1   C19 8884   6.444   1.820   7.143  0.9628 -0.6539 -0.3320
   87CHL1  H19A 8885   6.525   1.841   7.216 -0.9451  0.9802  1.3856
   87CHL1  H19B 8886   6.405   1.717   7.154 -3.5989  0.9896 -0.2848
   87CHL1  H19C 8887   6.496   1.821   7.045  0.5462  1.1123 -0.5438
   87CHL1    C1 8888   6.195   1.879   7.075 -0.0223  0.1130  0.1251
   87CHL1   H1A 8889   6.152   1.781   7.104 -0.9476  0.3492 -0.4360
   87CHL1   H1B 8890   6.108   1.942   7.102 -1.1289  0.5504 -4.1776
   87CHL1    C2 8891   6.226   1.892   6.925 -1.0552 -0.1826  0.3971
   87CHL1   H2A 8892   6.139   1.871   6.859  0.3285  3.5828 -2.8185
   87CHL1   H2B 8893   6.304   1.822   6.887  1.6489  2.3858  1.0385
   87CHL1   C20 8894   6.339   1.742   7.852  0.3192  0.2951  0.3302
   87CHL1   H20 8895   6.306   1.651   7.797 -1.5194  0.6864  0.7447
   87CHL1   C21 8896   6.246   1.747   7.979 -0.6747 -0.3364  0.4038
   87CHL1  H21A 8897   6.251   1.847   8.027 -2.0882  0.5115 -1.1344
   87CHL1  H21B 8898   6.271   1.663   8.047  1.5910  0.4383  0.5814
   87CHL1  H21C 8899   6.140   1.738   7.946 -0.7743 -0.0295  0.6382
   87CHL1   C22 8900   6.486   1.714   7.899 -0.0585  0.1545 -0.9354
   87CHL1  H22A 8901   6.559   1.744   7.821  0.0856 -1.3701 -1.4141
   87CHL1  H22B 8902   6.500   1.789   7.979 -1.6694  0.2786 -0.7494
   87CHL1   C23 8903   6.523   1.570   7.953 -0.1808 -0.2347  0.5184
   87CHL1  H23A 8904   6.436   1.537   8.013 -1.5130  0.8151 -0.7828
   87CHL1  H23B 8905   6.520   1.494   7.872 -1.0249  1.0984 -0.7244
   87CHL1   C24 8906   6.660   1.560   8.015 -0.5366  0.5293 -0.6554
   87CHL1  H24A 8907   6.735   1.574   7.935  1.9230 -0.6997  1.3218
   87CHL1  H24B 8908   6.676   1.634   8.096  0.1872 -1.1664  0.8059
   87CHL1   C25 8909   6.690   1.418   8.080 -0.0906 -0.7607  0.3436
   87CHL1   H25 8910   6.680   1.346   7.996 -0.2800  0.5745 -0.7992
   87CHL1   C26 8911   6.832   1.416   8.128 -0.5769  0.0861 -0.2383
   87CHL1  H26A 8912   6.847   1.471   8.223  1.0520 -3.7824  1.8808
   87CHL1  H26B 8913   6.871   1.317   8.162 -1.0793  0.1090  0.4036
   87CHL1  H26C 8914   6.900   1.456   8.049 -0.2705  1.3471  0.6521
   87CHL1   C27 8915   6.607   1.376   8.199  0.5414 -0.2508  0.0830
   87CHL1  H27A 8916   6.609   1.447   8.284 -0.6086 -1.1553  0.8765
   87CHL1  H27B 8917   6.502   1.369   8.164 -0.6307  0.5702  3.3036
   87CHL1  H27C 8918   6.614   1.273   8.240 -1.1169 -1.0195 -1.4975
   88CHL1    C3 8919   4.433   6.588   6.697  0.1996  0.8507 -0.0320
   88CHL1    H3 8920   4.324   6.598   6.715  0.4744 -0.1133  2.2090
   88CHL1    O3 8921   4.455   6.546   6.561 -0.6255  0.3591  0.0796
   88CHL1   H3' 8922   4.407   6.613   6.511 -0.0257  0.8256  0.1106
   88CHL1    C4 8923   4.501   6.719   6.719  0.0209  0.6580  0.2302
   88CHL1   H4A 8924   4.608   6.706   6.693 -0.8538 -2.5520 -2.1004
   88CHL1   H4B 8925   4.456   6.793   6.648 -2.8331 -1.4766 -0.2684
   88CHL1    C5 8926   4.489   6.761   6.860 -0.4658 -0.1636  0.2748
   88CHL1    C6 8927   4.427   6.873   6.890  0.3781  0.5938 -0.8236
   88CHL1    H6 8928   4.390   6.935   6.807 -0.6736  2.8495  1.2496
   88CHL1    C7 8929   4.403   6.933   7.028 -0.4256 -0.1629 -0.2616
   88CHL1   H7A 8930   4.416   7.043   7.033  0.8114 -0.3693  1.7940
   88CHL1   H7B 8931   4.300   6.912   7.064  0.0326  0.5782  1.5393
   88CHL1    C8 8932   4.490   6.857   7.122 -0.4039 -0.6440  0.4644
   88CHL1    H8 8933   4.594   6.895   7.113 -0.7215  0.3682  0.9850
   88CHL1   C14 8934   4.440   6.885   7.265 -0.0979  0.1605 -0.7087
   88CHL1   H14 8935   4.340   6.838   7.275 -0.1069  0.1224 -0.9798
   88CHL1   C15 8936   4.413   7.040   7.300 -0.3292  0.5605  0.2299
   88CHL1  H15A 8937   4.485   7.116   7.263  0.5099 -0.6095 -0.5928
   88CHL1  H15B 8938   4.314   7.076   7.265 -0.0929 -1.4561 -2.6800
   88CHL1   C16 8939   4.414   7.043   7.457  0.4086  0.2054  0.4508
   88CHL1  H16A 8940   4.494   7.112   7.492  1.5842 -0.7075 -0.3932
   88CHL1  H16B 8941   4.320   7.088   7.494 -1.8368 -1.7247 -2.6350
   88CHL1   C17 8942   4.451   6.892   7.501  0.3345 -1.0248  0.5845
   88CHL1   H17 8943   4.354   6.839   7.507  0.6778 -1.7388 -0.2519
   88CHL1   C13 8944   4.523   6.821   7.386  0.1054 -0.2019  0.2009
   88CHL1   C18 8945   4.666   6.877   7.377  0.1933 -0.0474  0.0940
   88CHL1  H18A 8946   4.651   6.987   7.379  0.4378  0.0012 -0.4275
   88CHL1  H18B 8947   4.727   6.831   7.457  1.2915 -1.6168 -1.6090
   88CHL1  H18C 8948   4.717   6.854   7.280  0.7051  1.0754  0.0825
   88CHL1   C12 8949   4.518   6.668   7.365  0.3273 -0.7789  0.6158
   88CHL1  H12A 8950   4.587   6.611   7.430  1.6052 -1.7684 -1.5495
   88CHL1  H12B 8951   4.414   6.634   7.388 -0.2868 -0.9909 -2.3004
   88CHL1   C11 8952   4.563   6.627   7.224 -0.8292  0.1211  0.3526
   88CHL1  H11A 8953   4.673   6.644   7.219 -0.7959 -0.7054 -2.5836
   88CHL1  H11B 8954   4.541   6.520   7.209  1.6855 -0.2000 -1.2810
   88CHL1    C9 8955   4.491   6.703   7.105 -0.2257  0.2990  0.4198
   88CHL1    H9 8956   4.385   6.674   7.124  0.4425 -2.1409  0.5878
   88CHL1   C10 8957   4.539   6.663   6.964 -0.8030 -0.4445  0.1896
   88CHL1   C19 8958   4.696   6.672   6.968 -0.0799  1.2390  0.3643
   88CHL1  H19A 8959   4.749   6.677   6.870 -0.5976 -1.3090 -0.0854
   88CHL1  H19B 8960   4.716   6.765   7.024  0.1520  2.4388 -1.6754
   88CHL1  H19C 8961   4.732   6.577   7.013 -1.1289  0.2014 -0.9139
   88CHL1    C1 8962   4.490   6.521   6.934 -0.2590  0.6154 -0.3484
   88CHL1   H1A 8963   4.545   6.448   6.997 -0.5039 -0.3811 -1.2606
   88CHL1   H1B 8964   4.381   6.522   6.954  0.0316 -1.1798  1.4551
   88CHL1    C2 8965   4.499   6.483   6.783 -0.1834 -0.2021  0.5659
   88CHL1   H2A 8966   4.463   6.379   6.768  1.9266 -0.8765 -0.0175
   88CHL1   H2B 8967   4.608   6.488   6.762 -0.2661 -1.3538 -0.1520
   88CHL1   C20 8968   4.516   6.884   7.642 -0.3760 -0.5595  0.7003
   88CHL1   H20 8969   4.620   6.922   7.637 -1.5806  2.8388  0.5007
   88CHL1   C21 8970   4.515   6.733   7.679  0.0856 -0.1553 -0.1278
   88CHL1  H21A 8971   4.423   6.680   7.647  0.7271 -1.2940 -0.0817
   88CHL1  H21B 8972   4.541   6.712   7.785  3.0453 -0.7984 -0.9467
   88CHL1  H21C 8973   4.600   6.691   7.622 -0.4487  0.6802 -1.5531
   88CHL1   C22 8974   4.440   6.967   7.743  0.3772  0.4318 -0.3476
   88CHL1  H22A 8975   4.411   7.069   7.710 -0.1726  0.8461  1.3655
   88CHL1  H22B 8976   4.338   6.925   7.761  0.7276  0.7224  2.6824
   88CHL1   C23 8977   4.517   6.982   7.869 -0.3279 -0.4653  0.3390
   88CHL1  H23A 8978   4.529   6.884   7.921 -0.5738  0.3144  1.8669
   88CHL1  H23B 8979   4.615   7.032   7.850 -1.1790  0.8271 -0.7524
   88CHL1   C24 8980   4.449   7.070   7.971 -0.2580  0.2164  0.2903
   88CHL1  H24A 8981   4.405   7.156   7.916 -0.1536 -0.3812 -0.7378
   88CHL1  H24B 8982   4.366   7.003   8.004 -2.6945  2.2008 -1.6168
   88CHL1   C25 8983   4.535   7.105   8.099  0.2136  0.5882 -0.4747
   88CHL1   H25 8984   4.644   7.123   8.086  0.5930 -1.6555 -0.6316
   88CHL1   C26 8985   4.484   7.238   8.160 -0.0455  0.1230 -0.3644
   88CHL1  H26A 8986   4.383   7.229   8.205  0.2185 -2.5315 -0.2486
   88CHL1  H26B 8987   4.549   7.270   8.243 -0.6997 -0.7190  0.4886
   88CHL1  H26C 8988   4.486   7.318   8.083 -2.1458  0.4167 -0.1504
   88CHL1   C27 8989   4.532   6.987   8.197  0.3970  0.2955 -0.2687
   88CHL1  H27A 8990   4.578   6.892   8.161  2.3372  0.5381  1.4175
   88CHL1  H27B 8991   4.573   7.008   8.298  1.0738 -2.5302  0.0997
   88CHL1  H27C 8992   4.425   6.975   8.221  0.4286  1.0787  0.2999
   89CHL1    C3 8993   0.183   3.102   7.015  0.5471 -0.5722 -0.7060
   89CHL1    H3 8994   0.245   3.191   7.039  0.6248  0.5201 -4.6469
   89CHL1    O3 8995   0.125   3.129   6.888  0.5887  0.4307 -0.2314
   89CHL1   H3' 8996   0.064   3.056   6.874 -0.3928  0.8919  1.4249
   89CHL1    C4 8997   0.271   2.971   7.015  0.1717  0.3845  0.0809
   89CHL1   H4A 8998   0.204   2.900   6.961  1.7059 -0.5779 -0.5650
   89CHL1   H4B 8999   0.354   2.984   6.943 -0.4480  4.3686  0.0181
   89CHL1    C5 9000   0.310   2.927   7.156 -0.3174 -0.0794 -0.5236
   89CHL1    C6 9001   0.440   2.909   7.181  0.2778 -0.0548  0.4222
   89CHL1    H6 9002   0.509   2.926   7.096 -1.1236  2.7603 -0.1887
   89CHL1    C7 9003   0.487   2.866   7.323 -0.4292  0.2871  0.2140
   89CHL1   H7A 9004   0.557   2.780   7.321  0.2648  0.8039  1.5475
   89CHL1   H7B 9005   0.541   2.954   7.364  0.2652  0.1603 -0.4102
   89CHL1    C8 9006   0.373   2.817   7.418  0.6524  0.4228 -0.5350
   89CHL1    H8 9007   0.347   2.715   7.385  1.7408  0.6391 -2.1223
   89CHL1   C14 9008   0.421   2.808   7.560 -0.5011 -0.2695 -0.7131
   89CHL1   H14 9009   0.455   2.910   7.588  0.1256  0.4738 -3.8909
   89CHL1   C15 9010   0.535   2.712   7.584  0.1303 -0.8941  0.6231
   89CHL1  H15A 9011   0.521   2.622   7.521  0.0764 -2.0099  2.2026
   89CHL1  H15B 9012   0.628   2.765   7.555 -1.2737  0.0349 -2.3258
   89CHL1   C16 9013   0.526   2.674   7.735  0.1012 -0.1784 -0.3628
   89CHL1  H16A 9014   0.545   2.565   7.745 -1.5231 -0.4598 -0.2810
   89CHL1  H16B 9015   0.612   2.718   7.790 -0.8912 -1.3650  2.1867
   89CHL1   C17 9016   0.395   2.743   7.791  0.7420 -0.1227 -0.3223
   89CHL1   H17 9017   0.412   2.847   7.827 -0.7585 -0.2415  0.7343
   89CHL1   C13 9018   0.307   2.764   7.661 -0.3923  0.2402  0.3198
   89CHL1   C18 9019   0.262   2.621   7.613  0.8997  0.1248  0.3812
   89CHL1  H18A 9020   0.190   2.585   7.690  2.7740 -2.7338  0.8730
   89CHL1  H18B 9021   0.216   2.625   7.512 -1.9096 -1.9684  1.5178
   89CHL1  H18C 9022   0.345   2.549   7.603 -0.0587 -1.2801  2.2625
   89CHL1   C12 9023   0.192   2.861   7.658  0.0931  0.6033 -0.4308
   89CHL1  H12A 9024   0.111   2.838   7.730  1.2018  1.1539  1.0115
   89CHL1  H12B 9025   0.217   2.967   7.678 -2.1254  0.6693  2.1223
   89CHL1   C11 9026   0.141   2.880   7.513 -0.6591 -0.3399  0.4017
   89CHL1  H11A 9027   0.089   2.788   7.480  0.9067 -0.1093 -2.8869
   89CHL1  H11B 9028   0.063   2.959   7.516 -0.9590 -0.6692  1.2797
   89CHL1    C9 9029   0.257   2.907   7.410 -0.5016  0.3330  0.5917
   89CHL1    H9 9030   0.280   3.011   7.443  1.3311  0.3322 -0.6059
   89CHL1   C10 9031   0.201   2.920   7.261  0.0076  0.3389 -0.9471
   89CHL1   C19 9032   0.119   2.793   7.224 -0.7199  0.3363 -0.0653
   89CHL1  H19A 9033   0.098   2.796   7.115 -0.6543 -1.0714 -0.1241
   89CHL1  H19B 9034   0.173   2.696   7.231 -1.9833 -0.3820 -0.2279
   89CHL1  H19C 9035   0.018   2.793   7.271 -0.8802  0.4845 -0.4098
   89CHL1    C1 9036   0.121   3.049   7.261  0.5686  0.4738  0.5539
   89CHL1   H1A 9037   0.039   3.038   7.334  0.7556  0.4927  0.7668
   89CHL1   H1B 9038   0.191   3.131   7.289  1.7637 -0.7823  1.2995
   89CHL1    C2 9039   0.071   3.084   7.120  1.1035 -0.1194  0.1560
   89CHL1   H2A 9040   0.015   3.180   7.126  3.8951  1.5381  0.5232
   89CHL1   H2B 9041   0.005   3.005   7.079  0.1952  0.3508  0.6895
   89CHL1   C20 9042   0.341   2.659   7.913 -0.2102  0.7889 -0.2269
   89CHL1   H20 9043   0.330   2.559   7.868 -0.2223 -1.0785  3.7189
   89CHL1   C21 9044   0.212   2.725   7.961  0.6691  0.0862 -0.7831
   89CHL1  H21A 9045   0.133   2.703   7.886 -0.7027 -1.9580  1.1688
   89CHL1  H21B 9046   0.211   2.835   7.975  0.8688 -0.2414  2.2029
   89CHL1  H21C 9047   0.181   2.686   8.061 -0.0627  3.6241  0.4235
   89CHL1   C22 9048   0.439   2.636   8.026  0.5675 -0.4612  0.1576
   89CHL1  H22A 9049   0.418   2.559   8.103  0.6029  1.1986  1.8637
   89CHL1  H22B 9050   0.535   2.598   7.986  1.2777  0.3447  1.1010
   89CHL1   C23 9051   0.470   2.759   8.115  0.4740 -0.4122 -0.3298
   89CHL1  H23A 9052   0.482   2.853   8.057 -1.1343  1.0514  1.5929
   89CHL1  H23B 9053   0.384   2.765   8.186  0.2493 -1.4638 -0.5132
   89CHL1   C24 9054   0.587   2.744   8.205 -0.8381  0.0775 -0.2261
   89CHL1  H24A 9055   0.585   2.659   8.277  2.0927  0.5809  0.4940
   89CHL1  H24B 9056   0.674   2.721   8.140 -1.4516 -2.3033 -0.2277
   89CHL1   C25 9057   0.639   2.873   8.271 -0.7554  0.1734  0.3003
   89CHL1   H25 9058   0.658   2.945   8.188 -1.6261  1.2736  1.0404
   89CHL1   C26 9059   0.530   2.934   8.362 -0.0582 -0.0341  0.8097
   89CHL1  H26A 9060   0.491   2.871   8.445  2.1625 -1.4544  0.8106
   89CHL1  H26B 9061   0.564   3.026   8.413 -1.3781  0.1734  1.3326
   89CHL1  H26C 9062   0.443   2.962   8.299 -0.8235 -2.0537  0.9345
   89CHL1   C27 9063   0.762   2.837   8.352 -0.0460  0.1816 -0.0954
   89CHL1  H27A 9064   0.829   2.757   8.314  1.0890  0.3207  1.5458
   89CHL1  H27B 9065   0.818   2.928   8.385  0.8434 -0.7633  1.0470
   89CHL1  H27C 9066   0.724   2.807   8.452  0.0282 -1.7783 -0.6427
   90CHL1    C3 9067   6.712   5.223   6.890 -0.1802  0.4166 -0.7847
   90CHL1    H3 9068   6.798   5.159   6.920  2.8759  4.2289 -1.0078
   90CHL1    O3 9069   6.708   5.259   6.756 -0.4879 -0.2177 -0.2666
   90CHL1   H3' 9070   6.628   5.222   6.719  0.3783 -0.7907 -1.5946
   90CHL1    C4 9071   6.574   5.159   6.927  0.0700  0.3520  0.0686
   90CHL1   H4A 9072   6.496   5.238   6.916  0.7996  0.9251 -1.1030
   90CHL1   H4B 9073   6.550   5.076   6.857 -2.0090  1.4328 -0.5579
   90CHL1    C5 9074   6.566   5.116   7.077  0.2287 -0.3862  0.7383
   90CHL1    C6 9075   6.538   4.989   7.112  0.0430 -0.4279 -0.0861
   90CHL1    H6 9076   6.512   4.914   7.037 -1.8919  1.3010 -1.1618
   90CHL1    C7 9077   6.536   4.942   7.249  0.2457  0.3991 -0.3829
   90CHL1   H7A 9078   6.461   4.863   7.274 -0.0115  1.2730  1.7516
   90CHL1   H7B 9079   6.637   4.895   7.256 -0.5217 -1.2610 -0.1793
   90CHL1    C8 9080   6.531   5.046   7.367 -0.5195 -0.1113  0.3397
   90CHL1    H8 9081   6.432   5.097   7.379 -1.0322 -0.8207 -0.7909
   90CHL1   C14 9082   6.580   4.986   7.498  0.4436  0.4213 -0.5621
   90CHL1   H14 9083   6.676   4.932   7.481 -0.7832 -1.4389 -1.7261
   90CHL1   C15 9084   6.473   4.885   7.561 -0.1348  0.3669 -0.0378
   90CHL1  H15A 9085   6.369   4.922   7.562 -1.2016 -2.4494 -0.4692
   90CHL1  H15B 9086   6.468   4.783   7.517  0.2949 -0.0492  0.8680
   90CHL1   C16 9087   6.517   4.875   7.712  0.4693  0.3622  0.5219
   90CHL1  H16A 9088   6.432   4.892   7.781  1.2061  1.0549  1.2615
   90CHL1  H16B 9089   6.561   4.776   7.737  3.0134  1.2909 -0.0573
   90CHL1   C17 9090   6.631   4.986   7.722  0.8634 -0.0217  0.5514
   90CHL1   H17 9091   6.723   4.933   7.690  0.0824 -1.5629  0.8546
   90CHL1   C13 9092   6.609   5.086   7.609  0.8764 -1.0017 -0.1180
   90CHL1   C18 9093   6.474   5.163   7.635 -0.3564 -0.4739 -0.1649
   90CHL1  H18A 9094   6.405   5.106   7.700 -0.9571 -0.2278 -0.5831
   90CHL1  H18B 9095   6.494   5.243   7.709 -3.0225  1.1397 -1.1224
   90CHL1  H18C 9096   6.437   5.204   7.539 -0.0573  1.3282  0.4717
   90CHL1   C12 9097   6.712   5.189   7.571 -0.0728  0.0337 -0.0336
   90CHL1  H12A 9098   6.734   5.252   7.660 -1.3812  0.9119 -0.3143
   90CHL1  H12B 9099   6.813   5.143   7.562  1.1147  0.9182  6.2238
   90CHL1   C11 9100   6.668   5.266   7.437 -0.3918 -0.2367  0.0930
   90CHL1  H11A 9101   6.579   5.329   7.458 -1.0288 -0.1964 -2.5962
   90CHL1  H11B 9102   6.751   5.337   7.417 -0.4705  0.4905  2.2468
   90CHL1    C9 9103   6.629   5.160   7.324  0.3906 -0.5060  0.1198
   90CHL1    H9 9104   6.722   5.104   7.303 -0.4151 -2.6531  2.0573
   90CHL1   C10 9105   6.596   5.224   7.182 -0.3052  0.0162 -0.4280
   90CHL1   C19 9106   6.476   5.317   7.192  0.9085 -0.2541  0.9934
   90CHL1  H19A 9107   6.382   5.277   7.237  0.4974  0.2807  0.6218
   90CHL1  H19B 9108   6.500   5.416   7.237 -0.7296  0.2193  0.8655
   90CHL1  H19C 9109   6.436   5.354   7.095  2.3937 -1.7727 -0.2262
   90CHL1    C1 9110   6.724   5.305   7.137 -0.4191 -0.0495 -0.2899
   90CHL1   H1A 9111   6.738   5.394   7.202  5.1753 -0.6895 -0.3496
   90CHL1   H1B 9112   6.810   5.242   7.170 -2.1791 -1.1792  2.2836
   90CHL1    C2 9113   6.727   5.348   6.989  0.2029 -0.0275 -0.2736
   90CHL1   H2A 9114   6.814   5.408   6.957 -0.0184  0.6396  0.3661
   90CHL1   H2B 9115   6.641   5.418   6.986 -0.6142 -0.9397  1.0993
   90CHL1   C20 9116   6.656   5.046   7.862  0.2470 -0.4039 -0.6857
   90CHL1   H20 9117   6.710   5.142   7.843  0.9086 -0.4085  1.0423
   90CHL1   C21 9118   6.749   4.941   7.928 -0.2473 -0.2634  0.0109
   90CHL1  H21A 9119   6.827   4.908   7.856  0.5893  0.1091  0.7198
   90CHL1  H21B 9120   6.691   4.852   7.961 -0.5587  0.0890  0.4137
   90CHL1  H21C 9121   6.802   4.994   8.010 -0.2076  2.0037 -1.4297
   90CHL1   C22 9122   6.536   5.087   7.955  0.1780 -1.0897  0.3062
   90CHL1  H22A 9123   6.467   5.164   7.914  1.5104  0.1926  0.4593
   90CHL1  H22B 9124   6.472   4.996   7.958 -1.3455 -0.0882 -0.6562
   90CHL1   C23 9125   6.577   5.136   8.101  0.2235  0.1302  0.3679
   90CHL1  H23A 9126   6.622   5.052   8.158  1.1230  0.7470  0.5742
   90CHL1  H23B 9127   6.665   5.203   8.096 -0.3763  1.0433  2.0042
   90CHL1   C24 9128   6.461   5.201   8.180  0.3059  0.1784  1.1595
   90CHL1  H24A 9129   6.468   5.309   8.152  0.8409 -0.1639 -0.0540
   90CHL1  H24B 9130   6.364   5.158   8.148  1.3200 -0.4756 -1.1128
   90CHL1   C25 9131   6.470   5.211   8.327  0.2759  0.1568  0.1430
   90CHL1   H25 9132   6.494   5.110   8.367 -0.0561 -0.3445 -0.8910
   90CHL1   C26 9133   6.572   5.317   8.376  0.2981  0.3546 -0.2106
   90CHL1  H26A 9134   6.560   5.419   8.333 -1.6776 -0.2423 -1.1415
   90CHL1  H26B 9135   6.575   5.327   8.487  1.1547  1.6062 -0.3280
   90CHL1  H26C 9136   6.673   5.294   8.337  0.7092  0.3076  0.8590
   90CHL1   C27 9137   6.332   5.245   8.387 -0.4861  0.5948  0.0417
   90CHL1  H27A 9138   6.348   5.244   8.497  1.2848 -0.4916 -0.1992
   90CHL1  H27B 9139   6.298   5.347   8.360  0.3019  0.8552  0.0134
   90CHL1  H27C 9140   6.258   5.163   8.372  0.1281 -0.4408  2.2813
   91CHL1    C3 9141   1.631   6.496   7.238  0.3395  0.4950  0.1400
   91CHL1    H3 9142   1.557   6.555   7.297 -0.6841  0.2424 -0.8727
   91CHL1    O3 9143   1.591   6.470   7.107  0.1203 -0.1115  0.4371
   91CHL1   H3' 9144   1.654   6.406   7.073  0.8133  0.8187 -0.0410
   91CHL1    C4 9145   1.761   6.576   7.242  0.0874  0.0372  0.0282
   91CHL1   H4A 9146   1.834   6.518   7.181 -1.8131 -0.9422 -1.3529
   91CHL1   H4B 9147   1.734   6.672   7.193 -1.1667 -1.8274 -3.0816
   91CHL1    C5 9148   1.820   6.584   7.378  0.0471 -0.6295 -0.0587
   91CHL1    C6 9149   1.857   6.704   7.428  0.5228  0.0532  0.2594
   91CHL1    H6 9150   1.842   6.791   7.362  2.6788  0.7237  0.6157
   91CHL1    C7 9151   1.896   6.735   7.568 -0.1013  0.0144 -0.5749
   91CHL1   H7A 9152   1.990   6.795   7.569 -0.8262  1.1801  1.7777
   91CHL1   H7B 9153   1.823   6.798   7.622  2.5837  2.1731  0.6908
   91CHL1    C8 9154   1.922   6.606   7.648 -0.3227 -0.5602  1.1643
   91CHL1    H8 9155   2.020   6.569   7.611 -1.4487 -2.5256  0.0375
   91CHL1   C14 9156   1.924   6.644   7.790 -0.6303  0.3334 -0.6438
   91CHL1   H14 9157   1.820   6.666   7.822  0.2822  2.2839  1.0972
   91CHL1   C15 9158   2.007   6.768   7.847  0.0524 -0.3581 -0.3496
   91CHL1  H15A 9159   2.112   6.774   7.812 -0.3312  2.0030 -1.1347
   91CHL1  H15B 9160   1.952   6.861   7.821 -0.8702 -1.0326 -0.8532
   91CHL1   C16 9161   1.998   6.741   7.995  0.7840  0.2373  0.5871
   91CHL1  H16A 9162   2.104   6.762   8.024  0.2863  0.6367  2.1470
   91CHL1  H16B 9163   1.939   6.815   8.053  0.6664  1.6662 -1.3263
   91CHL1   C17 9164   1.947   6.596   8.019  0.5995 -0.3938 -1.0715
   91CHL1   H17 9165   1.837   6.602   8.039  0.7403 -0.6648 -0.2051
   91CHL1   C13 9166   1.954   6.521   7.883 -1.0477 -0.0955 -0.3589
   91CHL1   C18 9167   2.094   6.470   7.861  0.2661 -0.5100  0.4487
   91CHL1  H18A 9168   2.118   6.388   7.931 -1.5123 -0.6085  0.9673
   91CHL1  H18B 9169   2.118   6.433   7.759 -0.3253 -0.4289  0.2787
   91CHL1  H18C 9170   2.168   6.551   7.879 -1.8694  2.3362 -2.9003
   91CHL1   C12 9171   1.845   6.414   7.858  0.5676 -0.8021  0.1257
   91CHL1  H12A 9172   1.879   6.315   7.897  0.7686 -0.1006  1.7827
   91CHL1  H12B 9173   1.744   6.441   7.894  0.6001 -0.0073 -0.3716
   91CHL1   C11 9174   1.838   6.378   7.709  0.1960  0.4182  0.2409
   91CHL1  H11A 9175   1.932   6.321   7.694  1.5995  2.8752 -0.5493
   91CHL1  H11B 9176   1.747   6.316   7.690 -0.8790  1.6083  1.3531
   91CHL1    C9 9177   1.815   6.497   7.618  0.0425 -0.0882 -0.0528
   91CHL1    H9 9178   1.720   6.546   7.650  0.5406  0.5481  0.4540
   91CHL1   C10 9179   1.813   6.459   7.470  0.1868 -0.2931 -0.3492
   91CHL1   C19 9180   1.929   6.355   7.434 -0.1850  0.5116 -0.5776
   91CHL1  H19A 9181   2.022   6.388   7.485 -1.0588  1.7688  0.2206
   91CHL1  H19B 9182   1.908   6.258   7.484  0.2761  0.2544 -0.8726
   91CHL1  H19C 9183   1.932   6.328   7.326 -0.9458 -2.1556  0.0279
   91CHL1    C1 9184   1.679   6.382   7.454  0.3839 -0.2362  0.0757
   91CHL1   H1A 9185   1.687   6.284   7.506  5.3216  0.7702  1.4904
   91CHL1   H1B 9186   1.594   6.445   7.486 -1.4320 -2.1017 -0.9429
   91CHL1    C2 9187   1.649   6.359   7.304  0.8329 -0.9248  0.3030
   91CHL1   H2A 9188   1.546   6.316   7.305 -0.2978  1.6716  0.0867
   91CHL1   H2B 9189   1.726   6.298   7.252  0.2417 -0.2489 -1.4056
   91CHL1   C20 9190   1.995   6.530   8.154  0.1456  0.6905 -0.0864
   91CHL1   H20 9191   2.104   6.511   8.146  0.0704 -0.1114  0.6281
   91CHL1   C21 9192   1.930   6.398   8.181  0.2963 -0.0259  0.3447
   91CHL1  H21A 9193   1.957   6.304   8.129  1.3254  0.1862  0.4928
   91CHL1  H21B 9194   1.822   6.409   8.157  1.0937  0.6229 -3.2229
   91CHL1  H21C 9195   1.943   6.370   8.288  0.2846 -2.0244 -0.1751
   91CHL1   C22 9196   1.975   6.635   8.272 -0.0416  0.1302 -0.3382
   91CHL1  H22A 9197   2.024   6.727   8.235 -1.5591  0.9382 -0.3768
   91CHL1  H22B 9198   1.867   6.650   8.291  0.1774 -0.0086  1.0725
   91CHL1   C23 9199   2.059   6.603   8.396  0.7435  0.0334 -0.3345
   91CHL1  H23A 9200   2.024   6.506   8.435 -0.1157  0.0925 -0.9152
   91CHL1  H23B 9201   2.163   6.593   8.358  1.2720  2.8433  0.2326
   91CHL1   C24 9202   2.055   6.711   8.501 -0.2679 -0.3266 -0.4921
   91CHL1  H24A 9203   2.118   6.682   8.588 -0.9174  1.2560  0.5314
   91CHL1  H24B 9204   2.116   6.796   8.465  0.5931 -1.1882 -1.0940
   91CHL1   C25 9205   1.922   6.745   8.571  0.0923 -0.6806 -0.7143
   91CHL1   H25 9206   1.859   6.784   8.489  0.5016  0.1488 -0.6369
   91CHL1   C26 9207   1.862   6.617   8.636  0.2519 -0.0636 -0.0151
   91CHL1  H26A 9208   1.940   6.564   8.694  1.1508  2.2770  0.9711
   91CHL1  H26B 9209   1.785   6.640   8.713 -2.1282 -0.2262 -2.2562
   91CHL1  H26C 9210   1.821   6.547   8.560 -1.0734 -0.0376  0.6498
   91CHL1   C27 9211   1.932   6.846   8.684  0.0858  0.3018 -0.1980
   91CHL1  H27A 9212   1.977   6.805   8.776 -0.0843 -0.6604 -0.5416
   91CHL1  H27B 9213   1.994   6.928   8.643  1.0966 -0.6267 -0.5386
   91CHL1  H27C 9214   1.826   6.872   8.708 -0.1607 -0.8095 -0.0534
   92CHL1    C3 9215   4.871   1.045   6.930 -0.0630  0.3615 -0.3333
   92CHL1    H3 9216   4.973   1.087   6.945 -0.3756  0.6287  1.1372
   92CHL1    O3 9217   4.848   1.004   6.793 -0.4503  0.2271 -0.2075
   92CHL1   H3' 9218   4.912   1.058   6.745 -2.3098  1.9102 -0.8767
   92CHL1    C4 9219   4.871   0.919   7.016  0.4191  0.1423  0.0080
   92CHL1   H4A 9220   4.783   0.855   6.998 -0.3686  0.7736  1.5110
   92CHL1   H4B 9221   4.957   0.855   6.987  1.2130  1.3213 -0.2973
   92CHL1    C5 9222   4.869   0.956   7.170 -0.2016  0.2531 -0.4326
   92CHL1    C6 9223   4.974   0.921   7.241 -0.2311 -0.6796  0.4830
   92CHL1    H6 9224   5.054   0.863   7.194 -0.3959 -0.0810 -0.5675
   92CHL1    C7 9225   4.989   0.946   7.386  0.1003 -0.2984 -0.6615
   92CHL1   H7A 9226   5.008   0.850   7.438  1.5944  0.0903 -0.4651
   92CHL1   H7B 9227   5.076   1.015   7.389 -0.8118  0.9004 -1.2760
   92CHL1    C8 9228   4.852   0.990   7.444 -0.8805 -0.4201 -0.4523
   92CHL1    H8 9229   4.784   0.902   7.453  0.6946 -1.5287  0.9504
   92CHL1   C14 9230   4.882   1.057   7.584  0.3978  0.0463  0.4868
   92CHL1   H14 9231   4.943   1.146   7.559  0.4130 -0.7411 -2.4259
   92CHL1   C15 9232   4.958   0.961   7.682 -0.4432  0.1310 -0.3808
   92CHL1  H15A 9233   4.918   0.858   7.672 -2.9562  1.0696 -0.2812
   92CHL1  H15B 9234   5.064   0.959   7.650 -0.5357  2.1489 -0.8382
   92CHL1   C16 9235   4.931   1.026   7.822 -0.5991  0.4848 -0.1934
   92CHL1  H16A 9236   4.892   0.941   7.882  0.0265  0.2005 -0.1970
   92CHL1  H16B 9237   5.022   1.061   7.874 -0.3576 -0.4696  0.0177
   92CHL1   C17 9238   4.826   1.143   7.798 -0.1587 -0.6190 -0.2330
   92CHL1   H17 9239   4.889   1.234   7.781  0.7158 -1.2155 -0.2293
   92CHL1   C13 9240   4.762   1.098   7.664 -0.0510  0.3579  0.4840
   92CHL1   C18 9241   4.674   0.979   7.688  1.2600  0.8533  0.9438
   92CHL1  H18A 9242   4.588   1.003   7.753  1.5341 -2.3038  2.5645
   92CHL1  H18B 9243   4.626   0.948   7.593  0.4961  0.2536  1.5222
   92CHL1  H18C 9244   4.714   0.885   7.733  0.5730 -0.5294 -1.2224
   92CHL1   C12 9245   4.687   1.199   7.589 -0.3969 -0.8007  0.3947
   92CHL1  H12A 9246   4.596   1.221   7.648 -0.8659  1.5133 -1.1323
   92CHL1  H12B 9247   4.744   1.295   7.589 -1.5962 -0.0558  1.8762
   92CHL1   C11 9248   4.651   1.153   7.445 -0.9014  0.8057  0.5166
   92CHL1  H11A 9249   4.569   1.078   7.447 -0.6700  0.5511  0.4924
   92CHL1  H11B 9250   4.597   1.237   7.396 -1.7774  0.1235  0.2972
   92CHL1    C9 9251   4.773   1.098   7.368  0.7005  0.7527 -0.0986
   92CHL1    H9 9252   4.841   1.184   7.351  0.0979  0.7364 -2.6606
   92CHL1   C10 9253   4.755   1.045   7.213 -0.0977 -0.7889  0.1337
   92CHL1   C19 9254   4.620   0.971   7.205  0.5311 -0.1678  0.2380
   92CHL1  H19A 9255   4.598   0.941   7.101 -2.1378  0.3693  0.6202
   92CHL1  H19B 9256   4.617   0.877   7.265  0.4630 -0.2305  0.1365
   92CHL1  H19C 9257   4.535   1.034   7.237  2.4268  2.5997  0.0165
   92CHL1    C1 9258   4.750   1.173   7.120 -0.4823 -0.0611 -0.2811
   92CHL1   H1A 9259   4.657   1.230   7.139  0.0889  0.7232  0.1907
   92CHL1   H1B 9260   4.841   1.230   7.151  0.1497 -1.0345 -0.3129
   92CHL1    C2 9261   4.751   1.127   6.968 -0.3138 -1.0870 -0.4197
   92CHL1   H2A 9262   4.757   1.223   6.912  0.4722 -0.3119  0.9599
   92CHL1   H2B 9263   4.660   1.069   6.946  1.0614 -2.7795 -1.7838
   92CHL1   C20 9264   4.740   1.177   7.917 -0.3273  0.1681  0.3320
   92CHL1   H20 9265   4.657   1.105   7.930  2.1323 -2.3358  2.8611
   92CHL1   C21 9266   4.674   1.314   7.890 -0.4664  0.5190 -0.2867
   92CHL1  H21A 9267   4.744   1.388   7.846  1.3532 -0.6505  0.5810
   92CHL1  H21B 9268   4.633   1.348   7.988  0.7014 -0.3179  0.5029
   92CHL1  H21C 9269   4.592   1.315   7.815 -1.0469  3.9611  0.3262
   92CHL1   C22 9270   4.830   1.191   8.037  0.0147  0.8172  0.6325
   92CHL1  H22A 9271   4.885   1.095   8.040  0.0901  0.7536 -1.9334
   92CHL1  H22B 9272   4.910   1.268   8.035 -0.5989  1.4364 -0.9809
   92CHL1   C23 9273   4.762   1.209   8.175 -0.2507 -0.3498 -1.1328
   92CHL1  H23A 9274   4.712   1.308   8.186  3.3357  1.2032  2.3314
   92CHL1  H23B 9275   4.685   1.129   8.178 -2.5531  1.7535 -1.8592
   92CHL1   C24 9276   4.850   1.177   8.293  0.2621 -0.3402  0.4509
   92CHL1  H24A 9277   4.868   1.068   8.281 -1.1160 -0.5068 -0.1907
   92CHL1  H24B 9278   4.947   1.231   8.285  0.0660  0.1970  1.5904
   92CHL1   C25 9279   4.797   1.188   8.438 -0.1370 -0.3283 -0.3480
   92CHL1   H25 9280   4.751   1.286   8.462 -1.4102 -1.0937  0.4162
   92CHL1   C26 9281   4.677   1.085   8.460  0.7068 -0.1065 -0.8510
   92CHL1  H26A 9282   4.627   1.104   8.557 -1.9489 -0.3770 -2.1334
   92CHL1  H26B 9283   4.605   1.102   8.378 -1.3369 -0.6100  0.8013
   92CHL1  H26C 9284   4.724   0.985   8.446  1.6107 -0.0987  1.7639
   92CHL1   C27 9285   4.906   1.177   8.553  0.3184  0.6145  0.2068
   92CHL1  H27A 9286   4.964   1.083   8.542 -0.9160 -0.0359 -1.0392
   92CHL1  H27B 9287   4.973   1.265   8.540 -1.0195  1.4578 -1.1740
   92CHL1  H27C 9288   4.847   1.180   8.647 -1.1409  0.1069 -0.6700
   93CHL1    C3 9289   3.074   5.965   6.887 -0.0788 -0.4704 -1.4347
   93CHL1    H3 9290   3.159   5.899   6.862  0.0541 -2.0855  2.8090
   93CHL1    O3 9291   3.031   6.043   6.773 -0.4734  0.5263  0.4228
   93CHL1   H3' 9292   2.943   6.075   6.792 -0.2318  1.1915  0.4731
   93CHL1    C4 9293   2.969   5.863   6.929  1.1455  0.4751  0.2023
   93CHL1   H4A 9294   2.877   5.916   6.961  0.6733 -0.0535 -0.2667
   93CHL1   H4B 9295   2.943   5.801   6.841 -2.6927 -0.0253  1.5848
   93CHL1    C5 9296   3.017   5.783   7.047  0.3048  0.4591  0.5155
   93CHL1    C6 9297   3.030   5.646   7.052  1.0364 -0.2138 -0.1720
   93CHL1    H6 9298   3.000   5.586   6.964 -0.1033 -0.3999  0.3337
   93CHL1    C7 9299   3.071   5.566   7.173  0.2305 -0.1123 -0.1782
   93CHL1   H7A 9300   3.026   5.465   7.177  1.4075 -0.6669 -0.8223
   93CHL1   H7B 9301   3.179   5.539   7.166  0.4291  0.3707  0.8114
   93CHL1    C8 9302   3.072   5.644   7.310  1.1835  0.2791 -0.1185
   93CHL1    H8 9303   2.965   5.642   7.339  1.3446  0.5927  0.5019
   93CHL1   C14 9304   3.156   5.577   7.415 -0.1670  0.4660 -0.7212
   93CHL1   H14 9305   3.263   5.580   7.388  0.1401  0.6463  0.4727
   93CHL1   C15 9306   3.127   5.430   7.442  0.4487  0.3837 -0.1671
   93CHL1  H15A 9307   3.016   5.427   7.454  0.4683  0.1113 -0.0601
   93CHL1  H15B 9308   3.157   5.354   7.366  1.1680  1.0193 -0.5148
   93CHL1   C16 9309   3.206   5.409   7.569 -0.4156  0.0047 -0.1404
   93CHL1  H16A 9310   3.174   5.339   7.650 -0.9520  1.6266  1.0765
   93CHL1  H16B 9311   3.301   5.361   7.537  0.1868  2.0187 -1.4424
   93CHL1   C17 9312   3.233   5.549   7.629  0.4549  0.5786 -0.3970
   93CHL1   H17 9313   3.335   5.576   7.596 -0.0801 -0.6611 -3.1247
   93CHL1   C13 9314   3.157   5.650   7.546 -0.2867 -0.1455 -0.2456
   93CHL1   C18 9315   3.017   5.663   7.605 -0.1877 -0.3340 -0.0617
   93CHL1  H18A 9316   3.026   5.714   7.703 -0.9120  0.1161 -0.2262
   93CHL1  H18B 9317   2.951   5.733   7.549 -0.9229 -0.6663  0.3804
   93CHL1  H18C 9318   2.969   5.564   7.611 -2.9977  1.0153  0.4459
   93CHL1   C12 9319   3.227   5.790   7.523  0.1877 -0.8135 -0.3334
   93CHL1  H12A 9320   3.230   5.843   7.620  0.3564 -1.4596  0.0123
   93CHL1  H12B 9321   3.335   5.777   7.501  1.0909  2.9834  1.4050
   93CHL1   C11 9322   3.149   5.868   7.417  0.1556 -0.0079 -0.1885
   93CHL1  H11A 9323   3.046   5.899   7.445  0.5983 -1.1842  2.9660
   93CHL1  H11B 9324   3.209   5.957   7.389  2.0562 -1.3500 -0.4084
   93CHL1    C9 9325   3.125   5.784   7.284 -0.0768  1.0295 -0.2705
   93CHL1    H9 9326   3.232   5.767   7.259  0.6310  0.8023  2.6964
   93CHL1   C10 9327   3.051   5.864   7.174 -0.1394  0.1250  0.2747
   93CHL1   C19 9328   2.917   5.913   7.234 -0.5122 -0.7066  0.2891
   93CHL1  H19A 9329   2.939   6.012   7.279 -1.9380 -0.6909  0.9565
   93CHL1  H19B 9330   2.839   5.944   7.162 -1.1935 -0.7960  0.9910
   93CHL1  H19C 9331   2.876   5.844   7.311 -0.1505 -2.4468 -1.0547
   93CHL1    C1 9332   3.139   5.980   7.123  0.5961  0.7447 -0.0799
   93CHL1   H1A 9333   3.154   6.053   7.204 -0.4766  0.5910  0.2746
   93CHL1   H1B 9334   3.242   5.940   7.120 -0.5163 -2.2877  0.3540
   93CHL1    C2 9335   3.089   6.056   6.999 -0.5364 -0.2402 -0.1086
   93CHL1   H2A 9336   3.165   6.131   6.969  2.0412 -2.6898  0.0291
   93CHL1   H2B 9337   2.997   6.111   7.028  0.3625  0.1778  2.0823
   93CHL1   C20 9338   3.242   5.565   7.781  0.0522 -0.4231 -0.2525
   93CHL1   H20 9339   3.241   5.675   7.791  2.0654 -0.6179  2.4930
   93CHL1   C21 9340   3.374   5.515   7.836 -0.1177  0.0554  0.6078
   93CHL1  H21A 9341   3.366   5.500   7.946  2.1576 -1.3245  0.6219
   93CHL1  H21B 9342   3.456   5.589   7.823 -0.9951  0.9830  0.2487
   93CHL1  H21C 9343   3.414   5.421   7.793 -0.1196  0.3761 -0.0946
   93CHL1   C22 9344   3.130   5.501   7.857 -0.1906  0.3875  0.0709
   93CHL1  H22A 9345   3.040   5.489   7.793  0.4374  0.4653 -0.8423
   93CHL1  H22B 9346   3.153   5.393   7.870  2.5737  0.8026 -1.0881
   93CHL1   C23 9347   3.099   5.560   7.992  0.0401 -0.2360 -0.6392
   93CHL1  H23A 9348   3.195   5.598   8.032  1.0936 -3.5473  0.1908
   93CHL1  H23B 9349   3.030   5.645   7.972  0.7300  0.1853 -1.2112
   93CHL1   C24 9350   3.033   5.459   8.085  0.1796  0.2805 -0.1831
   93CHL1  H24A 9351   2.959   5.407   8.020 -0.1753  0.2856  0.2144
   93CHL1  H24B 9352   3.120   5.400   8.121  0.0835 -0.2633 -0.8397
   93CHL1   C25 9353   2.960   5.523   8.199  0.2340 -0.0554  0.0792
   93CHL1   H25 9354   2.888   5.595   8.153  1.5265  1.3104  0.1587
   93CHL1   C26 9355   2.894   5.414   8.289  0.1228 -0.1717 -0.0321
   93CHL1  H26A 9356   2.981   5.353   8.321  1.7458  1.7672 -0.5881
   93CHL1  H26B 9357   2.851   5.454   8.384  0.7680  0.2573  0.0871
   93CHL1  H26C 9358   2.826   5.355   8.224 -1.9529  1.4501  0.5948
   93CHL1   C27 9359   3.040   5.615   8.288 -0.2303  0.5223 -0.2688
   93CHL1  H27A 9360   2.992   5.645   8.384  1.6363 -1.9867  1.5012
   93CHL1  H27B 9361   3.137   5.569   8.316  0.7574  1.9567 -1.2260
   93CHL1  H27C 9362   3.077   5.701   8.228  2.5154 -0.9274 -0.7463
   94CHL1    C3 9363   5.437   1.968   6.762  0.1881 -0.5585 -0.1780
   94CHL1    H3 9364   5.535   2.015   6.785 -0.1834 -0.0191  0.3130
   94CHL1    O3 9365   5.416   1.954   6.623  0.0167 -0.4499 -0.2152
   94CHL1   H3' 9366   5.373   1.868   6.616 -2.3460  0.4705  2.0837
   94CHL1    C4 9367   5.430   1.828   6.824 -0.5290 -0.2160 -0.1594
   94CHL1   H4A 9368   5.336   1.777   6.793 -0.6246 -1.5493  2.2621
   94CHL1   H4B 9369   5.519   1.777   6.781  0.1431  0.8950 -0.1009
   94CHL1    C5 9370   5.443   1.844   6.976 -0.2169  0.2806  0.0973
   94CHL1    C6 9371   5.531   1.774   7.048 -0.4741  0.0008 -0.3481
   94CHL1    H6 9372   5.607   1.714   6.996  1.2541  0.1782  1.9034
   94CHL1    C7 9373   5.536   1.773   7.193 -0.4579 -0.1064 -0.1206
   94CHL1   H7A 9374   5.532   1.666   7.221  0.3291 -0.5306 -1.5808
   94CHL1   H7B 9375   5.639   1.803   7.222  0.5087 -1.3087 -2.2498
   94CHL1    C8 9376   5.430   1.853   7.273  0.2884  0.2901 -1.1670
   94CHL1    H8 9377   5.341   1.786   7.281  0.2703  0.3323 -1.0196
   94CHL1   C14 9378   5.484   1.894   7.414  0.1821  0.2303  0.3138
   94CHL1   H14 9379   5.560   1.974   7.395 -0.5264  0.5627 -1.2580
   94CHL1   C15 9380   5.557   1.786   7.503 -0.1167 -0.1664  0.6399
   94CHL1  H15A 9381   5.517   1.682   7.497 -1.2713  0.3205 -0.3366
   94CHL1  H15B 9382   5.666   1.788   7.487 -0.2463  0.3228 -0.1740
   94CHL1   C16 9383   5.529   1.833   7.647  0.7379  0.0072  0.1028
   94CHL1  H16A 9384   5.460   1.759   7.692 -0.6905  1.4425  0.2988
   94CHL1  H16B 9385   5.620   1.859   7.707 -0.1295  1.6473  0.7477
   94CHL1   C17 9386   5.450   1.971   7.631 -0.5626  0.4418  0.7295
   94CHL1   H17 9387   5.536   2.041   7.625 -1.5328  1.7148  1.4911
   94CHL1   C13 9388   5.376   1.963   7.501  0.3879  0.3107 -0.5679
   94CHL1   C18 9389   5.260   1.866   7.518 -0.1075 -0.7221 -0.0193
   94CHL1  H18A 9390   5.209   1.865   7.420  0.6429  1.9557 -0.4720
   94CHL1  H18B 9391   5.288   1.763   7.547  0.3492 -0.3676  0.8335
   94CHL1  H18C 9392   5.185   1.898   7.593  1.7898  1.1519  1.1292
   94CHL1   C12 9393   5.344   2.089   7.423  0.1542 -0.1379  0.0277
   94CHL1  H12A 9394   5.256   2.139   7.470 -0.7553 -0.5131 -1.2237
   94CHL1  H12B 9395   5.429   2.161   7.418 -0.5110  0.5244 -3.3826
   94CHL1   C11 9396   5.289   2.058   7.278  0.3187 -0.1982  0.6666
   94CHL1  H11A 9397   5.186   2.017   7.279  1.8554 -4.3620  1.5040
   94CHL1  H11B 9398   5.293   2.160   7.235 -1.6201 -0.6312 -0.6025
   94CHL1    C9 9399   5.389   1.972   7.200  0.2593 -0.1960 -0.5560
   94CHL1    H9 9400   5.476   2.041   7.194 -0.5484  0.8820  0.0818
   94CHL1   C10 9401   5.346   1.942   7.048  0.1164  0.6976 -0.2814
   94CHL1   C19 9402   5.207   1.874   7.055  0.4183  0.1256 -0.0645
   94CHL1  H19A 9403   5.126   1.945   7.078  0.9732  0.5128  0.7122
   94CHL1  H19B 9404   5.185   1.831   6.955  0.6113 -0.3307  0.0874
   94CHL1  H19C 9405   5.206   1.786   7.123 -0.0625  1.1166  1.2263
   94CHL1    C1 9406   5.336   2.072   6.968  0.3303 -0.4476 -0.4186
   94CHL1   H1A 9407   5.257   2.143   6.999  0.0507 -0.9041 -0.0822
   94CHL1   H1B 9408   5.438   2.115   6.979 -0.1764  0.2884  1.5616
   94CHL1    C2 9409   5.329   2.064   6.817 -0.1932  0.5883  0.5285
   94CHL1   H2A 9410   5.341   2.162   6.767 -0.1378  0.2170 -0.1849
   94CHL1   H2B 9411   5.232   2.028   6.776 -0.5122 -0.0476  1.8131
   94CHL1   C20 9412   5.365   2.010   7.758  0.1925  0.1033  0.4304
   94CHL1   H20 9413   5.284   1.935   7.775 -0.2897  0.9726  2.0877
   94CHL1   C21 9414   5.300   2.150   7.742 -0.0456  0.0367  0.0583
   94CHL1  H21A 9415   5.216   2.156   7.670  0.0051  1.4791  0.0917
   94CHL1  H21B 9416   5.373   2.232   7.726 -1.3522  1.1878 -0.1614
   94CHL1  H21C 9417   5.249   2.181   7.836  0.5533  0.7900  0.1380
   94CHL1   C22 9418   5.460   2.018   7.879  0.2067 -0.1376  0.5841
   94CHL1  H22A 9419   5.515   1.927   7.909  0.2153 -0.1366  0.5700
   94CHL1  H22B 9420   5.539   2.092   7.855 -0.5182  0.4259 -0.1106
   94CHL1   C23 9421   5.399   2.056   8.016 -0.8082  0.2645 -0.6452
   94CHL1  H23A 9422   5.471   2.041   8.098  1.2228 -1.7485 -2.7277
   94CHL1  H23B 9423   5.383   2.166   8.013 -0.7795  0.3193  1.0253
   94CHL1   C24 9424   5.270   1.983   8.062  0.1904 -0.2663 -0.2632
   94CHL1  H24A 9425   5.176   2.025   8.020 -0.2998  0.5811  1.6086
   94CHL1  H24B 9426   5.270   1.876   8.033 -0.4474 -0.8361  1.7325
   94CHL1   C25 9427   5.242   2.003   8.216 -0.0980 -0.1331  0.0620
   94CHL1   H25 9428   5.334   1.969   8.270  1.1861  1.0650 -1.3176
   94CHL1   C26 9429   5.214   2.149   8.257  0.0076 -0.2316 -0.4937
   94CHL1  H26A 9430   5.304   2.214   8.248 -0.4248  0.2862 -1.0911
   94CHL1  H26B 9431   5.141   2.201   8.191  1.0832  2.1295  0.1153
   94CHL1  H26C 9432   5.173   2.159   8.359  2.5883 -2.6015  0.8344
   94CHL1   C27 9433   5.121   1.922   8.265  0.2344 -0.5850  0.1787
   94CHL1  H27A 9434   5.147   1.818   8.236  0.6265  0.4648 -3.4899
   94CHL1  H27B 9435   5.109   1.928   8.375 -0.0913 -0.8188  0.1572
   94CHL1  H27C 9436   5.036   1.961   8.204  2.3024  3.1816 -0.4634
   95CHL1    C3 9437   5.295   0.797   6.658 -0.3698  0.6537  0.3535
   95CHL1    H3 9438   5.231   0.885   6.681  1.6193  2.6464 -1.4777
   95CHL1    O3 9439   5.303   0.770   6.514  0.4142 -0.3531  0.4682
   95CHL1   H3' 9440   5.343   0.683   6.520  0.8837 -0.4258 -2.6824
   95CHL1    C4 9441   5.436   0.825   6.713 -0.9452  0.1397  0.3960
   95CHL1   H4A 9442   5.494   0.737   6.677 -0.2763  0.0312  1.7162
   95CHL1   H4B 9443   5.460   0.918   6.658  2.8896 -1.4198 -0.7841
   95CHL1    C5 9444   5.437   0.831   6.863 -0.2496 -0.1446 -0.7995
   95CHL1    C6 9445   5.491   0.933   6.929  0.5161  0.6753 -0.8335
   95CHL1    H6 9446   5.560   0.999   6.874  2.3252 -0.3717  0.1299
   95CHL1    C7 9447   5.497   0.946   7.082 -0.0038  0.1852 -0.6896
   95CHL1   H7A 9448   5.600   0.982   7.102  0.2374 -0.3008 -1.0618
   95CHL1   H7B 9449   5.417   1.018   7.110 -1.2897 -2.1146  1.8138
   95CHL1    C8 9450   5.466   0.812   7.156 -0.5620 -0.8292  0.2646
   95CHL1    H8 9451   5.553   0.743   7.156  0.5404  0.5275  1.7050
   95CHL1   C14 9452   5.428   0.842   7.296  0.4685 -0.0608  0.3211
   95CHL1   H14 9453   5.341   0.912   7.294  0.4879 -0.0175  0.8651
   95CHL1   C15 9454   5.527   0.923   7.382  0.0888 -0.1009  0.0073
   95CHL1  H15A 9455   5.626   0.874   7.366  0.6082  0.4752  1.3666
   95CHL1  H15B 9456   5.543   1.030   7.357  1.3979 -0.3613 -0.3226
   95CHL1   C16 9457   5.483   0.887   7.529  0.8074 -0.5513  0.3032
   95CHL1  H16A 9458   5.573   0.857   7.585 -1.1599 -2.5509  2.4975
   95CHL1  H16B 9459   5.452   0.984   7.573  1.6564 -0.2717  0.2736
   95CHL1   C17 9460   5.370   0.789   7.519 -0.1229  0.5869 -0.2358
   95CHL1   H17 9461   5.279   0.852   7.510 -1.4532 -0.8720  2.3761
   95CHL1   C13 9462   5.395   0.722   7.379  0.0499 -0.1217  0.0190
   95CHL1   C18 9463   5.501   0.611   7.390  0.1312  0.3854  0.4963
   95CHL1  H18A 9464   5.445   0.520   7.420  0.4381  0.0926  0.1823
   95CHL1  H18B 9465   5.559   0.599   7.296 -0.1099  0.4397  0.3393
   95CHL1  H18C 9466   5.573   0.634   7.471  1.9772 -1.3147 -0.6314
   95CHL1   C12 9467   5.264   0.663   7.319  0.1930 -0.9553 -0.4107
   95CHL1  H12A 9468   5.214   0.580   7.372 -0.0302 -0.3554  0.3316
   95CHL1  H12B 9469   5.197   0.752   7.310  1.1714 -0.2481 -0.8852
   95CHL1   C11 9470   5.292   0.625   7.172  0.3041 -0.1096 -0.3369
   95CHL1  H11A 9471   5.359   0.537   7.168  1.1406  0.5559 -1.0565
   95CHL1  H11B 9472   5.200   0.580   7.128  1.4509 -0.8534 -2.0408
   95CHL1    C9 9473   5.345   0.742   7.086  0.4084  0.2161  0.0480
   95CHL1    H9 9474   5.271   0.825   7.085  0.4093  0.2191  0.2764
   95CHL1   C10 9475   5.370   0.715   6.936  0.4609  0.5576 -0.7749
   95CHL1   C19 9476   5.453   0.580   6.932  1.0433  0.2800 -0.3269
   95CHL1  H19A 9477   5.496   0.567   6.830 -3.5874  0.4631 -2.4267
   95CHL1  H19B 9478   5.540   0.587   7.000  0.3928 -1.6126  0.7575
   95CHL1  H19C 9479   5.393   0.490   6.958 -0.6496  0.6620 -2.7625
   95CHL1    C1 9480   5.226   0.684   6.864  0.2651  0.0462  0.1411
   95CHL1   H1A 9481   5.178   0.591   6.902  0.4541  0.4599  1.4112
   95CHL1   H1B 9482   5.159   0.769   6.889  0.0182 -0.0452 -0.1910
   95CHL1    C2 9483   5.233   0.672   6.719  0.7543  0.1931  0.3160
   95CHL1   H2A 9484   5.135   0.649   6.673  1.7027  0.4218 -1.8960
   95CHL1   H2B 9485   5.290   0.587   6.676 -0.3285  0.5147 -1.8398
   95CHL1   C20 9486   5.350   0.700   7.640 -0.2333  0.6219 -0.4420
   95CHL1   H20 9487   5.399   0.602   7.621 -0.3841  0.8651 -2.1249
   95CHL1   C21 9488   5.201   0.662   7.655  0.6330  0.6187  0.0473
   95CHL1  H21A 9489   5.144   0.746   7.699 -0.8506 -1.2859  1.8905
   95CHL1  H21B 9490   5.179   0.570   7.713  1.6639  0.0135 -0.5021
   95CHL1  H21C 9491   5.153   0.657   7.555  0.6587  1.8536 -0.0282
   95CHL1   C22 9492   5.405   0.757   7.770 -0.3667  0.2207 -0.7093
   95CHL1  H22A 9493   5.515   0.760   7.754 -0.4388 -0.5124 -1.3767
   95CHL1  H22B 9494   5.359   0.855   7.795 -0.7894 -0.2706  0.4587
   95CHL1   C23 9495   5.399   0.670   7.894 -0.2299 -0.3423 -0.0683
   95CHL1  H23A 9496   5.291   0.658   7.916 -0.1619  2.0365  1.7418
   95CHL1  H23B 9497   5.435   0.568   7.867  2.2712  0.1356  1.2926
   95CHL1   C24 9498   5.489   0.691   8.015 -0.6235 -0.1429  0.0678
   95CHL1  H24A 9499   5.588   0.725   7.976 -0.1504 -0.0690  1.3085
   95CHL1  H24B 9500   5.455   0.779   8.073 -0.4184  1.2310 -1.8693
   95CHL1   C25 9501   5.511   0.570   8.102  0.4403 -0.1473  0.6114
   95CHL1   H25 9502   5.553   0.504   8.023 -1.7892 -2.0375  0.9396
   95CHL1   C26 9503   5.612   0.588   8.208 -0.5267 -0.1524  0.5488
   95CHL1  H26A 9504   5.655   0.492   8.245 -1.8558 -0.8232  0.3607
   95CHL1  H26B 9505   5.705   0.636   8.170 -0.9180  0.0790 -0.1201
   95CHL1  H26C 9506   5.578   0.636   8.302  0.6141 -0.6762  1.2440
   95CHL1   C27 9507   5.380   0.518   8.159 -0.7982  0.4790 -0.4502
   95CHL1  H27A 9508   5.331   0.599   8.218  1.2558  0.1904  1.7512
   95CHL1  H27B 9509   5.304   0.501   8.081 -0.9856 -0.2614 -0.1071
   95CHL1  H27C 9510   5.391   0.429   8.225  1.3052 -0.1645 -1.6267
   96CHL1    C3 9511   5.215   6.371   6.649 -0.0664 -0.2139  0.6843
   96CHL1    H3 9512   5.277   6.281   6.673  0.2937 -0.5234 -1.3202
   96CHL1    O3 9513   5.190   6.367   6.513  0.1045 -0.2812  0.2482
   96CHL1   H3' 9514   5.099   6.398   6.511  0.3461  0.3334 -1.8230
   96CHL1    C4 9515   5.082   6.358   6.730  0.8321 -0.2167 -0.8666
   96CHL1   H4A 9516   5.006   6.435   6.704  1.3600  0.4233 -0.5348
   96CHL1   H4B 9517   5.047   6.261   6.690  0.4089 -1.1412  1.6422
   96CHL1    C5 9518   5.109   6.349   6.882  0.0123  0.2366  0.3031
   96CHL1    C6 9519   5.067   6.242   6.951 -0.5358  0.3218 -0.0211
   96CHL1    H6 9520   5.022   6.155   6.900  2.4961 -0.6246 -1.2353
   96CHL1    C7 9521   5.076   6.238   7.098  0.3813  0.6765  0.3545
   96CHL1   H7A 9522   4.977   6.206   7.136 -1.0980  1.1025 -2.9471
   96CHL1   H7B 9523   5.162   6.173   7.125 -1.7666 -2.8101 -0.8986
   96CHL1    C8 9524   5.111   6.379   7.164 -0.3057 -0.1093  0.1557
   96CHL1    H8 9525   5.024   6.447   7.150 -0.9175 -0.9591 -0.2875
   96CHL1   C14 9526   5.151   6.360   7.312  0.2419  0.3485 -0.0558
   96CHL1   H14 9527   5.250   6.310   7.314 -0.2256 -0.5597  1.5367
   96CHL1   C15 9528   5.045   6.300   7.408 -0.5263 -0.0187  0.3719
   96CHL1  H15A 9529   4.955   6.364   7.403 -0.3792  0.2066  0.5710
   96CHL1  H15B 9530   5.015   6.196   7.380 -3.5810  0.9281 -0.0359
   96CHL1   C16 9531   5.098   6.324   7.549 -0.0971  0.0218  0.1243
   96CHL1  H16A 9532   5.022   6.326   7.630 -1.9578 -0.9733 -1.5425
   96CHL1  H16B 9533   5.168   6.241   7.575 -0.0510  0.3060  0.9079
   96CHL1   C17 9534   5.188   6.448   7.529  0.3347  0.7003 -0.0223
   96CHL1   H17 9535   5.290   6.405   7.528 -0.7760 -2.0325 -1.0327
   96CHL1   C13 9536   5.177   6.492   7.376  0.1347 -0.2575 -0.3054
   96CHL1   C18 9537   5.066   6.602   7.368 -0.7106 -0.7227 -0.3875
   96CHL1  H18A 9538   5.034   6.646   7.271 -0.9336 -1.8382 -0.8227
   96CHL1  H18B 9539   4.988   6.565   7.437 -0.5315  0.7175  0.6036
   96CHL1  H18C 9540   5.111   6.695   7.410 -0.0489  0.0508 -2.7094
   96CHL1   C12 9541   5.305   6.541   7.304 -0.0540 -0.4348  0.4882
   96CHL1  H12A 9542   5.334   6.640   7.347 -1.1770 -0.0884  0.4639
   96CHL1  H12B 9543   5.390   6.472   7.325  0.6649  0.3076  0.0621
   96CHL1   C11 9544   5.283   6.565   7.161  0.5353 -0.6529 -0.0589
   96CHL1  H11A 9545   5.220   6.656   7.153 -1.1037 -1.7458  0.1345
   96CHL1  H11B 9546   5.379   6.595   7.114 -0.8217 -0.4991 -2.8336
   96CHL1    C9 9547   5.222   6.444   7.083 -1.0331  0.4848 -0.1461
   96CHL1    H9 9548   5.306   6.372   7.081 -1.1709  0.3161  0.1027
   96CHL1   C10 9549   5.188   6.473   6.937 -0.6431 -0.1298 -0.4988
   96CHL1   C19 9550   5.095   6.599   6.923 -0.8227  1.1105  0.6389
   96CHL1  H19A 9551   5.089   6.620   6.814  0.8450 -0.1274  0.2737
   96CHL1  H19B 9552   4.991   6.584   6.959 -1.4280  0.6945 -1.2290
   96CHL1  H19C 9553   5.131   6.697   6.960 -0.5758  0.9790  0.7471
   96CHL1    C1 9554   5.309   6.505   6.846 -0.5040 -0.3687  0.5816
   96CHL1   H1A 9555   5.345   6.605   6.878 -1.9865  0.3736 -0.0485
   96CHL1   H1B 9556   5.388   6.435   6.882  1.1122  2.0505  1.8616
   96CHL1    C2 9557   5.289   6.496   6.692  0.8428 -0.5805  0.3616
   96CHL1   H2A 9558   5.393   6.498   6.651  0.5958  1.4169 -0.2188
   96CHL1   H2B 9559   5.232   6.586   6.662 -0.3425 -1.2109  0.6981
   96CHL1   C20 9560   5.192   6.549   7.641  0.5161 -1.1218 -0.4276
   96CHL1   H20 9561   5.231   6.644   7.598  0.0017  0.5697  2.6478
   96CHL1   C21 9562   5.284   6.495   7.748 -0.0793 -0.2425 -0.3530
   96CHL1  H21A 9563   5.259   6.390   7.771  1.7249 -0.4058  0.9437
   96CHL1  H21B 9564   5.284   6.555   7.841 -0.1756  0.3051 -0.7008
   96CHL1  H21C 9565   5.391   6.516   7.722 -0.5584  1.4823 -1.0343
   96CHL1   C22 9566   5.058   6.583   7.710 -0.0980 -1.0285  0.4097
   96CHL1  H22A 9567   4.978   6.604   7.636 -0.5585  1.8481  1.6466
   96CHL1  H22B 9568   5.022   6.492   7.764 -2.5146 -0.8467 -0.8389
   96CHL1   C23 9569   5.044   6.704   7.812  0.0101 -0.3449  0.2870
   96CHL1  H23A 9570   5.134   6.770   7.808 -1.6437  2.0422  1.3551
   96CHL1  H23B 9571   4.951   6.762   7.794  2.3328  2.9632 -1.6525
   96CHL1   C24 9572   5.042   6.664   7.961 -0.1292  0.0078 -0.4201
   96CHL1  H24A 9573   5.132   6.600   7.979 -1.6767 -2.2761 -0.6428
   96CHL1  H24B 9574   5.048   6.759   8.019 -1.2531  0.7366 -1.4733
   96CHL1   C25 9575   4.922   6.581   8.006  0.4810  0.0743  0.0281
   96CHL1   H25 9576   4.926   6.479   7.961  0.7044  1.0516 -2.2151
   96CHL1   C26 9577   4.924   6.555   8.152  0.3137  0.6510 -0.1978
   96CHL1  H26A 9578   5.011   6.491   8.178  0.3173  0.5463 -0.4694
   96CHL1  H26B 9579   4.944   6.655   8.198  1.7892  0.2472  0.0758
   96CHL1  H26C 9580   4.832   6.512   8.195  2.2734 -2.7397  0.7853
   96CHL1   C27 9581   4.789   6.639   7.974  0.2907 -0.5291  0.4780
   96CHL1  H27A 9582   4.701   6.575   7.994  0.6452 -0.8826  0.9321
   96CHL1  H27B 9583   4.773   6.744   8.008  1.1871  0.2470 -1.3996
   96CHL1  H27C 9584   4.787   6.650   7.864  1.5906 -0.1836  0.4718
   97OSM      N 9585   3.095   1.193  10.981  0.2726 -0.3690 -0.1608
   97OSM    C15 9586   3.078   1.121  10.857 -0.0868 -0.9915 -0.3947
   97OSM   H15A 9587   3.154   1.150  10.785 -0.3917  0.8837  0.0163
   97OSM   H15B 9588   2.979   1.157  10.832 -0.1851  1.8638  3.6604
   97OSM   H15C 9589   3.075   1.016  10.881 -2.6716 -0.5877  1.2688
   97OSM    C14 9590   3.232   1.175  11.041 -0.3955 -0.3335 -0.2099
   97OSM   H14A 9591   3.240   1.214  11.142 -0.0329  1.5552 -0.9569
   97OSM   H14B 9592   3.310   1.207  10.974  1.0011 -1.1954  0.9723
   97OSM   H14C 9593   3.257   1.070  11.044 -0.0404 -0.3733 -3.3080
   97OSM    C13 9594   3.056   1.330  10.977  0.3910  0.5838 -0.2315
   97OSM   H13A 9595   2.951   1.353  10.982  0.1324 -0.3309 -1.3259
   97OSM   H13B 9596   3.109   1.391  10.907 -2.1027  1.2921 -1.5535
   97OSM   H13C 9597   3.096   1.376  11.067  3.1099 -1.8089 -0.1276
   97OSM    C12 9598   2.994   1.136  11.085  0.1287 -0.2913 -0.1170
   97OSM   H12A 9599   2.903   1.119  11.029 -0.2084  0.3707  0.2173
   97OSM   H12B 9600   2.972   1.204  11.166 -0.2652  0.0909 -0.5341
   97OSM    C11 9601   3.033   1.000  11.143  0.0494 -0.4203  0.2496
   97OSM   H11A 9602   2.967   0.984  11.231 -0.9792 -2.3550 -0.8633
   97OSM   H11B 9603   3.136   1.000  11.186 -0.0972 -3.7499  0.6724
   97OSM      P 9604   2.916   0.787  11.053 -0.2883 -0.0835  0.0438
   97OSM    O13 9605   2.967   0.685  10.958 -0.0877 -0.0346 -0.8669
   97OSM    O14 9606   2.921   0.743  11.199  0.5259 -0.2484 -0.0148
   97OSM    O11 9607   2.776   0.837  11.007  0.3794  0.2276 -0.1307
   97OSM    O12 9608   3.014   0.907  11.041 -0.3608 -0.3721  0.1157
   97OSM    C1S 9609   2.745   0.896  10.878 -0.3467 -0.0828  0.1488
   97OSM    H1S 9610   2.833   0.954  10.841  0.5655 -1.4181  0.1894
   97OSM    H1T 9611   2.661   0.969  10.882  0.5458  0.9322  1.0834
   97OSM     NF 9612   2.706   0.872  10.635  0.8287  0.6815 -0.2038
   97OSM    HNF 9613   2.620   0.880  10.586  0.1309 -1.9492  0.5661
   97OSM    C2S 9614   2.715   0.796  10.763  0.5395 -1.0188  0.1866
   97OSM    H2S 9615   2.806   0.733  10.754  2.6661  1.5853  2.4330
   97OSM    C3S 9616   2.583   0.726  10.788 -0.4555  0.1222 -0.1888
   97OSM    H3S 9617   2.503   0.802  10.801  1.0324  1.6546  0.3203
   97OSM     O3 9618   2.580   0.650  10.917  0.2008 -0.6053  0.3197
   97OSM    HO3 9619   2.662   0.667  10.964  0.7313 -0.1073 -0.7691
   97OSM    C4S 9620   2.542   0.635  10.676  0.4224  0.8601 -0.1406
   97OSM    H4S 9621   2.453   0.672  10.622 -3.0326 -1.8954  3.3249
   97OSM    C5S 9622   2.593   0.512  10.640  0.6978 -0.1777  0.7507
   97OSM    H5S 9623   2.676   0.465  10.694  0.6926 -0.3524  0.6080
   97OSM    C6S 9624   2.541   0.435  10.523 -0.2206 -0.4272 -0.5141
   97OSM    H6S 9625   2.444   0.398  10.561 -0.7850  3.2850  2.0131
   97OSM    H6T 9626   2.602   0.343  10.511  0.0565 -0.3527  0.2544
   97OSM    C7S 9627   2.551   0.508  10.384 -0.7824  0.6433  0.0722
   97OSM    H7S 9628   2.641   0.571  10.372 -0.5600  0.2597 -0.3249
   97OSM    H7T 9629   2.474   0.588  10.380 -2.6762 -1.1052  0.2120
   97OSM    C8S 9630   2.542   0.419  10.255  0.3479  0.4964  0.5518
   97OSM    H8S 9631   2.457   0.348  10.242  0.3730  0.3576  1.1368
   97OSM    H8T 9632   2.624   0.344  10.258 -1.0472 -1.0600  0.3641
   97OSM    C9S 9633   2.574   0.488  10.114  0.2332 -0.3317  0.1258
   97OSM    H9S 9634   2.568   0.598  10.130 -1.7323 -0.6648  2.0454
   97OSM    H9T 9635   2.503   0.453  10.037 -0.7516  2.7163 -0.4392
   97OSM   C10S 9636   2.722   0.459  10.081  0.2665 -0.0703 -0.0076
   97OSM   H10S 9637   2.753   0.353  10.092  0.1155 -0.2540 -1.2671
   97OSM   H10T 9638   2.774   0.506  10.168 -1.0706  1.6053 -0.0827
   97OSM   C11S 9639   2.778   0.539   9.961  0.4945  0.0135 -1.2834
   97OSM   H11S 9640   2.774   0.649   9.975 -2.7108 -0.0348 -1.5926
   97OSM   H11T 9641   2.718   0.528   9.868  0.8887 -1.8906 -1.3452
   97OSM   C12S 9642   2.931   0.506   9.947 -0.5880 -0.4059  0.2442
   97OSM   H12S 9643   2.941   0.397   9.931 -0.4265 -0.2482 -0.7834
   97OSM   H12T 9644   2.983   0.532  10.042 -1.1948  0.0593  0.4542
   97OSM   C13S 9645   3.008   0.574   9.827  0.9544 -0.2002  0.4631
   97OSM   H13S 9646   3.114   0.569   9.858  0.9379  3.1726  1.2529
   97OSM   H13T 9647   2.989   0.684   9.829  0.8470 -0.2093  0.0283
   97OSM   C14S 9648   2.979   0.518   9.686 -0.8546  0.5763  0.1238
   97OSM   H14S 9649   2.871   0.537   9.671 -0.5764  1.2613 -1.0642
   97OSM   H14T 9650   2.998   0.409   9.671 -0.0160  0.9121 -1.3164
   97OSM   C15S 9651   3.065   0.599   9.584 -0.0646  0.1540 -0.4727
   97OSM   H15S 9652   3.165   0.552   9.584 -1.0372 -2.0192 -2.3305
   97OSM   H15T 9653   3.079   0.701   9.627  1.6248 -0.9107  1.5548
   97OSM   C16S 9654   3.013   0.606   9.437  0.4820 -0.7012  0.4150
   97OSM   H16S 9655   2.923   0.671   9.438  0.7272 -0.3535 -0.0686
   97OSM   H16T 9656   2.979   0.508   9.397 -0.2707  0.0980 -0.9196
   97OSM   C17S 9657   3.108   0.659   9.330 -0.0644 -0.3323  0.1040
   97OSM   H17S 9658   3.209   0.615   9.347  0.1349  0.0761 -0.0310
   97OSM   H17T 9659   3.122   0.767   9.350  0.3200 -0.3258 -0.2010
   97OSM   C18S 9660   3.045   0.639   9.193  0.1308  0.2377  0.1855
   97OSM   H18S 9661   3.101   0.709   9.128  0.7108 -1.0370 -0.7209
   97OSM   H18T 9662   2.936   0.654   9.204  0.0815 -0.8135  1.3938
   97OSM   H18U 9663   3.063   0.532   9.169  1.0777 -0.1355  2.4059
   97OSM    C1F 9664   2.809   0.948  10.594  0.0444 -0.1175  0.3127
   97OSM     OF 9665   2.925   0.924  10.631  0.0092  0.3218 -0.5305
   97OSM    C2F 9666   2.783   1.050  10.496 -0.1379 -0.4100  0.7099
   97OSM    H2F 9667   2.803   1.147  10.547  1.5832  0.0934 -0.8917
   97OSM    H2G 9668   2.681   1.053  10.453 -0.2507  1.1769  1.0654
   97OSM    C3F 9669   2.861   1.046  10.365  0.9469 -0.1191 -0.5459
   97OSM    H3F 9670   2.966   1.052  10.398  0.6766  0.9109  0.1474
   97OSM    H3G 9671   2.834   1.133  10.301  0.5478  0.6680  0.6775
   97OSM    C4F 9672   2.850   0.904  10.299  0.1296 -0.7336 -0.2974
   97OSM    H4F 9673   2.742   0.878  10.290  0.0958 -0.5326 -0.4578
   97OSM    H4G 9674   2.885   0.828  10.372 -0.3560 -1.3791 -0.7344
   97OSM    C5F 9675   2.930   0.883  10.165 -0.4620  0.1951  0.3201
   97OSM    H5F 9676   2.907   0.786  10.115 -3.3017  0.7075  0.5685
   97OSM    H5G 9677   3.040   0.894  10.177 -0.3961  0.6432 -0.6168
   97OSM    C6F 9678   2.893   0.989  10.065 -0.7063 -0.2864  0.3160
   97OSM    H6F 9679   2.901   1.089  10.112  1.7801  0.8986 -2.4729
   97OSM    H6G 9680   2.792   0.969  10.024 -0.6596  0.4321 -0.1515
   97OSM    C7F 9681   3.002   1.003   9.960  0.2456 -0.1221 -0.2218
   97OSM    H7F 9682   3.011   0.908   9.903  0.0671  0.2573 -0.8947
   97OSM    H7G 9683   3.101   1.014  10.008 -0.0152  0.5145  0.1782
   97OSM    C8F 9684   2.966   1.121   9.865  0.0660 -0.2105  0.8224
   97OSM    H8F 9685   2.943   1.207   9.932  0.0171 -0.1112  0.6773
   97OSM    H8G 9686   2.870   1.091   9.818 -0.1245  1.2573  0.2526
   97OSM    C9F 9687   3.066   1.156   9.762  0.4503  0.4893 -0.2458
   97OSM    H9F 9688   3.169   1.150   9.800 -0.4633  0.6123  2.3316
   97OSM   C10F 9689   3.046   1.180   9.637  0.0056  0.9003  0.0514
   97OSM   H10F 9690   3.138   1.212   9.585  0.0448  1.3944  0.4196
   97OSM   C11F 9691   2.920   1.187   9.548 -0.8870 -0.4617  0.1723
   97OSM   H11F 9692   2.867   1.282   9.571 -2.8717 -1.2346 -1.0294
   97OSM   H11G 9693   2.849   1.109   9.584  2.2374 -2.9299  1.1801
   97OSM   C12F 9694   2.945   1.188   9.388  0.1269  0.4830  0.9121
   97OSM   H12F 9695   3.025   1.263   9.369  1.0718 -1.1257 -1.5850
   97OSM   H12G 9696   2.853   1.222   9.336  0.1072 -4.5645 -2.6976
   97OSM   C13F 9697   2.995   1.053   9.333 -0.9943  0.2980  0.2319
   97OSM   H13F 9698   2.913   0.982   9.357  0.3099 -0.8702  1.3051
   97OSM   H13G 9699   3.092   1.024   9.377  0.0889  0.4877 -1.9613
   97OSM   C14F 9700   2.993   1.053   9.175  0.0219  0.4981 -0.0699
   97OSM   H14F 9701   3.004   0.948   9.138  1.0116  0.1471  1.1979
   97OSM   H14G 9702   3.069   1.120   9.130 -0.7370  0.8981 -0.7737
   97OSM   C15F 9703   2.858   1.101   9.118 -0.7007 -0.0667  0.6420
   97OSM   H15F 9704   2.846   1.211   9.127 -0.4108  0.2013 -2.0150
   97OSM   H15G 9705   2.776   1.046   9.169 -1.2907  2.9114  3.0446
   97OSM   C16F 9706   2.837   1.081   8.968  0.8424 -1.0260 -0.6757
   97OSM   H16F 9707   2.865   0.981   8.927 -0.7942 -1.9797  0.5175
   97OSM   H16G 9708   2.897   1.160   8.917 -1.9260  0.8693 -1.0699
   97OSM   C17F 9709   2.696   1.103   8.928  0.2859 -0.4864  0.0422
   97OSM   H17F 9710   2.666   1.197   8.979  1.1445 -0.3544  0.3122
   97OSM   H17G 9711   2.631   1.029   8.978 -0.6225  0.6168  0.5034
   97OSM   C18F 9712   2.669   1.101   8.778 -0.2083  0.1602  0.2642
   97OSM   H18F 9713   2.722   1.011   8.739  1.2741  0.9646  0.3817
   97OSM   H18G 9714   2.716   1.189   8.730  1.6953  0.2090  2.1434
   97OSM   H18H 9715   2.561   1.111   8.756 -0.2322  0.3973  0.4929
   98OSM      N 9716   1.521   0.505  11.247 -0.4661 -0.5623 -0.2379
   98OSM    C15 9717   1.388   0.569  11.270  0.1572 -0.1205 -0.4188
   98OSM   H15A 9718   1.369   0.612  11.172  0.5046  2.2991  0.5334
   98OSM   H15B 9719   1.378   0.646  11.345  0.1268  0.3061 -0.8586
   98OSM   H15C 9720   1.307   0.499  11.286  1.5542 -1.5725  0.3320
   98OSM    C14 9721   1.624   0.608  11.244 -0.5672 -0.0947 -0.9262
   98OSM   H14A 9722   1.714   0.562  11.205  1.4974  2.2052  0.9885
   98OSM   H14B 9723   1.640   0.648  11.343  0.3160  1.1010 -1.5379
   98OSM   H14C 9724   1.603   0.692  11.180 -0.7135  0.1264 -0.5931
   98OSM    C13 9725   1.540   0.410  11.368  0.3243 -0.3346  0.3652
   98OSM   H13A 9726   1.448   0.357  11.387 -0.4384  0.2111 -1.6485
   98OSM   H13B 9727   1.557   0.475  11.453  0.3342 -1.0181  0.8892
   98OSM   H13C 9728   1.615   0.341  11.335  0.9716  1.2697 -1.6266
   98OSM    C12 9729   1.532   0.421  11.119 -0.2025 -0.4836 -0.0660
   98OSM   H12A 9730   1.516   0.480  11.030 -0.2888 -2.9863 -1.7581
   98OSM   H12B 9731   1.456   0.345  11.126 -0.9011  0.3049  1.0429
   98OSM    C11 9732   1.658   0.336  11.075 -0.1723 -0.1545  0.2749
   98OSM   H11A 9733   1.630   0.281  10.983  0.2611 -2.2386  1.3444
   98OSM   H11B 9734   1.675   0.266  11.160  1.1888 -2.5560 -1.9162
   98OSM      P 9735   1.771   0.508  10.925 -0.5715 -0.0352  0.1113
   98OSM    O13 9736   1.637   0.558  10.895 -0.6636  0.3680 -0.3262
   98OSM    O14 9737   1.872   0.612  10.946  0.8962 -0.3178  0.3509
   98OSM    O11 9738   1.808   0.408  10.818 -0.3303  0.1355 -0.2777
   98OSM    O12 9739   1.770   0.412  11.048 -0.2506  0.1399 -0.4832
   98OSM    C1S 9740   1.728   0.388  10.701 -0.8601  0.0788  0.4169
   98OSM    H1S 9741   1.719   0.483  10.644  2.0174 -0.0246 -0.2693
   98OSM    H1T 9742   1.623   0.370  10.734 -1.4264  0.6032 -1.0703
   98OSM     NF 9743   1.707   0.273  10.496 -0.5183  0.0117 -0.0354
   98OSM    HNF 9744   1.634   0.207  10.477 -0.2486 -0.0186 -0.9599
   98OSM    C2S 9745   1.777   0.266  10.620 -0.3023 -0.0314 -0.2084
   98OSM    H2S 9746   1.886   0.275  10.599 -0.6400  2.2514 -1.0444
   98OSM    C3S 9747   1.746   0.131  10.695  0.5213 -0.5090 -0.5486
   98OSM    H3S 9748   1.637   0.111  10.706  0.6266 -1.0356 -0.4698
   98OSM     O3 9749   1.778   0.129  10.834  0.2104  0.4288 -0.2290
   98OSM    HO3 9750   1.799   0.221  10.853 -0.5443  0.1169  2.1712
   98OSM    C4S 9751   1.801   0.016  10.612 -0.0785 -0.8210 -0.3276
   98OSM    H4S 9752   1.731  -0.005  10.530 -1.7077 -0.5161  0.9563
   98OSM    C5S 9753   1.920  -0.038  10.615 -0.1620 -0.1960  0.5986
   98OSM    H5S 9754   1.992  -0.010  10.693 -0.6859  0.5800  0.8081
   98OSM    C6S 9755   1.977  -0.143  10.524 -0.0183 -0.8625  0.2942
   98OSM    H6S 9756   1.997  -0.237  10.579  1.1895 -0.5322  0.4325
   98OSM    H6T 9757   2.081  -0.115  10.496 -0.9614  1.6889 -0.8039
   98OSM    C7S 9758   1.909  -0.168  10.384 -0.9231 -0.0900  0.0560
   98OSM    H7S 9759   1.802  -0.197  10.393 -1.3680  1.5814  0.1791
   98OSM    H7T 9760   1.966  -0.261  10.359  0.9750  1.3115 -0.9700
   98OSM    C8S 9761   1.935  -0.046  10.293 -0.4402  0.4123 -0.6077
   98OSM    H8S 9762   2.044  -0.032  10.281  0.0536 -2.8547 -0.5252
   98OSM    H8T 9763   1.895   0.047  10.339  3.6457  1.0981  1.8020
   98OSM    C9S 9764   1.883  -0.066  10.146  0.2342 -1.3687  0.2117
   98OSM    H9S 9765   1.773  -0.054  10.149  0.0673 -2.1967 -1.5760
   98OSM    H9T 9766   1.902  -0.171  10.117  2.9517 -1.3342  1.7457
   98OSM   C10S 9767   1.940   0.034  10.038  0.5089 -0.6246  0.2817
   98OSM   H10S 9768   2.046   0.067  10.042  0.4439  0.1417 -2.8988
   98OSM   H10T 9769   1.887   0.132  10.048  0.7962 -0.6073  1.7130
   98OSM   C11S 9770   1.929  -0.020   9.897 -0.2136  0.1847  0.4400
   98OSM   H11S 9771   1.822  -0.042   9.875 -0.5670 -1.6071  3.5879
   98OSM   H11T 9772   1.993  -0.111   9.896 -0.5288 -0.0334  0.1981
   98OSM   C12S 9773   1.981   0.076   9.790  0.0473  0.0296  0.5619
   98OSM   H12S 9774   2.092   0.079   9.787 -0.0126  1.9897  0.1693
   98OSM   H12T 9775   1.956   0.183   9.807  1.3870  0.7345 -1.7647
   98OSM   C13S 9776   1.936   0.031   9.655 -0.4439 -0.2910 -0.1466
   98OSM   H13S 9777   1.826   0.039   9.644 -0.4025 -1.4456 -1.5806
   98OSM   H13T 9778   1.956  -0.074   9.624 -0.3286  0.1665 -1.6888
   98OSM   C14S 9779   1.985   0.112   9.534 -0.2631  0.2264  0.4394
   98OSM   H14S 9780   2.089   0.076   9.525  0.0675  1.0335  0.9164
   98OSM   H14T 9781   1.984   0.218   9.569  1.5678  0.4170 -0.0455
   98OSM   C15S 9782   1.899   0.093   9.411 -0.1971  0.5757 -0.3825
   98OSM   H15S 9783   1.799   0.140   9.418 -0.5261  0.0209 -1.2860
   98OSM   H15T 9784   1.881  -0.015   9.394 -1.1260  0.4056  1.5970
   98OSM   C16S 9785   1.966   0.143   9.282  0.2524 -0.3349  0.0011
   98OSM   H16S 9786   2.044   0.071   9.251  0.6064  0.2031 -0.3679
   98OSM   H16T 9787   2.014   0.243   9.291 -1.2119  0.2980  0.9432
   98OSM   C17S 9788   1.868   0.142   9.169  0.2670  0.1578  0.0572
   98OSM   H17S 9789   1.769   0.191   9.184  0.0592 -0.0639 -0.5486
   98OSM   H17T 9790   1.837   0.037   9.153  0.2733  0.1674 -0.0173
   98OSM   C18S 9791   1.935   0.203   9.042 -0.2726  0.0066  0.0464
   98OSM   H18S 9792   1.884   0.180   8.947  0.0715  0.7538 -0.3214
   98OSM   H18T 9793   2.043   0.178   9.036 -0.3604 -0.3599  0.0053
   98OSM   H18U 9794   1.942   0.313   9.056  1.0153  0.0666 -0.9462
   98OSM    C1F 9795   1.723   0.362  10.401  0.0934 -0.4796  0.3224
   98OSM     OF 9796   1.792   0.461  10.413  0.2549 -0.1116 -0.1133
   98OSM    C2F 9797   1.643   0.350  10.274  0.1356  0.1179  0.3793
   98OSM    H2F 9798   1.549   0.407  10.294 -0.4465 -0.0513 -1.7297
   98OSM    H2G 9799   1.616   0.244  10.253 -2.1418  0.6729  0.3349
   98OSM    C3F 9800   1.718   0.405  10.152  0.8121  0.0118 -0.5455
   98OSM    H3F 9801   1.815   0.352  10.137  1.9228  2.1485 -1.1532
   98OSM    H3G 9802   1.750   0.511  10.166  1.9945 -0.3875 -0.0883
   98OSM    C4F 9803   1.642   0.383  10.022 -0.6303 -0.1872 -1.4020
   98OSM    H4F 9804   1.554   0.450  10.012 -0.4151  0.3482  0.0840
   98OSM    H4G 9805   1.622   0.275  10.013 -0.9885 -0.4407  1.6799
   98OSM    C5F 9806   1.734   0.408   9.901 -0.2589  0.0730  0.2990
   98OSM    H5F 9807   1.804   0.322   9.894 -1.3916 -0.7947 -0.7087
   98OSM    H5G 9808   1.802   0.496   9.908 -0.5303  0.3781 -0.7783
   98OSM    C6F 9809   1.654   0.414   9.774  0.2748 -0.2892  0.3544
   98OSM    H6F 9810   1.579   0.496   9.775  2.4498  1.8084 -1.8172
   98OSM    H6G 9811   1.599   0.318   9.769  3.4916 -2.1851 -0.5322
   98OSM    C7F 9812   1.744   0.422   9.641  0.1427  0.2886 -0.2338
   98OSM    H7F 9813   1.824   0.345   9.647  1.0025  0.9657 -2.5127
   98OSM    H7G 9814   1.800   0.517   9.650  1.6939 -0.2999 -3.1621
   98OSM    C8F 9815   1.664   0.423   9.503 -0.6163  0.8503 -0.1252
   98OSM    H8F 9816   1.587   0.503   9.516 -1.2520  0.2972 -0.4089
   98OSM    H8G 9817   1.624   0.319   9.492  2.1303 -0.0582 -2.0638
   98OSM    C9F 9818   1.745   0.449   9.384  0.0539  0.1246  0.2175
   98OSM    H9F 9819   1.852   0.429   9.401  0.0195 -0.3036 -0.0563
   98OSM   C10F 9820   1.690   0.482   9.263 -0.5358  0.5061 -0.4653
   98OSM   H10F 9821   1.755   0.488   9.175 -1.1748 -0.9355 -1.0484
   98OSM   C11F 9822   1.541   0.502   9.249 -0.0614 -0.1038  0.1244
   98OSM   H11F 9823   1.518   0.611   9.244  0.1916 -0.0805 -0.5914
   98OSM   H11G 9824   1.478   0.455   9.328  0.2013 -0.8829 -0.1319
   98OSM   C12F 9825   1.500   0.440   9.116 -0.0200  0.0577 -0.1111
   98OSM   H12F 9826   1.400   0.399   9.138 -0.4949  0.1814 -1.9565
   98OSM   H12G 9827   1.560   0.353   9.083 -1.7589 -0.1781 -2.8784
   98OSM   C13F 9828   1.486   0.534   8.997  0.4307 -0.4694  0.3267
   98OSM   H13F 9829   1.444   0.636   9.015 -2.8241 -1.5076 -1.0338
   98OSM   H13G 9830   1.405   0.490   8.935  1.3534 -1.9145  0.1307
   98OSM   C14F 9831   1.612   0.545   8.915  0.3960 -0.5274  1.1777
   98OSM   H14F 9832   1.635   0.446   8.871  2.7633  0.2837  0.4760
   98OSM   H14G 9833   1.688   0.577   8.989 -0.7648  1.7111  1.4467
   98OSM   C15F 9834   1.593   0.653   8.804 -0.9134 -0.4644 -0.6477
   98OSM   H15F 9835   1.563   0.746   8.858  1.5573  0.5903 -1.0478
   98OSM   H15G 9836   1.512   0.611   8.741 -1.7692  0.2972 -0.0800
   98OSM   C16F 9837   1.720   0.671   8.724 -0.0031  0.2618 -0.1927
   98OSM   H16F 9838   1.726   0.571   8.676 -0.1125  0.7756 -1.2783
   98OSM   H16G 9839   1.801   0.701   8.794 -1.4772  2.8937  0.4152
   98OSM   C17F 9840   1.705   0.772   8.606  0.5649 -0.1245 -0.0867
   98OSM   H17F 9841   1.630   0.742   8.530  0.7951  0.7182 -0.6441
   98OSM   H17G 9842   1.802   0.781   8.554  1.9578 -0.5540  2.3727
   98OSM   C18F 9843   1.672   0.909   8.664 -0.7216  0.3560 -0.1376
   98OSM   H18F 9844   1.644   0.980   8.583 -2.2574  0.3842  0.3989
   98OSM   H18G 9845   1.755   0.964   8.711 -1.3490  0.6830  0.6052
   98OSM   H18H 9846   1.585   0.908   8.733  0.9269 -3.0323  2.0089
   99OSM      N 9847   4.906   1.829  11.105 -0.5175 -0.2050 -0.5110
   99OSM    C15 9848   4.992   1.944  11.059 -0.5069 -0.6026  0.3484
   99OSM   H15A 9849   5.089   1.951  11.105  0.0177  1.7092 -1.0627
   99OSM   H15B 9850   4.933   2.034  11.061 -1.8145 -1.4487  1.5055
   99OSM   H15C 9851   5.018   1.929  10.955  1.2758  0.8139  0.5807
   99OSM    C14 9852   4.993   1.713  11.110  0.1138 -0.2368 -0.0273
   99OSM   H14A 9853   4.949   1.622  11.148 -2.1275  1.5629  1.7875
   99OSM   H14B 9854   5.071   1.725  11.183 -1.0636  2.5573  0.8500
   99OSM   H14C 9855   5.036   1.690  11.014  0.9871 -0.4115  0.4040
   99OSM    C13 9856   4.877   1.844  11.253  0.1891  0.0997  0.3334
   99OSM   H13A 9857   4.796   1.912  11.272  0.7980  0.4994  1.5087
   99OSM   H13B 9858   4.968   1.879  11.299  1.8423 -1.8457 -1.3311
   99OSM   H13C 9859   4.858   1.743  11.287  1.9872  0.3014  1.9735
   99OSM    C12 9860   4.785   1.804  11.023 -0.0714  0.5011  0.1990
   99OSM   H12A 9861   4.818   1.773  10.925  1.5164 -1.8517  1.4075
   99OSM   H12B 9862   4.740   1.902  11.016  1.5358  1.4511  2.2366
   99OSM    C11 9863   4.687   1.703  11.078 -0.2366 -0.8233  0.3245
   99OSM   H11A 9864   4.590   1.722  11.026  0.2748 -0.5692 -0.5397
   99OSM   H11B 9865   4.665   1.727  11.184  1.7137  0.6806  0.4026
   99OSM      P 9866   4.635   1.456  11.069 -0.0405 -0.1258 -0.3909
   99OSM    O13 9867   4.699   1.346  11.148 -0.2217 -0.0855  0.0643
   99OSM    O14 9868   4.506   1.507  11.125  0.1554  0.0433 -0.2978
   99OSM    O11 9869   4.617   1.408  10.923 -0.2844 -0.2932  0.0795
   99OSM    O12 9870   4.740   1.571  11.058 -0.6747  0.3387  0.2478
   99OSM    C1S 9871   4.487   1.409  10.866 -0.3326 -1.1431 -0.8037
   99OSM    H1S 9872   4.444   1.511  10.853  0.9636 -0.6021 -0.9186
   99OSM    H1T 9873   4.417   1.351  10.930 -0.3027  0.0697  0.3384
   99OSM     NF 9874   4.367   1.368  10.651  0.2060  0.4273  0.3448
   99OSM    HNF 9875   4.300   1.296  10.667 -1.5309  2.2653  1.4838
   99OSM    C2S 9876   4.483   1.335  10.726 -0.0633 -0.4732 -0.4856
   99OSM    H2S 9877   4.560   1.386  10.664 -0.0972  1.8607  1.3549
   99OSM    C3S 9878   4.505   1.184  10.736 -0.0401 -1.0479 -0.5130
   99OSM    H3S 9879   4.419   1.131  10.783 -0.8494  0.1761 -0.5895
   99OSM     O3 9880   4.617   1.151  10.813 -0.4223  0.2080 -0.1863
   99OSM    HO3 9881   4.660   1.233  10.839  0.2885 -0.4111  0.6168
   99OSM    C4S 9882   4.518   1.122  10.595 -0.3317 -0.5837 -0.3809
   99OSM    H4S 9883   4.607   1.152  10.537 -1.2255  0.2254 -1.3632
   99OSM    C5S 9884   4.449   1.026  10.549  0.7746 -0.3409 -0.1778
   99OSM    H5S 9885   4.370   0.985  10.614  0.1737  1.4889  0.3016
   99OSM    C6S 9886   4.473   0.967  10.408 -0.8491 -0.0755  0.2805
   99OSM    H6S 9887   4.378   0.954  10.352 -0.5423  1.1538 -0.5476
   99OSM    H6T 9888   4.508   0.862  10.425 -1.6597 -0.3354  0.3705
   99OSM    C7S 9889   4.575   1.019  10.308  0.4011 -0.1050 -0.4861
   99OSM    H7S 9890   4.679   1.010  10.347  0.8157  1.3564 -1.2298
   99OSM    H7T 9891   4.566   1.127  10.285 -0.8714  0.1004  0.9191
   99OSM    C8S 9892   4.585   0.945  10.172 -0.9407  0.1424  0.0349
   99OSM    H8S 9893   4.487   0.922  10.126 -0.5369 -0.0768 -0.7246
   99OSM    H8T 9894   4.623   0.842  10.189  1.3322  1.1151  1.0980
   99OSM    C9S 9895   4.681   1.010  10.075 -0.4172  0.3591  0.6665
   99OSM    H9S 9896   4.778   1.028  10.125 -0.0726  4.0389 -1.2007
   99OSM    H9T 9897   4.633   1.108  10.055  2.5573  1.3584 -1.9597
   99OSM   C10S 9898   4.689   0.938   9.943  0.1758  0.5378  0.3395
   99OSM   H10S 9899   4.581   0.921   9.923 -0.7768  2.4504  3.5635
   99OSM   H10T 9900   4.745   0.842   9.946 -0.3244  0.2853  3.3928
   99OSM   C11S 9901   4.755   1.022   9.831 -0.2548 -0.3990 -0.6006
   99OSM   H11S 9902   4.855   1.049   9.870 -0.0550  1.0573 -2.0908
   99OSM   H11T 9903   4.695   1.115   9.829  1.2755  0.6856  2.1455
   99OSM   C12S 9904   4.764   0.953   9.691 -0.3453 -0.3713 -0.0386
   99OSM   H12S 9905   4.841   1.008   9.633 -0.4091 -2.1677 -1.8773
   99OSM   H12T 9906   4.785   0.844   9.704  0.5215 -0.2013 -0.0342
   99OSM   C13S 9907   4.628   0.966   9.607  0.6528  0.3516 -0.3532
   99OSM   H13S 9908   4.596   1.071   9.624 -1.7645 -0.2954 -0.6738
   99OSM   H13T 9909   4.550   0.901   9.652  1.4381  1.0246  2.0993
   99OSM   C14S 9910   4.646   0.928   9.459 -0.0756  0.1898  0.4901
   99OSM   H14S 9911   4.548   0.910   9.412 -0.6905 -2.2042  2.5286
   99OSM   H14T 9912   4.697   0.829   9.448 -1.4769 -0.2568 -2.3800
   99OSM   C15S 9913   4.728   1.030   9.373  0.2489  0.1354  0.4293
   99OSM   H15S 9914   4.832   1.034   9.412  0.8851  0.8142 -1.2784
   99OSM   H15T 9915   4.677   1.128   9.377 -0.3979 -0.1357 -0.8619
   99OSM   C16S 9916   4.732   0.992   9.224  0.4019 -0.2785 -0.9457
   99OSM   H16S 9917   4.627   0.974   9.195  0.3938  2.0543 -2.4757
   99OSM   H16T 9918   4.790   0.898   9.224  1.1453  0.1049  2.1559
   99OSM   C17S 9919   4.797   1.092   9.130  0.3405  0.1481  0.1283
   99OSM   H17S 9920   4.905   1.097   9.153  1.4273  0.0082 -4.3634
   99OSM   H17T 9921   4.761   1.195   9.154 -0.1629  0.3670 -1.4837
   99OSM   C18S 9922   4.785   1.055   8.985  0.1204 -0.0705  0.0154
   99OSM   H18S 9923   4.832   1.127   8.915  1.1281 -2.5468 -1.9123
   99OSM   H18T 9924   4.678   1.062   8.954 -0.0424  0.9837  0.7984
   99OSM   H18U 9925   4.825   0.953   8.966  3.2891  1.6712 -3.3144
   99OSM    C1F 9926   4.332   1.484  10.596 -0.4299  0.3045  0.1375
   99OSM     OF 9927   4.398   1.582  10.617  0.2330 -0.0019 -0.0587
   99OSM    C2F 9928   4.204   1.479  10.513  0.6009  1.1291 -0.0418
   99OSM    H2F 9929   4.124   1.434  10.575  1.0032 -0.7621 -0.8590
   99OSM    H2G 9930   4.233   1.410  10.431  0.9073 -1.1627  1.9307
   99OSM    C3F 9931   4.178   1.614  10.452  0.3912 -0.3185 -0.3033
   99OSM    H3F 9932   4.193   1.692  10.530  0.2283  0.3660 -0.9505
   99OSM    H3G 9933   4.251   1.646  10.375  0.3307 -0.2202 -0.3185
   99OSM    C4F 9934   4.034   1.632  10.395 -0.2873 -1.1830  0.1800
   99OSM    H4F 9935   4.023   1.739  10.367  3.6999 -1.0608 -1.1971
   99OSM    H4G 9936   3.966   1.618  10.482 -0.2653 -0.4250  0.3207
   99OSM    C5F 9937   3.996   1.539  10.278 -0.0340  0.5483 -0.2035
   99OSM    H5F 9938   3.886   1.529  10.272  0.0165 -1.1799  1.3270
   99OSM    H5G 9939   4.027   1.434  10.297 -0.8380  0.4540  0.6391
   99OSM    C6F 9940   4.071   1.574  10.150 -0.4856  0.6825 -0.1092
   99OSM    H6F 9941   4.180   1.589  10.167 -0.4537  0.5874 -0.2365
   99OSM    H6G 9942   4.026   1.667  10.109 -0.2994 -0.3065 -2.6291
   99OSM    C7F 9943   4.069   1.475  10.037 -0.2489  0.6364  0.0376
   99OSM    H7F 9944   4.115   1.383  10.078 -1.0127 -0.4628 -1.5150
   99OSM    H7G 9945   4.137   1.513   9.957 -0.8101 -1.4747 -1.4793
   99OSM    C8F 9946   3.931   1.439   9.975 -0.3872  0.5134  0.1995
   99OSM    H8F 9947   3.897   1.544   9.963  0.9846  0.7548 -2.0090
   99OSM    H8G 9948   3.872   1.389  10.054  0.8293 -0.9093  0.2326
   99OSM    C9F 9949   3.946   1.360   9.847 -0.7429  1.2549 -0.3821
   99OSM    H9F 9950   3.975   1.255   9.859  0.5261  1.8085  1.7213
   99OSM   C10F 9951   3.934   1.393   9.715  0.3550  0.0885  0.9004
   99OSM   H10F 9952   3.949   1.316   9.637  1.9093  2.1846 -0.9298
   99OSM   C11F 9953   3.906   1.526   9.653  0.0818 -0.2624  0.4419
   99OSM   H11F 9954   3.872   1.594   9.734 -2.0577 -1.3160  0.4616
   99OSM   H11G 9955   3.829   1.522   9.573 -1.4636  0.2618  1.8842
   99OSM   C12F 9956   4.032   1.599   9.597 -0.4546  0.1838 -0.2272
   99OSM   H12F 9957   4.080   1.517   9.541  0.1608  1.3254 -1.4085
   99OSM   H12G 9958   4.104   1.620   9.679 -0.9727  0.5319  0.1492
   99OSM   C13F 9959   4.000   1.721   9.507  0.3347  0.1882  0.2365
   99OSM   H13F 9960   4.070   1.804   9.532 -0.8727  0.2205  3.7439
   99OSM   H13G 9961   3.894   1.746   9.532  0.1698 -0.8272  0.5691
   99OSM   C14F 9962   4.023   1.682   9.357 -0.1254  0.0270 -0.0794
   99OSM   H14F 9963   3.971   1.591   9.319 -1.0452  0.2551  0.6094
   99OSM   H14G 9964   4.130   1.664   9.331 -0.5180 -1.5506 -0.6791
   99OSM   C15F 9965   3.957   1.790   9.271  0.2354  0.3916 -0.4082
   99OSM   H15F 9966   3.879   1.842   9.330 -0.8348  0.9276 -2.2627
   99OSM   H15G 9967   3.906   1.747   9.182 -1.2132  0.6363  0.2898
   99OSM   C16F 9968   4.057   1.893   9.213  0.3521 -0.0552 -0.5391
   99OSM   H16F 9969   4.130   1.924   9.291 -1.2404  0.3968  0.7927
   99OSM   H16G 9970   4.002   1.985   9.185 -1.1622 -1.3672 -2.0441
   99OSM   C17F 9971   4.133   1.844   9.092 -0.1648 -0.1571  0.4680
   99OSM   H17F 9972   4.183   1.748   9.116 -0.0826 -0.7264 -1.8676
   99OSM   H17G 9973   4.214   1.918   9.076 -1.2836  0.5245 -2.1595
   99OSM   C18F 9974   4.053   1.852   8.960  0.1130 -0.0412 -0.1669
   99OSM   H18F 9975   4.002   1.950   8.951  0.5255  0.0324 -1.8614
   99OSM   H18G 9976   3.978   1.770   8.956 -0.9491  0.8624  0.8151
   99OSM   H18H 9977   4.119   1.843   8.871  1.0347  0.3187  0.4688
  100OSM      N 9978   5.859   1.634  11.125 -0.3005 -0.6626 -0.0221
  100OSM    C15 9979   6.004   1.604  11.139  0.8406  0.4107 -0.0396
  100OSM   H15A 9980   6.025   1.539  11.222  0.4108 -0.0119 -0.2542
  100OSM   H15B 9981   6.061   1.695  11.155  1.4498  0.2357 -1.1283
  100OSM   H15C 9982   6.052   1.561  11.052  0.9849  2.0951 -0.8135
  100OSM    C14 9983   5.790   1.503  11.124  0.5330  0.3630  0.7869
  100OSM   H14A 9984   5.683   1.520  11.120 -0.1936 -3.8047  1.0375
  100OSM   H14B 9985   5.807   1.439  11.208 -1.1267 -0.8799  0.1986
  100OSM   H14C 9986   5.813   1.451  11.032  1.0388 -0.1183  1.1897
  100OSM    C13 9987   5.811   1.714  11.239 -1.1671  0.1553 -0.1111
  100OSM   H13A 9988   5.711   1.752  11.225 -0.7322  1.9159  1.4341
  100OSM   H13B 9989   5.870   1.802  11.256  1.5380 -1.3122 -1.6096
  100OSM   H13C 9990   5.802   1.649  11.325 -0.6269 -0.1463 -0.2794
  100OSM    C12 9991   5.833   1.708  10.995 -0.1712  0.6732  0.4205
  100OSM   H12A 9992   5.882   1.804  10.995  1.7847 -0.2964 -0.5530
  100OSM   H12B 9993   5.726   1.725  10.984  0.0908  0.3380 -3.2856
  100OSM    C11 9994   5.876   1.635  10.862 -0.0311  0.5397  0.5042
  100OSM   H11A 9995   5.830   1.673  10.768  2.9585 -0.4373 -1.4385
  100OSM   H11B 9996   5.836   1.531  10.856 -1.3550  1.0583  0.0435
  100OSM      P 9997   6.083   1.779  10.811  0.2909  0.7957  0.3732
  100OSM    O13 9998   6.018   1.894  10.880 -0.0550  0.1818 -0.1620
  100OSM    O14 9999   6.228   1.762  10.828 -0.4838  0.2869 -0.5655
  100OSM    O1110000   6.055   1.798  10.653 -0.7349  0.1621 -0.1972
  100OSM    O1210001   6.014   1.644  10.842 -0.2273 -0.7441  0.1537
  100OSM    C1S10002   6.089   1.679  10.576 -0.8001 -1.0733  0.1509
  100OSM    H1S10003   6.006   1.605  10.580 -0.6650 -1.1922  0.7036
  100OSM    H1T10004   6.183   1.637  10.616  0.7462  0.3420 -1.8897
  100OSM     NF10005   6.156   1.605  10.344 -0.5680  0.0473  0.1485
  100OSM    HNF10006   6.249   1.586  10.313  0.9368  1.6766  3.3205
  100OSM    C2S10007   6.139   1.726  10.429  0.0111  0.1447 -0.2078
  100OSM    H2S10008   6.049   1.773  10.385  0.4195  0.5959 -0.5683
  100OSM    C3S10009   6.263   1.820  10.433 -0.4604  0.3879 -0.5563
  100OSM    H3S10010   6.347   1.760  10.475 -1.8437 -1.7743 -0.7677
  100OSM     O310011   6.245   1.931  10.519 -0.5555 -0.5392 -0.0284
  100OSM    HO310012   6.167   1.915  10.572 -1.2146 -1.1440 -1.1695
  100OSM    C4S10013   6.302   1.874  10.303  0.7059 -1.1065 -0.7139
  100OSM    H4S10014   6.233   1.954  10.272  1.9559  0.0159 -0.6387
  100OSM    C5S10015   6.409   1.845  10.227 -0.0398 -0.7518  0.3904
  100OSM    H5S10016   6.482   1.768  10.256 -0.1724 -0.7368  0.7729
  100OSM    C6S10017   6.443   1.920  10.101  0.0375 -0.3757 -0.6379
  100OSM    H6S10018   6.552   1.940  10.112 -0.2870  0.0510  2.1724
  100OSM    H6T10019   6.386   2.011  10.074 -0.0930 -0.9162 -2.2129
  100OSM    C7S10020   6.430   1.821   9.979  0.4474  0.4084 -0.6816
  100OSM    H7S10021   6.327   1.781   9.969 -0.2486  2.0502 -0.2615
  100OSM    H7T10022   6.492   1.732  10.005 -1.4243  0.1781  3.2819
  100OSM    C8S10023   6.498   1.890   9.859  0.8452 -0.4766  0.5363
  100OSM    H8S10024   6.607   1.895   9.881  0.5421  0.2583  1.8882
  100OSM    H8T10025   6.450   1.989   9.846 -0.0783 -0.9868 -0.0313
  100OSM    C9S10026   6.466   1.827   9.715  0.3817  0.2797 -0.5074
  100OSM    H9S10027   6.355   1.831   9.708  0.3621 -0.0323 -0.3810
  100OSM    H9T10028   6.486   1.718   9.722 -2.7985 -0.3627 -0.3253
  100OSM   C10S10029   6.543   1.899   9.598 -0.4261  0.0107 -0.6497
  100OSM   H10S10030   6.649   1.870   9.581  0.3185  2.1058  0.3030
  100OSM   H10T10031   6.546   2.008   9.618 -1.1608  0.4514 -2.8054
  100OSM   C11S10032   6.466   1.868   9.463  0.6292  0.6451 -0.7556
  100OSM   H11S10033   6.372   1.928   9.462  0.8121  1.0672  2.4151
  100OSM   H11T10034   6.443   1.760   9.455  1.1712  0.4550  0.2145
  100OSM   C12S10035   6.546   1.915   9.344 -0.0842 -0.5037 -0.3411
  100OSM   H12S10036   6.639   1.855   9.355  0.8188  1.4044  2.9809
  100OSM   H12T10037   6.575   2.022   9.352 -0.1320 -0.4923 -0.3227
  100OSM   C13S10038   6.468   1.875   9.219  0.2829 -0.1059 -0.7640
  100OSM   H13S10039   6.361   1.906   9.224  0.8682  1.7153  0.8939
  100OSM   H13T10040   6.475   1.766   9.196 -1.0369 -0.7475  1.6782
  100OSM   C14S10041   6.541   1.941   9.100  0.1670 -0.3542 -0.1304
  100OSM   H14S10042   6.565   2.049   9.108 -2.5395  0.5146 -2.5592
  100OSM   H14T10043   6.470   1.950   9.015 -3.7091 -2.9946  2.5948
  100OSM   C15S10044   6.648   1.849   9.036  0.1947 -0.1287  0.5342
  100OSM   H15S10045   6.594   1.757   9.004  1.9483 -0.4261 -1.7036
  100OSM   H15T10046   6.724   1.824   9.112  3.0886 -0.6673 -2.4322
  100OSM   C16S10047   6.725   1.916   8.917 -0.6723  0.1460 -0.0768
  100OSM   H16S10048   6.783   2.006   8.945  0.4978 -0.7881  0.5657
  100OSM   H16T10049   6.654   1.951   8.839 -1.3880 -0.0363  0.4960
  100OSM   C17S10050   6.816   1.807   8.850 -0.6386  0.4594  0.9924
  100OSM   H17S10051   6.755   1.715   8.831 -1.1644  0.8274  0.8895
  100OSM   H17T10052   6.882   1.767   8.929 -0.1732  1.4365  1.1009
  100OSM   C18S10053   6.900   1.846   8.723  0.7575 -0.2650 -0.8145
  100OSM   H18S10054   6.820   1.859   8.647 -0.6325  1.9578  0.9599
  100OSM   H18T10055   6.973   1.767   8.697  0.1275 -1.0967 -0.0733
  100OSM   H18U10056   6.947   1.947   8.728 -1.0879  0.4924  2.5788
  100OSM    C1F10057   6.055   1.526  10.319 -0.5290 -0.1927 -0.4738
  100OSM     OF10058   5.937   1.540  10.353  0.1006  0.1754 -0.1925
  100OSM    C2F10059   6.098   1.413  10.233  0.3693 -0.4339 -0.3675
  100OSM    H2F10060   6.093   1.327  10.302 -0.5573  0.6611  0.9547
  100OSM    H2G10061   6.197   1.428  10.185  0.7613 -4.0230 -0.7866
  100OSM    C3F10062   6.000   1.391  10.109  0.0972 -0.7321  0.4129
  100OSM    H3F10063   5.904   1.356  10.154 -0.6989  0.5662 -0.2251
  100OSM    H3G10064   6.043   1.311  10.045  0.5010  1.2738 -1.8864
  100OSM    C4F10065   5.991   1.505  10.014 -0.2059 -0.2695  0.3016
  100OSM    H4F10066   6.092   1.539   9.982  0.6792 -2.0446  1.1344
  100OSM    H4G10067   5.946   1.597  10.057 -0.6484 -1.1501  1.7732
  100OSM    C5F10068   5.916   1.463   9.885 -0.3360 -0.1781  0.4039
  100OSM    H5F10069   5.818   1.418   9.915 -1.6750  2.4698  0.1293
  100OSM    H5G10070   5.987   1.391   9.839 -1.3480  0.4562 -2.2704
  100OSM    C6F10071   5.895   1.582   9.794  0.0150 -0.2377  0.0293
  100OSM    H6F10072   5.992   1.635   9.788 -0.1463 -0.0646 -1.2164
  100OSM    H6G10073   5.810   1.642   9.834  0.0249 -1.3626  1.7876
  100OSM    C7F10074   5.857   1.554   9.646 -0.1717  0.3525  0.2911
  100OSM    H7F10075   5.836   1.649   9.593 -3.3581 -0.7355 -0.5600
  100OSM    H7G10076   5.770   1.485   9.645  0.9819 -1.1453 -2.6907
  100OSM    C8F10077   5.971   1.472   9.578 -0.8303 -0.0447  0.5437
  100OSM    H8F10078   5.927   1.418   9.492 -1.0211  1.0310 -0.0436
  100OSM    H8G10079   6.016   1.392   9.640 -0.5014 -3.1647 -3.5313
  100OSM    C9F10080   6.087   1.561   9.538 -0.1890  0.1183 -0.6189
  100OSM    H9F10081   6.150   1.598   9.621  0.6135  0.1453 -1.2299
  100OSM   C10F10082   6.085   1.617   9.421 -1.0239 -0.4985  0.7613
  100OSM   H10F10083   6.168   1.687   9.408 -0.5086 -1.5598 -2.1262
  100OSM   C11F10084   5.999   1.600   9.301 -0.1084 -0.4531 -0.0953
  100OSM   H11F10085   5.953   1.697   9.273  1.4179 -0.0169 -1.1573
  100OSM   H11G10086   5.913   1.534   9.321  0.3872 -1.9097 -2.5134
  100OSM   C12F10087   6.073   1.541   9.182 -0.4433 -0.4805  1.0243
  100OSM   H12F10088   5.992   1.529   9.106  0.8303  0.9351 -0.6113
  100OSM   H12G10089   6.117   1.447   9.221  0.2674  0.3515  2.2700
  100OSM   C13F10090   6.183   1.630   9.118 -0.0879 -0.4352 -0.0496
  100OSM   H13F10091   6.274   1.626   9.182  1.1811  0.3930 -1.7692
  100OSM   H13G10092   6.148   1.735   9.130  0.6088 -0.4935  2.8148
  100OSM   C14F10093   6.222   1.595   8.973 -0.1353 -0.0379 -0.4301
  100OSM   H14F10094   6.127   1.591   8.916  0.0072 -1.4069 -0.5882
  100OSM   H14G10095   6.250   1.491   8.946  0.5913 -0.7594  2.8674
  100OSM   C15F10096   6.329   1.688   8.912 -0.1428 -0.2860  0.5201
  100OSM   H15F10097   6.423   1.645   8.953  0.3054 -1.9784 -2.1742
  100OSM   H15G10098   6.311   1.796   8.931 -0.8220 -0.2248 -0.4056
  100OSM   C16F10099   6.325   1.693   8.756  0.6292 -0.1543 -0.3589
  100OSM   H16F10100   6.401   1.770   8.730  2.1279 -1.6746 -0.5217
  100OSM   H16G10101   6.223   1.731   8.735  0.6927  0.8116  0.9786
  100OSM   C17F10102   6.336   1.563   8.670 -0.5320  0.2996  0.1580
  100OSM   H17F10103   6.252   1.493   8.691  1.1196 -1.2726  1.7465
  100OSM   H17G10104   6.432   1.511   8.690 -1.6202 -2.8313 -2.2706
  100OSM   C18F10105   6.332   1.589   8.518  0.1800 -0.6306 -0.5535
  100OSM   H18F10106   6.428   1.635   8.486  0.8217 -1.5406  0.0460
  100OSM   H18G10107   6.245   1.657   8.501  0.4617  0.1904  1.1740
  100OSM   H18H10108   6.299   1.495   8.469  1.9986  0.0116 -3.1061
  101OSM      N10109   2.360   0.819  11.149 -0.9847  0.0097  0.3724
  101OSM    C1510110   2.363   0.671  11.183  0.2816  0.6331 -0.2187
  101OSM   H15A10111   2.263   0.631  11.175  0.4512  0.2719 -0.5517
  101OSM   H15B10112   2.401   0.658  11.284  1.8851  2.6971 -0.5133
  101OSM   H15C10113   2.425   0.625  11.107 -0.5706 -0.4706 -0.2595
  101OSM    C1410114   2.279   0.878  11.261  0.3324 -0.1467 -0.3875
  101OSM   H14A10115   2.255   0.981  11.243 -0.8378 -0.2762  0.3929
  101OSM   H14B10116   2.340   0.886  11.350  0.3270  3.2032 -0.6133
  101OSM   H14C10117   2.196   0.811  11.277 -0.7601  1.4495  0.7303
  101OSM    C1310118   2.500   0.874  11.153 -0.9535 -0.1652  0.4160
  101OSM   H13A10119   2.494   0.982  11.143  1.0515 -0.3239 -3.6219
  101OSM   H13B10120   2.568   0.828  11.083  2.4167  1.4988  2.4474
  101OSM   H13C10121   2.547   0.857  11.249  1.3202 -3.4468 -1.1831
  101OSM    C1210122   2.294   0.840  11.014 -0.8022 -0.0147 -0.1801
  101OSM   H12A10123   2.192   0.806  11.019 -0.5311 -0.8909 -0.6003
  101OSM   H12B10124   2.348   0.770  10.952 -0.2948 -0.2090  0.4683
  101OSM    C1110125   2.293   0.981  10.947 -0.0602 -0.4199 -0.2420
  101OSM   H11A10126   2.241   0.957  10.851  2.3665 -2.7624 -1.0424
  101OSM   H11B10127   2.391   1.026  10.920 -1.2306  1.0836 -2.1333
  101OSM      P10128   2.068   1.092  11.022 -0.0125  0.2915 -0.1948
  101OSM    O1310129   2.000   0.964  10.996  0.0811 -0.1902  0.2456
  101OSM    O1410130   2.047   1.162  11.149  0.7678  0.2586  0.4004
  101OSM    O1110131   2.031   1.190  10.905  0.7050 -0.4773 -0.2555
  101OSM    O1210132   2.219   1.079  11.021  0.6855 -0.3905 -0.2459
  101OSM    C1S10133   2.130   1.250  10.819  0.2650 -0.5636  1.0573
  101OSM    H1S10134   2.235   1.239  10.852  1.0250 -1.9697 -1.7050
  101OSM    H1T10135   2.106   1.359  10.814  2.7119 -0.0195  0.4405
  101OSM     NF10136   2.233   1.289  10.604 -0.1319  0.3314 -0.4940
  101OSM    HNF10137   2.191   1.373  10.569 -3.2734 -1.2972 -0.8117
  101OSM    C2S10138   2.135   1.208  10.671 -0.3154 -0.1457  0.1899
  101OSM    H2S10139   2.161   1.102  10.652 -2.0974 -0.4727 -0.5714
  101OSM    C3S10140   1.990   1.212  10.612  0.2440 -0.2619 -0.3637
  101OSM    H3S10141   1.962   1.319  10.626  0.8605 -0.4366  2.5337
  101OSM     O310142   1.889   1.137  10.679  1.0348 -0.5346  0.4352
  101OSM    HO310143   1.912   1.156  10.771 -1.7172 -0.6505  1.1962
  101OSM    C4S10144   2.000   1.179  10.467  0.1680 -0.3636 -0.0130
  101OSM    H4S10145   2.025   1.271  10.412  0.2563  0.8524  2.0443
  101OSM    C5S10146   1.976   1.062  10.405  0.6222 -0.0888  0.4889
  101OSM    H5S10147   1.940   0.980  10.469  2.4738 -1.2232  0.1323
  101OSM    C6S10148   1.988   1.021  10.259 -0.7484  0.5864 -0.6724
  101OSM    H6S10149   2.016   1.111  10.200  0.5442 -0.5927 -1.9066
  101OSM    H6T10150   1.896   0.968  10.228  0.5251 -0.0797 -3.4419
  101OSM    C7S10151   2.095   0.915  10.254  0.6070 -0.1167  0.2307
  101OSM    H7S10152   2.075   0.858  10.161  0.2360 -1.7623  1.3178
  101OSM    H7T10153   2.101   0.845  10.340  0.3952 -1.7349 -1.0554
  101OSM    C8S10154   2.239   0.969  10.244 -0.0940 -0.2201  0.8465
  101OSM    H8S10155   2.289   0.994  10.340  1.1403  0.8525 -0.0567
  101OSM    H8T10156   2.242   1.066  10.188 -3.7402 -1.7733 -2.2799
  101OSM    C9S10157   2.322   0.860  10.178  0.5313 -0.1281 -0.1094
  101OSM    H9S10158   2.266   0.823  10.089 -2.0173 -2.5374  2.3771
  101OSM    H9T10159   2.314   0.790  10.265  0.9294 -0.4100 -0.2953
  101OSM   C10S10160   2.466   0.897  10.146  0.3668  0.8040  0.7521
  101OSM   H10S10161   2.527   0.805  10.159  0.6739  0.9620  0.4378
  101OSM   H10T10162   2.514   0.968  10.216  2.5345 -1.1379  1.2996
  101OSM   C11S10163   2.476   0.955  10.005 -0.2822 -0.7397 -0.1758
  101OSM   H11S10164   2.577   1.003  10.009 -0.5464 -0.1253 -0.7650
  101OSM   H11T10165   2.402   1.037  10.001  2.2846  1.7295  1.2237
  101OSM   C12S10166   2.457   0.856   9.891 -0.6075 -0.1679  0.1442
  101OSM   H12S10167   2.350   0.841   9.868 -0.4947  0.9865 -1.1687
  101OSM   H12T10168   2.488   0.750   9.907 -0.4670 -1.1067 -5.5050
  101OSM   C13S10169   2.530   0.897   9.765 -0.9013 -0.0543  0.3083
  101OSM   H13S10170   2.602   0.979   9.789 -1.3541  0.1438  0.9833
  101OSM   H13T10171   2.457   0.939   9.693  0.7416 -0.4873 -1.6688
  101OSM   C14S10172   2.607   0.781   9.688 -0.1165  0.1485 -0.0574
  101OSM   H14S10173   2.531   0.700   9.683  1.4021 -1.3856  0.9899
  101OSM   H14T10174   2.683   0.745   9.761 -1.8358  1.9598  2.6865
  101OSM   C15S10175   2.680   0.827   9.559  0.3513  0.0646  0.0603
  101OSM   H15S10176   2.754   0.748   9.534  0.7963  0.4008  0.3062
  101OSM   H15T10177   2.752   0.908   9.585  0.5796 -0.5434  1.3957
  101OSM   C16S10178   2.597   0.880   9.444 -1.1410  0.8915  0.3355
  101OSM   H16S10179   2.663   0.935   9.374 -1.6648  2.4437  1.0490
  101OSM   H16T10180   2.517   0.943   9.487 -1.2657 -0.4950  2.2076
  101OSM   C17S10181   2.520   0.768   9.367  0.6014  0.1494 -0.3606
  101OSM   H17S10182   2.450   0.707   9.428  2.2568 -0.5142  0.8844
  101OSM   H17T10183   2.592   0.690   9.335  2.2946  2.3115 -2.0270
  101OSM   C18S10184   2.440   0.819   9.238 -0.7614  0.0493  0.5668
  101OSM   H18S10185   2.388   0.728   9.202  1.2060 -0.9977  0.2698
  101OSM   H18T10186   2.515   0.864   9.169 -0.2816 -1.0969  0.3437
  101OSM   H18U10187   2.362   0.895   9.258 -0.3178  1.1227 -1.6436
  101OSM    C1F10188   2.359   1.270  10.611  0.2631  0.1712 -0.1179
  101OSM     OF10189   2.394   1.175  10.675 -0.3547 -0.8384 -0.1336
  101OSM    C2F10190   2.450   1.354  10.531 -0.4438  0.7051 -0.1866
  101OSM    H2F10191   2.554   1.346  10.569 -0.7399 -1.8464  0.1641
  101OSM    H2G10192   2.424   1.462  10.525 -1.9862  0.5327  2.4622
  101OSM    C3F10193   2.466   1.306  10.389 -0.2063  0.0976  0.5012
  101OSM    H3F10194   2.371   1.326  10.335  0.2900 -0.6804 -0.6928
  101OSM    H3G10195   2.472   1.195  10.393  1.2534  0.1662  0.5446
  101OSM    C4F10196   2.590   1.358  10.315  0.1189 -0.2852  0.6521
  101OSM    H4F10197   2.685   1.332  10.367  0.8160 -1.3192 -1.0783
  101OSM    H4G10198   2.569   1.466  10.304 -1.0181 -0.6324 -0.7970
  101OSM    C5F10199   2.588   1.300  10.174 -0.6135  0.1192 -0.1019
  101OSM    H5F10200   2.493   1.328  10.122  0.3685  1.3970 -1.2616
  101OSM    H5G10201   2.602   1.190  10.178 -1.3180  0.0323  0.0320
  101OSM    C6F10202   2.707   1.358  10.101 -0.4784 -0.3096  0.7544
  101OSM    H6F10203   2.722   1.466  10.120 -0.0388 -0.0808 -0.8131
  101OSM    H6G10204   2.794   1.310  10.152 -0.7520 -0.6446  0.9098
  101OSM    C7F10205   2.698   1.327   9.956  0.5042 -0.0216  0.2644
  101OSM    H7F10206   2.693   1.216   9.953  1.8662 -0.0929  0.2396
  101OSM    H7G10207   2.791   1.350   9.900 -0.4085  1.4703 -0.6737
  101OSM    C8F10208   2.570   1.378   9.876  0.1294 -0.2901 -0.6287
  101OSM    H8F10209   2.555   1.488   9.880  0.7307 -0.2314  0.2457
  101OSM    H8G10210   2.477   1.338   9.920 -0.0902  2.0646  1.1765
  101OSM    C9F10211   2.586   1.348   9.733  0.2541 -0.4615  0.4632
  101OSM    H9F10212   2.689   1.360   9.694 -0.9500  1.1713 -2.3680
  101OSM   C10F10213   2.482   1.325   9.653  0.8539  1.6473 -0.1688
  101OSM   H10F10214   2.496   1.300   9.547 -0.5392 -0.1373  0.0465
  101OSM   C11F10215   2.345   1.346   9.694  0.0350 -0.0296  0.5271
  101OSM   H11F10216   2.283   1.375   9.606  2.2656 -0.4106 -1.2192
  101OSM   H11G10217   2.336   1.433   9.762  0.1733  1.3559 -1.1914
  101OSM   C12F10218   2.260   1.214   9.736 -0.5062 -0.2120 -0.0386
  101OSM   H12F10219   2.158   1.237   9.772 -0.4108 -1.2117  0.8754
  101OSM   H12G10220   2.319   1.171   9.820 -1.6152 -1.5937  0.0554
  101OSM   C13F10221   2.237   1.112   9.619  0.7775 -0.0191 -0.0030
  101OSM   H13F10222   2.339   1.090   9.580  0.8703  0.2057  0.1137
  101OSM   H13G10223   2.187   1.167   9.537  2.3929 -1.2100 -1.8516
  101OSM   C14F10224   2.153   0.989   9.654 -0.5402 -0.1624  0.5099
  101OSM   H14F10225   2.069   1.028   9.715 -0.9397 -1.2808  0.6941
  101OSM   H14G10226   2.220   0.929   9.720  0.0110 -0.3342 -0.1925
  101OSM   C15F10227   2.093   0.918   9.535  0.3329  0.4469  0.5086
  101OSM   H15F10228   2.151   0.953   9.446 -0.6630  0.6323 -0.0748
  101OSM   H15G10229   1.987   0.948   9.524  0.9450  2.0977 -1.2935
  101OSM   C16F10230   2.090   0.769   9.542 -1.2930  0.8158  0.3990
  101OSM   H16F10231   2.025   0.726   9.621 -0.5014 -2.9789 -0.8866
  101OSM   H16G10232   2.195   0.741   9.566 -2.0038 -1.9323  0.4904
  101OSM   C17F10233   2.062   0.703   9.406  0.6507 -0.2223 -0.4228
  101OSM   H17F10234   2.113   0.758   9.324  1.6559  0.1329  0.4357
  101OSM   H17G10235   1.953   0.694   9.383  0.1745 -1.6012  2.1736
  101OSM   C18F10236   2.118   0.563   9.400 -0.2757 -0.5035 -0.3965
  101OSM   H18F10237   2.065   0.487   9.461  0.4431 -0.1607  0.6738
  101OSM   H18G10238   2.222   0.564   9.438 -0.1509 -1.0296 -0.7159
  101OSM   H18H10239   2.133   0.526   9.297  2.2620  0.2783 -0.3309
  102OSM      N10240   4.511   2.819  10.576 -0.1271 -0.3435  0.2592
  102OSM    C1510241   4.400   2.770  10.498 -0.8696  0.0995 -0.6981
  102OSM   H15A10242   4.422   2.759  10.393  1.5261 -1.0919 -0.1061
  102OSM   H15B10243   4.315   2.836  10.500 -0.1952  0.9458  1.2848
  102OSM   H15C10244   4.367   2.673  10.533 -1.0313  0.2266 -0.4963
  102OSM    C1410245   4.477   2.833  10.715 -0.4356  0.1457 -0.5415
  102OSM   H14A10246   4.458   2.736  10.758 -1.8724  0.8336  0.4035
  102OSM   H14B10247   4.397   2.904  10.730  1.0974  1.7887 -0.0247
  102OSM   H14C10248   4.559   2.862  10.780  2.2523 -0.1072 -3.6725
  102OSM    C1310249   4.631   2.730  10.554 -0.4397 -0.8679 -0.2481
  102OSM   H13A10250   4.635   2.707  10.448  0.3767  0.2826 -0.4842
  102OSM   H13B10251   4.610   2.650  10.623 -2.6764 -1.4976 -1.5987
  102OSM   H13C10252   4.723   2.779  10.583 -0.4368 -0.1829 -1.3939
  102OSM    C1210253   4.530   2.961  10.521 -0.1347  0.2589  0.7312
  102OSM   H12A10254   4.440   3.018  10.535  1.6164  3.0708  1.1021
  102OSM   H12B10255   4.535   2.963  10.413 -0.6440  2.0702  0.7138
  102OSM    C1110256   4.657   3.046  10.577 -0.1567  0.6881  0.1217
  102OSM   H11A10257   4.679   3.110  10.489  0.8599  0.8188  0.4602
  102OSM   H11B10258   4.746   2.979  10.586 -0.6745  0.0482  0.5470
  102OSM      P10259   4.516   3.234  10.687 -0.4450 -0.1201  0.0405
  102OSM    O1310260   4.380   3.180  10.701  0.4540  0.3500 -0.1412
  102OSM    O1410261   4.557   3.340  10.784 -0.7529 -0.3548  0.8715
  102OSM    O1110262   4.523   3.294  10.536  0.6111 -0.3779 -0.2839
  102OSM    O1210263   4.626   3.124  10.693  0.0262 -0.2356 -0.4811
  102OSM    C1S10264   4.634   3.385  10.507  0.1967  0.4040 -0.0203
  102OSM    H1S10265   4.730   3.335  10.535  1.2956  2.2503 -0.3947
  102OSM    H1T10266   4.628   3.480  10.565  0.4904 -0.2335  1.0756
  102OSM     NF10267   4.773   3.494  10.338 -0.0184  0.3448  0.3672
  102OSM    HNF10268   4.784   3.592  10.353  0.8535  0.0360  1.8138
  102OSM    C2S10269   4.639   3.430  10.356  0.0629 -0.4895 -0.0608
  102OSM    H2S10270   4.622   3.343  10.289 -2.6618  1.4063 -1.9840
  102OSM    C3S10271   4.524   3.528  10.337 -0.4727  0.2505 -0.1309
  102OSM    H3S10272   4.524   3.598  10.423 -1.1915  1.4316 -1.0830
  102OSM     O310273   4.400   3.456  10.331  0.3280 -0.3756 -0.2400
  102OSM    HO310274   4.418   3.366  10.361 -0.4163  0.4783  2.9374
  102OSM    C4S10275   4.545   3.604  10.200 -0.3158  0.1164 -0.3505
  102OSM    H4S10276   4.535   3.541  10.111 -0.2483 -1.4711  0.7291
  102OSM    C5S10277   4.584   3.737  10.203  0.7906  0.6727 -0.3110
  102OSM    H5S10278   4.612   3.779  10.301  1.1836 -1.1092  0.3556
  102OSM    C6S10279   4.607   3.824  10.085 -0.3650  0.6876  0.6788
  102OSM    H6S10280   4.508   3.847  10.041  0.6302  2.4242 -0.6804
  102OSM    H6T10281   4.668   3.776  10.006  3.4963  2.6825  2.3310
  102OSM    C7S10282   4.669   3.964  10.112  0.0085  0.5551  0.2002
  102OSM    H7S10283   4.768   3.961  10.162  1.1770  0.8809 -2.0292
  102OSM    H7T10284   4.597   4.013  10.182  3.1075  2.0146  2.4772
  102OSM    C8S10285   4.653   4.063   9.993 -0.0968 -0.6889  0.4992
  102OSM    H8S10286   4.683   4.161  10.033 -2.0570 -0.8706  2.5131
  102OSM    H8T10287   4.545   4.073   9.968 -0.4785 -0.7590  2.0696
  102OSM    C9S10288   4.735   4.025   9.870 -0.3472 -0.4873  0.3732
  102OSM    H9S10289   4.710   3.926   9.826  1.1597 -0.0317 -1.5112
  102OSM    H9T10290   4.844   4.027   9.889 -0.0745  0.9296 -1.3174
  102OSM   C10S10291   4.715   4.119   9.749 -0.4005 -0.2489 -0.9224
  102OSM   H10S10292   4.780   4.207   9.766 -1.4091  0.2230  0.5951
  102OSM   H10T10293   4.607   4.144   9.740 -0.3579  0.9057  1.5950
  102OSM   C11S10294   4.776   4.056   9.617 -0.2358 -0.7967  0.0002
  102OSM   H11S10295   4.723   3.961   9.590 -1.3233 -0.9681  2.6076
  102OSM   H11T10296   4.879   4.018   9.637 -0.1561 -1.1213 -1.0125
  102OSM   C12S10297   4.783   4.152   9.500 -0.5874 -0.2554 -0.1417
  102OSM   H12S10298   4.864   4.227   9.514 -0.8343  0.0778 -0.4890
  102OSM   H12T10299   4.688   4.208   9.496 -0.3783  0.1379  0.4165
  102OSM   C13S10300   4.811   4.075   9.371 -0.5705 -0.0243 -0.2765
  102OSM   H13S10301   4.774   3.971   9.381 -0.3660  0.0083  0.9358
  102OSM   H13T10302   4.922   4.066   9.366 -0.2289  1.1396  3.3344
  102OSM   C14S10303   4.777   4.158   9.251  0.7240  1.1790  0.1142
  102OSM   H14S10304   4.829   4.256   9.255  1.9145  0.5454  0.3276
  102OSM   H14T10305   4.671   4.190   9.243  0.0272 -0.8019  1.0101
  102OSM   C15S10306   4.811   4.086   9.123 -0.8936  0.7363 -0.3125
  102OSM   H15S10307   4.767   3.985   9.139 -1.3279  0.8250 -0.9566
  102OSM   H15T10308   4.920   4.066   9.112 -0.7495  2.0852 -1.4051
  102OSM   C16S10309   4.747   4.151   9.000 -0.3015  0.3446  0.1524
  102OSM   H16S10310   4.777   4.258   8.997  1.4076 -0.1401 -0.6967
  102OSM   H16T10311   4.636   4.147   9.007 -0.1554 -1.2275  2.2074
  102OSM   C17S10312   4.793   4.085   8.875  0.3151  0.1196 -0.0423
  102OSM   H17S10313   4.779   3.976   8.889  0.9768 -0.0346 -0.5656
  102OSM   H17T10314   4.900   4.099   8.849  0.2546  2.5020  0.8390
  102OSM   C18S10315   4.714   4.122   8.743  0.4320  0.2304 -0.3214
  102OSM   H18S10316   4.776   4.094   8.656  1.7052  0.3338  0.5374
  102OSM   H18T10317   4.702   4.231   8.726 -1.4675  0.0545 -0.1970
  102OSM   H18U10318   4.610   4.083   8.737 -0.0451  1.5177 -0.6165
  102OSM    C1F10319   4.880   3.428  10.320 -0.3182  1.0920  0.2183
  102OSM     OF10320   4.868   3.310  10.297  0.3166  0.1963  0.2096
  102OSM    C2F10321   5.014   3.489  10.320 -0.1607  0.2761 -0.2477
  102OSM    H2F10322   5.092   3.413  10.342 -0.7933 -0.4164 -0.3476
  102OSM    H2G10323   5.030   3.570  10.394 -0.5137 -0.3294  0.5037
  102OSM    C3F10324   5.051   3.540  10.178  0.4764 -0.4406 -0.2527
  102OSM    H3F10325   5.025   3.457  10.108  2.7097  1.3002 -3.2538
  102OSM    H3G10326   5.161   3.552  10.171  0.1615  1.6629 -2.0502
  102OSM    C4F10327   4.974   3.667  10.124 -0.0122  0.0899 -0.2738
  102OSM    H4F10328   4.967   3.739  10.209 -0.1726 -0.8395  0.5144
  102OSM    H4G10329   4.876   3.620  10.104  0.3735 -0.2840 -1.2950
  102OSM    C5F10330   5.013   3.739   9.984 -0.3093 -0.1138  0.5078
  102OSM    H5F10331   5.104   3.800  10.004  0.3196 -0.3312 -1.5257
  102OSM    H5G10332   4.931   3.808   9.954  0.5484 -0.2399 -2.2880
  102OSM    C6F10333   5.063   3.652   9.864  0.7295  0.0152  0.3732
  102OSM    H6F10334   5.001   3.564   9.837  0.1287  0.2624  0.9488
  102OSM    H6G10335   5.169   3.627   9.882  0.9035 -0.8770 -1.7274
  102OSM    C7F10336   5.056   3.741   9.739 -0.0900  0.0877 -0.3380
  102OSM    H7F10337   5.116   3.828   9.772 -1.3073  0.3665  1.1947
  102OSM    H7G10338   4.951   3.773   9.724  0.1492  0.8843 -0.3413
  102OSM    C8F10339   5.107   3.676   9.612  0.0664  0.3929 -0.3444
  102OSM    H8F10340   5.062   3.576   9.594 -1.8094  1.1841 -0.2553
  102OSM    H8G10341   5.216   3.675   9.628 -0.1707 -1.6289  1.3224
  102OSM    C9F10342   5.077   3.774   9.505  0.0410  0.1023 -0.2542
  102OSM    H9F10343   5.100   3.878   9.532  0.4870 -0.5973  2.1842
  102OSM   C10F10344   5.034   3.754   9.377  0.1425  0.0215 -0.9427
  102OSM   H10F10345   5.029   3.844   9.315 -0.4750  0.2627 -0.5516
  102OSM   C11F10346   4.994   3.624   9.309  0.1315 -0.3559 -0.7710
  102OSM   H11F10347   4.887   3.637   9.281 -0.2422 -1.1635  0.2660
  102OSM   H11G10348   4.990   3.540   9.381  0.9851  0.2810  0.0264
  102OSM   C12F10349   5.071   3.605   9.173  0.0989  0.2652  0.3135
  102OSM   H12F10350   5.083   3.502   9.133  0.3572  0.8575 -1.1478
  102OSM   H12G10351   5.174   3.643   9.187  0.8598 -1.6375 -0.0176
  102OSM   C13F10352   5.013   3.692   9.057 -0.1833  0.5069 -0.3309
  102OSM   H13F10353   4.969   3.786   9.095  0.7688  0.3970  1.0460
  102OSM   H13G10354   4.934   3.626   9.015  0.9768 -1.8735  1.1634
  102OSM   C14F10355   5.123   3.721   8.954 -0.2131  0.9394 -0.2653
  102OSM   H14F10356   5.181   3.626   8.954 -0.1808  0.9608 -1.3099
  102OSM   H14G10357   5.188   3.803   8.991  0.8330 -0.0784  0.1959
  102OSM   C15F10358   5.078   3.761   8.818 -0.4230  0.3578  0.7889
  102OSM   H15F10359   5.038   3.864   8.823 -0.8808  0.0815  3.4505
  102OSM   H15G10360   4.988   3.705   8.785  0.2574 -0.7479  0.7806
  102OSM   C16F10361   5.175   3.744   8.708  0.4170  0.2228 -0.1383
  102OSM   H16F10362   5.214   3.641   8.692  1.2677  0.8172 -2.0121
  102OSM   H16G10363   5.259   3.813   8.733  0.6494 -0.8380  2.1339
  102OSM   C17F10364   5.124   3.783   8.572  0.6286  0.8351  0.2582
  102OSM   H17F10365   5.079   3.884   8.584  1.1351  1.1822 -0.6539
  102OSM   H17G10366   5.051   3.708   8.535  2.3183 -0.1312 -1.2027
  102OSM   C18F10367   5.242   3.789   8.473 -0.1792  0.4942  0.3649
  102OSM   H18F10368   5.193   3.825   8.380  2.6426  1.3137 -0.8631
  102OSM   H18G10369   5.285   3.686   8.465  2.0589  1.4600 -0.4222
  102OSM   H18H10370   5.326   3.857   8.498  2.5145 -3.1514  1.7458
  103OSM      N10371   2.914   0.073  11.131  0.2237  0.8858  0.0246
  103OSM    C1510372   2.899  -0.061  11.199 -0.1653  0.6839  0.6421
  103OSM   H15A10373   2.976  -0.130  11.167 -0.7006  1.4490 -2.5104
  103OSM   H15B10374   2.803  -0.102  11.174  0.9391 -2.4738  1.3984
  103OSM   H15C10375   2.901  -0.050  11.306  0.1176 -2.0829  0.9466
  103OSM    C1410376   2.795   0.157  11.159 -0.1124 -0.4142 -0.0470
  103OSM   H14A10377   2.707   0.132  11.101  0.4679  0.7941 -1.4866
  103OSM   H14B10378   2.813   0.260  11.134  1.9520 -0.4698  1.1645
  103OSM   H14C10379   2.767   0.152  11.264  2.0816 -0.0409  0.5664
  103OSM    C1310380   3.030   0.145  11.193  0.2890 -0.2312 -0.0709
  103OSM   H13A10381   3.040   0.241  11.144  1.6383 -1.5047 -2.3318
  103OSM   H13B10382   3.119   0.085  11.188  1.3514  0.9431  3.3091
  103OSM   H13C10383   3.011   0.163  11.298 -1.6426  0.8419 -0.5773
  103OSM    C1210384   2.934   0.054  10.982 -0.1527  0.1365 -0.2620
  103OSM   H12A10385   2.912   0.145  10.928 -1.0338  0.5250  0.7349
  103OSM   H12B10386   2.851  -0.008  10.948 -0.1731 -1.3876  2.4742
  103OSM    C1110387   3.062   0.001  10.917  0.3729  0.2635 -0.4711
  103OSM   H11A10388   3.043  -0.005  10.808 -0.6262  0.5983 -0.3197
  103OSM   H11B10389   3.084  -0.098  10.962  0.9873  0.2295 -0.8412
  103OSM      P10390   3.202   0.222  10.885  0.1686 -0.0083 -0.3547
  103OSM    O1310391   3.106   0.323  10.934 -0.5631 -0.0095  0.2486
  103OSM    O1410392   3.345   0.265  10.889 -0.0104 -0.2261  0.3702
  103OSM    O1110393   3.184   0.193  10.733 -0.4142 -0.1784  0.0736
  103OSM    O1210394   3.176   0.087  10.958 -0.7871 -0.0002 -0.0997
  103OSM    C1S10395   3.188   0.293  10.640  0.0920 -0.6416  0.3283
  103OSM    H1S10396   3.293   0.308  10.606 -0.6514  1.9903 -0.9722
  103OSM    H1T10397   3.152   0.391  10.679 -0.3723 -0.9985  0.7974
  103OSM     NF10398   3.118   0.379  10.413  0.5996 -0.5755  0.4088
  103OSM    HNF10399   3.033   0.430  10.404 -0.5896 -2.3189  1.4109
  103OSM    C2S10400   3.108   0.264  10.502  0.0927 -0.4642  0.6763
  103OSM    H2S10401   3.174   0.185  10.462  2.2607  1.2048  0.8354
  103OSM    C3S10402   2.965   0.203  10.523 -0.2470 -0.1978 -0.7095
  103OSM    H3S10403   2.915   0.289  10.571 -0.7919 -0.5793 -0.5864
  103OSM     O310404   2.965   0.085  10.606 -0.1861 -0.4199 -0.6566
  103OSM    HO310405   3.057   0.076  10.631 -0.1625  0.6521 -0.3521
  103OSM    C4S10406   2.904   0.183  10.391 -0.4433  0.3425 -0.0541
  103OSM    H4S10407   2.843   0.265  10.351 -0.4260  1.0680  1.3461
  103OSM    C5S10408   2.897   0.068  10.325 -0.3667 -0.1503 -0.4101
  103OSM    H5S10409   2.942  -0.017  10.379 -1.0000  1.3299  2.5461
  103OSM    C6S10410   2.830   0.050  10.194 -0.0107 -0.1858 -0.4544
  103OSM    H6S10411   2.738   0.113  10.197 -0.1019 -0.2574 -1.7018
  103OSM    H6T10412   2.796  -0.051  10.162 -1.9507  0.3176 -0.0805
  103OSM    C7S10413   2.912   0.097  10.077  0.3214  0.6081 -0.1420
  103OSM    H7S10414   2.986   0.016  10.064 -1.9801 -1.7449  1.0031
  103OSM    H7T10415   2.962   0.196  10.092  1.1778 -0.0676  1.5840
  103OSM    C8S10416   2.841   0.103   9.936  0.5880  0.1221  0.0354
  103OSM    H8S10417   2.813   0.211   9.937  4.0756  1.0730  0.4035
  103OSM    H8T10418   2.744   0.050   9.941 -0.4244  1.7287 -1.7256
  103OSM    C9S10419   2.919   0.079   9.810 -0.0062 -0.4042  0.3057
  103OSM    H9S10420   2.948  -0.028   9.821  1.1683 -0.1107  0.1042
  103OSM    H9T10421   3.008   0.144   9.793 -1.0642  0.6438 -1.3579
  103OSM   C10S10422   2.834   0.102   9.689 -0.2742 -0.3544 -0.0710
  103OSM   H10S10423   2.809   0.210   9.687 -2.5227 -0.8410 -1.0364
  103OSM   H10T10424   2.735   0.052   9.705 -1.1518  2.2006  2.7853
  103OSM   C11S10425   2.902   0.074   9.552  0.6547 -0.2771  0.0404
  103OSM   H11S10426   2.893  -0.035   9.532 -0.2681 -0.3318  0.7199
  103OSM   H11T10427   3.009   0.102   9.562  0.6749 -0.6714  0.9920
  103OSM   C12S10428   2.838   0.162   9.441 -0.2623  0.3742 -0.1880
  103OSM   H12S10429   2.834   0.264   9.485  0.3250 -1.0081  3.3141
  103OSM   H12T10430   2.740   0.119   9.411  0.6843 -2.4855  0.5845
  103OSM   C13S10431   2.927   0.180   9.315 -0.4712  0.5831  0.2788
  103OSM   H13S10432   2.963   0.078   9.289 -1.3819  0.1692  0.6104
  103OSM   H13T10433   3.020   0.226   9.353 -0.3216  0.3388  0.2136
  103OSM   C14S10434   2.866   0.259   9.200 -0.4450 -0.3346  0.2408
  103OSM   H14S10435   2.868   0.369   9.220  0.6159 -0.6387  1.8321
  103OSM   H14T10436   2.757   0.240   9.203 -0.8796  2.1765  1.6575
  103OSM   C15S10437   2.929   0.221   9.063 -0.1112  0.4546  0.0305
  103OSM   H15S10438   2.894   0.116   9.054 -1.1581  0.9522 -1.9006
  103OSM   H15T10439   3.038   0.224   9.085  0.0028  0.1713 -0.4915
  103OSM   C16S10440   2.896   0.311   8.949  0.0243 -0.6798 -0.3152
  103OSM   H16S10441   2.920   0.416   8.976  1.8506 -1.1082 -0.2538
  103OSM   H16T10442   2.785   0.312   8.935  0.1660  1.4855 -1.5702
  103OSM   C17S10443   2.974   0.283   8.818 -0.1870  0.2621  0.4368
  103OSM   H17S10444   3.082   0.296   8.840  0.2378 -1.6476 -0.4287
  103OSM   H17T10445   2.936   0.360   8.748  1.8445  0.9554  0.0648
  103OSM   C18S10446   2.957   0.141   8.755  0.3301 -0.0739 -0.0140
  103OSM   H18S10447   2.965   0.153   8.645 -0.8151  1.2629  0.0291
  103OSM   H18T10448   2.856   0.108   8.788  0.1544  0.0772 -0.3966
  103OSM   H18U10449   3.031   0.072   8.800 -0.8763  0.1050  2.3146
  103OSM    C1F10450   3.227   0.427  10.355 -0.7154 -0.4749 -0.1669
  103OSM     OF10451   3.338   0.378  10.376  0.8043 -0.2837 -0.2118
  103OSM    C2F10452   3.198   0.543  10.261  0.0763 -0.0395 -0.6374
  103OSM    H2F10453   3.131   0.615  10.312 -0.4594 -0.1516 -1.1838
  103OSM    H2G10454   3.158   0.496  10.168  0.8182 -0.2350 -0.8636
  103OSM    C3F10455   3.326   0.618  10.226  0.1901  0.7702 -0.4785
  103OSM    H3F10456   3.398   0.537  10.202 -0.0146  0.4418  0.0132
  103OSM    H3G10457   3.358   0.677  10.314  1.5368 -0.7376  0.0774
  103OSM    C4F10458   3.315   0.713  10.101  0.0733  0.0757  0.5104
  103OSM    H4F10459   3.253   0.798  10.136  0.4273  1.0612 -1.1775
  103OSM    H4G10460   3.264   0.659  10.018  1.1631 -2.7773  1.6144
  103OSM    C5F10461   3.455   0.767  10.066 -0.2295  0.0092 -0.1760
  103OSM    H5F10462   3.505   0.686  10.008  0.2042  2.2617 -3.0365
  103OSM    H5G10463   3.510   0.797  10.158 -0.2216 -1.4473  0.3051
  103OSM    C6F10464   3.444   0.893   9.976  0.3729 -0.2231  1.0038
  103OSM    H6F10465   3.546   0.922   9.945 -0.9898  1.9949 -1.5945
  103OSM    H6G10466   3.409   0.973  10.044  0.3457  0.5125  0.1271
  103OSM    C7F10467   3.353   0.882   9.861  0.1717  0.1130 -0.0237
  103OSM    H7F10468   3.349   0.984   9.818  1.2117  0.5514  0.9100
  103OSM    H7G10469   3.250   0.856   9.893  0.3417 -0.8209 -0.2201
  103OSM    C8F10470   3.398   0.784   9.747 -0.0471 -0.4134  0.4718
  103OSM    H8F10471   3.311   0.784   9.679  1.8444 -2.7661 -2.0367
  103OSM    H8G10472   3.400   0.682   9.792  0.6574 -0.1822  0.9758
  103OSM    C9F10473   3.530   0.816   9.681  0.3451 -0.4319  0.7764
  103OSM    H9F10474   3.619   0.800   9.745  1.2130 -0.8184 -0.5013
  103OSM   C10F10475   3.551   0.844   9.552  0.5105 -0.6117 -0.4683
  103OSM   H10F10476   3.653   0.873   9.524 -0.7209  1.9700 -2.6069
  103OSM   C11F10477   3.443   0.859   9.441 -0.9092  0.6143 -0.5771
  103OSM   H11F10478   3.345   0.819   9.475 -0.1002 -1.7350 -0.9173
  103OSM   H11G10479   3.462   0.797   9.351  0.6909  0.8348 -0.3999
  103OSM   C12F10480   3.427   0.999   9.383  0.2574 -0.3786 -0.2369
  103OSM   H12F10481   3.378   1.071   9.452  1.7271 -0.8004  1.3041
  103OSM   H12G10482   3.359   0.997   9.296 -0.8549 -3.2499  0.6220
  103OSM   C13F10483   3.558   1.063   9.339 -0.6935 -0.0405  0.3548
  103OSM   H13F10484   3.616   0.981   9.290 -1.5402 -0.6839  0.4017
  103OSM   H13G10485   3.615   1.092   9.429  0.6327  0.2713 -0.5831
  103OSM   C14F10486   3.552   1.189   9.250  0.1676 -0.2557  0.1207
  103OSM   H14F10487   3.541   1.269   9.327 -1.2064 -1.5050  1.2508
  103OSM   H14G10488   3.459   1.195   9.190  1.4456 -1.2991 -2.0238
  103OSM   C15F10489   3.686   1.196   9.173  0.6630 -0.3618  0.7712
  103OSM   H15F10490   3.698   1.097   9.124 -4.0371 -0.2554 -0.8135
  103OSM   H15G10491   3.776   1.201   9.238  0.7606  0.7865  0.5630
  103OSM   C16F10492   3.690   1.311   9.063 -0.0482  0.0049 -0.2908
  103OSM   H16F10493   3.790   1.343   9.028  0.4494 -0.3109  0.8340
  103OSM   H16G10494   3.650   1.404   9.111  0.0129  0.9426 -2.0231
  103OSM   C17F10495   3.594   1.280   8.952  0.5411 -0.8318 -0.4292
  103OSM   H17F10496   3.557   1.382   8.925  1.3782 -0.5656 -0.5935
  103OSM   H17G10497   3.507   1.216   8.975  1.1962 -1.4087  0.4346
  103OSM   C18F10498   3.662   1.210   8.833  0.9285  0.8674  0.4279
  103OSM   H18F10499   3.579   1.214   8.759  0.4781 -0.9915  0.8126
  103OSM   H18G10500   3.687   1.105   8.860 -1.5973  0.7775  2.6015
  103OSM   H18H10501   3.748   1.267   8.791  1.8418  0.8507  2.2258
  104OSM      N10502   4.852   6.255  10.732 -0.1985 -0.0730  0.0191
  104OSM    C1510503   4.892   6.379  10.662 -0.3747 -0.5660  0.2400
  104OSM   H15A10504   4.888   6.460  10.732 -1.6891  0.6361 -1.2047
  104OSM   H15B10505   4.817   6.395  10.586 -1.0455 -1.7919  0.6418
  104OSM   H15C10506   4.999   6.372  10.650 -0.4749  0.1570 -1.1676
  104OSM    C1410507   4.716   6.291  10.786 -0.3648  0.1822 -0.4581
  104OSM   H14A10508   4.638   6.303  10.712 -0.0118  0.5099 -0.7783
  104OSM   H14B10509   4.725   6.377  10.851  0.4474 -0.2117 -0.0463
  104OSM   H14C10510   4.684   6.209  10.850  0.2616 -1.2371 -1.9347
  104OSM    C1310511   4.836   6.141  10.636  0.4355 -0.2376  0.1630
  104OSM   H13A10512   4.782   6.166  10.546  0.6124 -0.3350  0.0288
  104OSM   H13B10513   4.796   6.049  10.676  0.6229  0.1457  1.2513
  104OSM   H13C10514   4.934   6.114  10.598  0.1289 -1.4347  0.2073
  104OSM    C1210515   4.941   6.225  10.851 -0.0292 -0.4297  0.2934
  104OSM   H12A10516   4.893   6.142  10.901  0.9442 -1.3734 -0.3090
  104OSM   H12B10517   4.921   6.307  10.918 -0.4282 -0.5775  0.3590
  104OSM    C1110518   5.095   6.195  10.823  0.0247 -0.3299  0.4629
  104OSM   H11A10519   5.105   6.100  10.767  1.0003  0.6800 -1.1355
  104OSM   H11B10520   5.145   6.171  10.919  0.3784 -2.7375 -0.2937
  104OSM      P10521   5.282   6.285  10.665  0.1932 -0.2086  0.2667
  104OSM    O1310522   5.326   6.418  10.611  0.3185  0.2958 -0.6836
  104OSM    O1410523   5.380   6.217  10.746 -0.2056 -0.3953 -0.0522
  104OSM    O1110524   5.229   6.188  10.551 -0.1044  0.3783 -0.4196
  104OSM    O1210525   5.154   6.307  10.753  0.5856  0.2034 -0.0503
  104OSM    C1S10526   5.170   6.245  10.430 -0.0896  0.1227 -0.1440
  104OSM    H1S10527   5.142   6.353  10.434 -3.5120 -0.6327 -1.9981
  104OSM    H1T10528   5.069   6.203  10.417 -0.3623  0.4628  0.8172
  104OSM     NF10529   5.212   6.311  10.193 -0.3819 -0.6899 -0.0895
  104OSM    HNF10530   5.205   6.259  10.109 -1.3791 -1.8000  0.6640
  104OSM    C2S10531   5.262   6.242  10.306 -0.1417  0.4776 -0.5403
  104OSM    H2S10532   5.360   6.286  10.333  0.0855  1.4070 -2.8430
  104OSM    C3S10533   5.289   6.085  10.276 -0.2592 -0.1030  0.1011
  104OSM    H3S10534   5.196   6.041  10.234 -0.3759  1.0070 -0.8016
  104OSM     O310535   5.347   6.022  10.390  0.9264  0.0530  0.3510
  104OSM    HO310536   5.321   6.080  10.462 -2.5443 -1.6289  0.4969
  104OSM    C4S10537   5.381   6.075  10.160  0.4147 -0.2232  0.1067
  104OSM    H4S10538   5.318   6.062  10.072  0.9853 -0.4384 -0.2734
  104OSM    C5S10539   5.514   6.092  10.158  0.2860  0.3830 -0.0444
  104OSM    H5S10540   5.554   6.134  10.252 -1.9084  0.2422  0.9907
  104OSM    C6S10541   5.609   6.085  10.037  0.5016  0.2197 -0.1372
  104OSM    H6S10542   5.664   5.991  10.016 -0.1069 -0.8295  2.7232
  104OSM    H6T10543   5.680   6.170  10.028  0.1577  0.4714 -0.5039
  104OSM    C7S10544   5.517   6.110   9.902  0.1300 -0.2604 -0.3076
  104OSM    H7S10545   5.461   6.205   9.909  0.2691 -0.0154 -2.2204
  104OSM    H7T10546   5.434   6.035   9.905  0.5878 -0.7284  1.3517
  104OSM    C8S10547   5.592   6.109   9.770  0.9910 -0.0997  0.4495
  104OSM    H8S10548   5.632   6.006   9.763 -0.7877 -0.6406 -2.6186
  104OSM    H8T10549   5.674   6.183   9.762  0.2899  0.5611 -0.7882
  104OSM    C9S10550   5.490   6.109   9.647  0.5942 -0.2072  0.3693
  104OSM    H9S10551   5.439   6.207   9.635 -1.7870 -1.5714 -1.1413
  104OSM    H9T10552   5.409   6.035   9.669 -1.4779  1.2715 -2.0074
  104OSM   C10S10553   5.560   6.067   9.520  0.4030 -0.1535  0.0539
  104OSM   H10S10554   5.597   5.962   9.525 -0.7152 -0.5489  0.1885
  104OSM   H10T10555   5.652   6.127   9.508 -0.2313  0.8019 -0.0304
  104OSM   C11S10556   5.474   6.081   9.397 -0.1017  0.9988  0.2422
  104OSM   H11S10557   5.414   6.174   9.405 -0.3065  0.8798  0.1060
  104OSM   H11T10558   5.400   5.998   9.389  1.9887 -1.1155  2.0110
  104OSM   C12S10559   5.554   6.089   9.266 -0.4658  0.3774 -0.1418
  104OSM   H12S10560   5.637   6.018   9.243  0.2978  0.8947  0.9817
  104OSM   H12T10561   5.594   6.193   9.263  0.8103 -0.0710  0.6676
  104OSM   C13S10562   5.465   6.078   9.141 -0.5831 -0.7243  0.1328
  104OSM   H13S10563   5.382   6.147   9.165 -0.4096 -0.8143  0.9882
  104OSM   H13T10564   5.417   5.979   9.125  1.2178 -1.4062 -1.2940
  104OSM   C14S10565   5.532   6.131   9.013  0.7584  0.8331 -0.0153
  104OSM   H14S10566   5.603   6.053   8.978  0.1957  1.0418 -1.6343
  104OSM   H14T10567   5.586   6.226   9.035  1.8716 -0.3166  2.3714
  104OSM   C15S10568   5.440   6.149   8.896  0.4588 -0.7582 -0.7780
  104OSM   H15S10569   5.346   6.200   8.925  1.0206  1.1052 -2.0744
  104OSM   H15T10570   5.425   6.044   8.864  1.7875 -0.7430 -1.5131
  104OSM   C16S10571   5.503   6.227   8.781  1.2454  0.5984 -0.1536
  104OSM   H16S10572   5.599   6.173   8.766  0.8253  0.1702 -1.4022
  104OSM   H16T10573   5.516   6.325   8.832 -2.2646  0.1480  1.7833
  104OSM   C17S10574   5.408   6.229   8.661 -0.7845  0.3080 -0.2400
  104OSM   H17S10575   5.423   6.331   8.620  1.2721  0.1927  0.1455
  104OSM   H17T10576   5.303   6.219   8.694 -0.2826  0.2036  1.3694
  104OSM   C18S10577   5.441   6.118   8.560  0.0722 -0.1299 -0.2162
  104OSM   H18S10578   5.460   6.019   8.607 -3.8876 -1.5530 -1.4892
  104OSM   H18T10579   5.538   6.146   8.513 -0.0031  0.3100 -0.1142
  104OSM   H18U10580   5.361   6.104   8.484 -0.3201 -0.7113  0.3074
  104OSM    C1F10581   5.189   6.438  10.180 -0.7933  0.6575  0.1000
  104OSM     OF10582   5.225   6.519  10.261 -0.3675 -0.3288 -0.0433
  104OSM    C2F10583   5.116   6.477  10.059 -0.8128  0.5368  0.0256
  104OSM    H2F10584   5.012   6.509  10.084 -1.4543 -1.1264 -0.4254
  104OSM    H2G10585   5.086   6.390   9.997  0.4506  0.9398 -1.1772
  104OSM    C3F10586   5.183   6.587   9.969  1.3435  0.3087 -0.1290
  104OSM    H3F10587   5.281   6.544   9.941  2.3048  2.1704  0.3406
  104OSM    H3G10588   5.197   6.668  10.044 -0.5586 -0.8078  1.5082
  104OSM    C4F10589   5.097   6.644   9.853  0.1647  0.0924 -0.8009
  104OSM    H4F10590   5.138   6.742   9.822  2.6036 -1.1839 -1.7512
  104OSM    H4G10591   4.991   6.657   9.885 -0.0040 -0.1074 -1.2680
  104OSM    C5F10592   5.084   6.555   9.733 -0.9108  0.7424 -0.3143
  104OSM    H5F10593   5.044   6.457   9.768 -0.0263  0.5783  0.2853
  104OSM    H5G10594   5.184   6.539   9.686  0.2452 -1.0847  2.5798
  104OSM    C6F10595   4.987   6.616   9.631 -0.3475 -0.3463  0.1789
  104OSM    H6F10596   5.020   6.714   9.590 -2.7432 -0.1318 -1.3454
  104OSM    H6G10597   4.896   6.636   9.691 -0.1383 -1.3340  0.8441
  104OSM    C7F10598   4.955   6.521   9.514 -0.1678  0.0594 -0.7783
  104OSM    H7F10599   4.926   6.425   9.563 -0.9381 -0.1396 -1.6072
  104OSM    H7G10600   5.050   6.513   9.456  1.2940 -0.4247  1.6302
  104OSM    C8F10601   4.841   6.555   9.420  0.2673  0.3196 -0.5966
  104OSM    H8F10602   4.763   6.591   9.490  0.2595  0.5951 -0.7446
  104OSM    H8G10603   4.813   6.465   9.362  0.1831 -1.5422  2.2567
  104OSM    C9F10604   4.875   6.670   9.330  0.2855  0.1979  0.0719
  104OSM    H9F10605   4.892   6.759   9.393  2.1553 -0.1427  0.1057
  104OSM   C10F10606   4.896   6.667   9.198 -0.2170 -0.1282 -0.0877
  104OSM   H10F10607   4.941   6.754   9.149  2.4327 -0.7099  1.2104
  104OSM   C11F10608   4.890   6.543   9.106  0.2225 -0.2471 -0.1072
  104OSM   H11F10609   4.856   6.459   9.170 -0.7572 -0.8046 -1.3256
  104OSM   H11G10610   4.987   6.512   9.062  0.7417  1.6157 -0.2808
  104OSM   C12F10611   4.778   6.562   9.004  0.1889 -0.5939  0.6896
  104OSM   H12F10612   4.684   6.600   9.048 -0.4676 -1.0585 -0.3019
  104OSM   H12G10613   4.757   6.460   8.966 -1.6366 -0.2827  0.8135
  104OSM   C13F10614   4.812   6.656   8.884 -0.2328  0.5993  0.2521
  104OSM   H13F10615   4.915   6.633   8.849  0.0231  2.6498 -0.4008
  104OSM   H13G10616   4.806   6.763   8.912  0.4901  0.3778  1.2507
  104OSM   C14F10617   4.722   6.638   8.757  0.8236 -0.1343 -0.9570
  104OSM   H14F10618   4.613   6.633   8.780  1.0788 -1.7657 -0.1145
  104OSM   H14G10619   4.741   6.538   8.714 -1.5170 -1.0349  0.0278
  104OSM   C15F10620   4.767   6.734   8.643 -0.0097 -0.3701  0.1978
  104OSM   H15F10621   4.875   6.711   8.633 -0.1850 -0.2519 -2.0315
  104OSM   H15G10622   4.747   6.839   8.672 -1.8189 -1.0494  1.5464
  104OSM   C16F10623   4.702   6.715   8.505 -0.0509  0.0325  0.1949
  104OSM   H16F10624   4.718   6.610   8.473  0.2556  0.2787 -0.4597
  104OSM   H16G10625   4.756   6.785   8.438 -3.7704  2.6082 -0.2696
  104OSM   C17F10626   4.551   6.719   8.504  0.0007  0.3492  0.2654
  104OSM   H17F10627   4.538   6.827   8.529  0.5758  0.4889 -0.0306
  104OSM   H17G10628   4.506   6.653   8.582  2.1824  0.3514  1.5900
  104OSM   C18F10629   4.481   6.672   8.377 -0.4169  0.1283  0.3669
  104OSM   H18F10630   4.533   6.577   8.353 -2.0286 -1.0818  1.5159
  104OSM   H18G10631   4.493   6.739   8.289 -0.7822 -0.5068 -0.1678
  104OSM   H18H10632   4.376   6.638   8.388 -0.9181  0.0619 -3.7496
  105OSM      N10633   1.892   1.833  11.048  0.3766 -0.8561  0.4894
  105OSM    C1510634   1.960   1.750  11.159 -0.0408  0.5830 -0.0362
  105OSM   H15A10635   2.067   1.759  11.159  0.1298 -1.1400 -0.6851
  105OSM   H15B10636   1.943   1.643  11.156 -1.1204  0.7492 -0.2536
  105OSM   H15C10637   1.920   1.773  11.256 -0.5168  0.5462 -0.2203
  105OSM    C1410638   1.970   1.838  10.922  0.0128  0.3890 -0.6815
  105OSM   H14A10639   2.070   1.873  10.942 -0.5199  0.6172  1.7813
  105OSM   H14B10640   1.926   1.911  10.857 -2.4959  0.2165  0.7436
  105OSM   H14C10641   1.974   1.741  10.874 -2.1575  1.2407 -2.6679
  105OSM    C1310642   1.760   1.766  11.026 -0.7489 -0.3817 -0.1535
  105OSM   H13A10643   1.782   1.665  10.997 -2.1291 -0.5251 -0.7559
  105OSM   H13B10644   1.710   1.808  10.940 -0.6249  1.4405  0.6434
  105OSM   H13C10645   1.698   1.755  11.114  1.5289  1.0807  1.7112
  105OSM    C1210646   1.886   1.972  11.099 -0.8131  0.0518  0.2523
  105OSM   H12A10647   1.990   2.001  11.108  0.0409 -2.8731  0.6112
  105OSM   H12B10648   1.865   1.963  11.204 -0.9235 -0.1468  0.2117
  105OSM    C1110649   1.796   2.074  11.032 -0.2408  0.2139 -0.1292
  105OSM   H11A10650   1.818   2.178  11.062 -2.4891  0.5480  0.4515
  105OSM   H11B10651   1.696   2.067  11.081 -0.6415 -4.4314 -1.3546
  105OSM      P10652   1.818   2.170  10.791  0.2627 -0.0317 -0.1969
  105OSM    O1310653   1.792   2.309  10.837 -0.1061 -0.4291 -0.2777
  105OSM    O1410654   1.956   2.134  10.755  0.2353  0.4783  0.2930
  105OSM    O1110655   1.726   2.141  10.668 -0.2856 -0.0333  0.3937
  105OSM    O1210656   1.779   2.059  10.896  0.1608 -0.0669 -0.0366
  105OSM    C1S10657   1.585   2.149  10.653 -0.4732 -0.2988 -0.2693
  105OSM    H1S10658   1.544   2.251  10.669 -0.5462 -0.4731  0.6958
  105OSM    H1T10659   1.538   2.092  10.736  0.9447  0.6709  1.2219
  105OSM     NF10660   1.380   2.098  10.504 -0.1219  0.1427  0.3333
  105OSM    HNF10661   1.332   2.012  10.492  0.8024 -0.8822  3.5216
  105OSM    C2S10662   1.526   2.103  10.515  0.1740  0.2289 -0.7056
  105OSM    H2S10663   1.567   2.178  10.444 -1.7657  0.6807 -1.3793
  105OSM    C3S10664   1.583   1.958  10.481  0.1881 -0.5144  0.0244
  105OSM    H3S10665   1.541   1.871  10.536  1.8688 -2.2429 -1.3827
  105OSM     O310666   1.723   1.946  10.494 -0.4394  0.4751 -0.4052
  105OSM    HO310667   1.747   2.029  10.536  0.8449 -0.2816  0.3718
  105OSM    C4S10668   1.551   1.941  10.333 -0.7368  0.3198 -0.4565
  105OSM    H4S10669   1.579   2.025  10.267 -0.5835  0.7016  0.0925
  105OSM    C5S10670   1.474   1.843  10.280 -0.4949 -0.3430  0.4303
  105OSM    H5S10671   1.418   1.777  10.348 -0.4552  0.1661  0.9651
  105OSM    C6S10672   1.444   1.832  10.136  0.6087  0.0887 -0.1605
  105OSM    H6S10673   1.347   1.884  10.119 -0.1115 -1.6271 -1.4585
  105OSM    H6T10674   1.431   1.726  10.104 -0.6711  0.0333  0.5217
  105OSM    C7S10675   1.548   1.903  10.047 -0.7187  0.6740  0.0056
  105OSM    H7S10676   1.649   1.865  10.069 -2.3757 -3.6403  0.6136
  105OSM    H7T10677   1.541   2.010  10.077 -0.7297  0.3760  1.0724
  105OSM    C8S10678   1.520   1.890   9.905  0.1018 -0.7156 -0.7859
  105OSM    H8S10679   1.420   1.935   9.888  0.1619  0.1057  0.9443
  105OSM    H8T10680   1.519   1.784   9.871  0.4686 -0.4248 -1.7285
  105OSM    C9S10681   1.607   1.980   9.815  0.0593 -0.8067 -0.0275
  105OSM    H9S10682   1.713   1.955   9.842  0.8680  1.4771 -1.0289
  105OSM    H9T10683   1.602   2.086   9.845  2.6975 -0.7796  0.5072
  105OSM   C10S10684   1.582   1.967   9.664  0.2213  0.7196 -0.7354
  105OSM   H10S10685   1.474   1.967   9.640  0.1501 -1.1857 -0.4917
  105OSM   H10T10686   1.606   1.864   9.631 -2.2584  0.0152 -0.4696
  105OSM   C11S10687   1.648   2.077   9.574  0.1128  0.0356  0.1181
  105OSM   H11S10688   1.755   2.076   9.606  0.0691 -0.2876  0.2469
  105OSM   H11T10689   1.605   2.177   9.598  0.2440  0.3748 -1.0271
  105OSM   C12S10690   1.649   2.073   9.417  0.4574  0.5396 -0.6728
  105OSM   H12S10691   1.545   2.075   9.377 -0.1944 -0.2200  0.9310
  105OSM   H12T10692   1.699   1.980   9.385 -3.0172 -1.9940  0.9363
  105OSM   C13S10693   1.721   2.203   9.365 -0.4672  0.8413  0.6647
  105OSM   H13S10694   1.814   2.220   9.423 -0.6885  1.3027  0.8855
  105OSM   H13T10695   1.659   2.294   9.375 -1.2269  0.1033  3.0784
  105OSM   C14S10696   1.766   2.202   9.219 -0.0076 -0.5604  0.1411
  105OSM   H14S10697   1.672   2.207   9.160 -0.2977 -0.0920  0.6356
  105OSM   H14T10698   1.813   2.103   9.199  1.4244  0.2551 -0.6011
  105OSM   C15S10699   1.867   2.306   9.183  0.0748  0.0826 -0.0811
  105OSM   H15S10700   1.955   2.304   9.251 -0.8155 -0.0994  1.0752
  105OSM   H15T10701   1.813   2.399   9.208  1.9901  0.8063  1.4681
  105OSM   C16S10702   1.898   2.304   9.033  0.7219 -0.1650 -0.1425
  105OSM   H16S10703   1.822   2.369   8.983  0.3317 -0.0629  0.5744
  105OSM   H16T10704   1.890   2.198   8.999  0.1758 -0.2826  0.3292
  105OSM   C17S10705   2.047   2.334   8.996 -0.6956  0.5435 -0.0882
  105OSM   H17S10706   2.073   2.326   8.889 -1.0095 -1.3695 -0.0407
  105OSM   H17T10707   2.110   2.251   9.035 -2.1640 -0.4790  0.1663
  105OSM   C18S10708   2.117   2.465   9.047  1.0310  0.1601 -0.6485
  105OSM   H18S10709   2.104   2.547   8.972  0.8016  0.2835 -0.4783
  105OSM   H18T10710   2.223   2.442   9.069  0.4906 -0.6569  1.1536
  105OSM   H18U10711   2.073   2.502   9.142  0.8554 -0.3808 -0.5231
  105OSM    C1F10712   1.315   2.211  10.500 -0.1966  0.4390  0.1397
  105OSM     OF10713   1.376   2.317  10.507  0.5483  0.1262  0.1090
  105OSM    C2F10714   1.169   2.202  10.478 -0.1619 -0.1508  0.4519
  105OSM    H2F10715   1.130   2.264  10.562 -0.3319  0.5764 -0.1555
  105OSM    H2G10716   1.131   2.098  10.481 -1.0725  0.2377  3.2206
  105OSM    C3F10717   1.122   2.266  10.338 -0.3124  0.0764  0.0812
  105OSM    H3F10718   1.146   2.374  10.345 -0.1335  0.3287 -3.4193
  105OSM    H3G10719   1.012   2.249  10.336 -0.5264  1.2017  1.5376
  105OSM    C4F10720   1.185   2.193  10.221  0.0578 -0.3856  0.0805
  105OSM    H4F10721   1.186   2.084  10.245 -0.3749  0.1447  2.7336
  105OSM    H4G10722   1.292   2.223  10.214  0.3866 -1.2079  1.4065
  105OSM    C5F10723   1.115   2.230  10.096 -0.3584  0.7921  0.0020
  105OSM    H5F10724   1.115   2.341  10.083  3.0109  0.7670 -0.6760
  105OSM    H5G10725   1.011   2.192  10.102 -0.6604  0.7716 -3.9727
  105OSM    C6F10726   1.189   2.174   9.971 -0.0626 -0.0413  0.3443
  105OSM    H6F10727   1.216   2.067   9.988 -0.1425 -0.5648 -2.4671
  105OSM    H6G10728   1.283   2.229   9.950 -0.4797  0.8166  0.7188
  105OSM    C7F10729   1.107   2.182   9.840 -0.1746 -0.6707 -1.2008
  105OSM    H7F10730   1.088   2.291   9.829  1.8832  0.2245  3.2965
  105OSM    H7G10731   1.020   2.113   9.852  1.4587 -2.5803 -0.0733
  105OSM    C8F10732   1.189   2.134   9.719 -0.3726 -0.3622 -0.0345
  105OSM    H8F10733   1.235   2.035   9.738 -0.5437 -0.9462 -2.5324
  105OSM    H8G10734   1.268   2.212   9.716  1.1355 -1.8766 -0.5873
  105OSM    C9F10735   1.103   2.131   9.593 -0.0628  0.0341 -1.0305
  105OSM    H9F10736   1.034   2.045   9.593 -0.6681  0.3741  4.2106
  105OSM   C10F10737   1.110   2.208   9.492  0.5239 -0.3999  0.0056
  105OSM   H10F10738   1.043   2.176   9.411  0.9211  0.4640 -0.6685
  105OSM   C11F10739   1.205   2.326   9.480  0.2321  0.2927  0.3633
  105OSM   H11F10740   1.278   2.335   9.563  0.1858 -0.5794  0.5045
  105OSM   H11G10741   1.151   2.423   9.488  0.9952  0.9233 -1.7862
  105OSM   C12F10742   1.288   2.315   9.352  0.1074 -0.2524 -0.9151
  105OSM   H12F10743   1.346   2.221   9.348 -0.9206 -1.0095  1.2043
  105OSM   H12G10744   1.374   2.385   9.344  1.4990 -1.8767 -0.2290
  105OSM   C13F10745   1.200   2.319   9.222 -0.5580  0.2940  0.2285
  105OSM   H13F10746   1.114   2.387   9.234 -0.6824  0.3186 -0.7343
  105OSM   H13G10747   1.179   2.211   9.209  0.3974 -0.1319  1.9932
  105OSM   C14F10748   1.286   2.361   9.104  0.5208 -0.0565 -0.3953
  105OSM   H14F10749   1.382   2.305   9.099  0.8100  0.6376 -3.5655
  105OSM   H14G10750   1.298   2.471   9.118  0.7273 -0.2919  1.3645
  105OSM   C15F10751   1.213   2.347   8.965 -0.5111 -0.0830  0.4559
  105OSM   H15F10752   1.258   2.431   8.907  1.9721 -1.3664  0.4880
  105OSM   H15G10753   1.107   2.376   8.981 -0.0044  1.5464  1.0451
  105OSM   C16F10754   1.232   2.216   8.895  0.6345  0.1350  0.3785
  105OSM   H16F10755   1.203   2.126   8.954 -1.3114  0.2991 -0.2937
  105OSM   H16G10756   1.341   2.206   8.876  0.3891 -0.3999 -0.8290
  105OSM   C17F10757   1.144   2.204   8.766  0.2813  0.6981  0.2378
  105OSM   H17F10758   1.181   2.117   8.708 -0.6549  0.1458  0.4674
  105OSM   H17G10759   1.162   2.299   8.711  1.6318  0.0795 -0.4159
  105OSM   C18F10760   0.996   2.179   8.789 -0.6268 -0.0457 -0.5760
  105OSM   H18F10761   0.955   2.186   8.686  1.1374 -1.6719 -1.4324
  105OSM   H18G10762   0.951   2.252   8.859 -1.7162  0.9004 -2.2292
  105OSM   H18H10763   0.985   2.073   8.820 -0.1820 -0.2220 -1.0129
  106OSM      N10764   0.069   1.561  10.719 -0.5082 -0.1826 -0.0464
  106OSM    C1510765  -0.036   1.567  10.611 -0.3197 -0.4708  0.2201
  106OSM   H15A10766  -0.003   1.620  10.523 -1.3836  0.3608  0.3097
  106OSM   H15B10767  -0.127   1.615  10.645 -0.0196 -1.1181  1.9839
  106OSM   H15C10768  -0.068   1.466  10.591 -0.4364 -0.0563 -1.7523
  106OSM    C1410769   0.019   1.477  10.832  0.0503  0.2912  0.3217
  106OSM   H14A10770  -0.021   1.385  10.793  2.1104 -0.6983  0.4457
  106OSM   H14B10771  -0.056   1.532  10.886 -1.2948  2.2034 -3.3670
  106OSM   H14C10772   0.098   1.448  10.900  1.4032 -1.2176 -1.8197
  106OSM    C1310773   0.189   1.494  10.660  0.7270  0.6114  0.4995
  106OSM   H13A10774   0.177   1.388  10.644  2.2402  0.1966  1.9017
  106OSM   H13B10775   0.267   1.499  10.735  0.1766  1.6489  1.0250
  106OSM   H13C10776   0.226   1.543  10.572 -0.6318 -0.2590 -0.5723
  106OSM    C1210777   0.104   1.702  10.763 -0.4308  0.6648  0.2671
  106OSM   H12A10778   0.017   1.761  10.785 -0.3218  1.8691 -2.3589
  106OSM   H12B10779   0.166   1.753  10.692  1.4831 -2.2053 -0.2392
  106OSM    C1110780   0.194   1.712  10.889 -0.1105 -0.5815  0.1751
  106OSM   H11A10781   0.118   1.676  10.962 -0.8291  1.1184  0.2873
  106OSM   H11B10782   0.207   1.821  10.906 -0.3349 -0.8865  2.4282
  106OSM      P10783   0.438   1.701  10.797  0.0263  0.3206 -0.3806
  106OSM    O1310784   0.513   1.796  10.883  0.1018 -0.4764  0.1172
  106OSM    O1410785   0.515   1.579  10.757 -0.1879  0.4718 -0.4368
  106OSM    O1110786   0.371   1.777  10.679 -0.4309 -0.1241 -0.1173
  106OSM    O1210787   0.320   1.645  10.884 -0.6190  0.3332 -0.0969
  106OSM    C1S10788   0.397   1.783  10.539 -0.0747  0.1116  0.2173
  106OSM    H1S10789   0.352   1.697  10.485 -0.9387  0.3837  0.4908
  106OSM    H1T10790   0.505   1.793  10.512 -0.3442 -0.7544 -1.2422
  106OSM     NF10791   0.304   1.861  10.328  0.2389 -0.1674  0.5094
  106OSM    HNF10792   0.377   1.903  10.275 -0.1632 -0.9790 -0.7001
  106OSM    C2S10793   0.319   1.897  10.473  0.7020 -0.0282  0.1578
  106OSM    H2S10794   0.217   1.906  10.514  0.3978 -0.0889 -0.5869
  106OSM    C3S10795   0.389   2.039  10.494  0.0880  0.2163 -0.5795
  106OSM    H3S10796   0.495   2.022  10.465  0.1295  1.0916 -0.9582
  106OSM     O310797   0.371   2.069  10.635 -0.4161 -0.0641  0.1815
  106OSM    HO310798   0.326   1.991  10.667 -2.0977  0.4967 -0.7485
  106OSM    C4S10799   0.326   2.144  10.417 -0.1163 -0.4975 -0.1352
  106OSM    H4S10800   0.216   2.139  10.417 -0.3589  3.4667  1.5375
  106OSM    C5S10801   0.385   2.234  10.340  0.3936 -0.7707 -0.0070
  106OSM    H5S10802   0.492   2.231  10.313  0.2208 -2.5634 -0.5064
  106OSM    C6S10803   0.301   2.334  10.264  0.7393 -0.2557  0.3150
  106OSM    H6S10804   0.209   2.348  10.324 -0.6599  1.5296 -2.1473
  106OSM    H6T10805   0.275   2.296  10.163 -0.9428 -0.3325  0.7693
  106OSM    C7S10806   0.361   2.475  10.243 -1.0667 -0.2761  0.3374
  106OSM    H7S10807   0.462   2.471  10.197 -1.2138 -0.3705  0.0233
  106OSM    H7T10808   0.381   2.533  10.336  3.1501  1.7656 -1.6651
  106OSM    C8S10809   0.267   2.581  10.162  0.1732  0.0123 -0.0769
  106OSM    H8S10810   0.313   2.683  10.165  0.8691 -0.3142  2.7097
  106OSM    H8T10811   0.171   2.591  10.217  1.2579  0.6405  1.7450
  106OSM    C9S10812   0.259   2.554  10.013 -0.6489  0.2189  0.1096
  106OSM    H9S10813   0.200   2.637   9.968  0.8189  1.7218  0.9050
  106OSM    H9T10814   0.197   2.463   9.999  0.8582 -0.5741 -1.5162
  106OSM   C10S10815   0.399   2.529   9.950  0.4571  0.2421 -0.2004
  106OSM   H10S10816   0.450   2.434   9.974  1.9156  1.0467 -0.0695
  106OSM   H10T10817   0.470   2.612   9.970  1.5303 -0.4504 -1.1012
  106OSM   C11S10818   0.383   2.524   9.798 -0.9323  0.2772 -0.1786
  106OSM   H11S10819   0.325   2.434   9.766 -0.6086 -0.3047  0.8427
  106OSM   H11T10820   0.486   2.534   9.758 -0.6249 -1.8657 -0.0026
  106OSM   C12S10821   0.321   2.647   9.729  0.2351 -0.6815  0.0896
  106OSM   H12S10822   0.345   2.731   9.798 -1.9967 -0.1283  0.2336
  106OSM   H12T10823   0.212   2.633   9.719 -0.0031  0.5356  0.9205
  106OSM   C13S10824   0.388   2.681   9.595  0.4159 -0.2848 -0.2906
  106OSM   H13S10825   0.499   2.679   9.601  0.3955  1.5512  1.2539
  106OSM   H13T10826   0.350   2.782   9.567  2.7338  0.8951  0.7130
  106OSM   C14S10827   0.332   2.584   9.484  0.3953  0.0343  0.2402
  106OSM   H14S10828   0.222   2.579   9.503  0.4399  1.0245  0.7792
  106OSM   H14T10829   0.366   2.481   9.510 -0.6038 -0.4509 -0.3507
  106OSM   C15S10830   0.375   2.626   9.345  0.1918  0.1471 -0.3342
  106OSM   H15S10831   0.348   2.543   9.276 -0.3919 -0.7155  0.9164
  106OSM   H15T10832   0.485   2.640   9.349  0.1494  0.4381 -0.1634
  106OSM   C16S10833   0.318   2.750   9.273 -0.0713  1.0174 -0.0645
  106OSM   H16S10834   0.334   2.842   9.332 -0.4375  1.3531 -0.4856
  106OSM   H16T10835   0.210   2.732   9.257  0.0246 -0.1181  0.5049
  106OSM   C17S10836   0.378   2.752   9.129  0.0519  0.8647 -0.4418
  106OSM   H17S10837   0.383   2.650   9.085 -0.2324 -0.2863  2.1411
  106OSM   H17T10838   0.485   2.775   9.147  0.0691  0.1360  0.4349
  106OSM   C18S10839   0.318   2.858   9.028  0.1125 -0.2091 -0.0444
  106OSM   H18S10840   0.210   2.835   9.023 -0.4049  1.3111  3.1731
  106OSM   H18T10841   0.371   2.850   8.930  0.1014  0.5445 -0.1102
  106OSM   H18U10842   0.349   2.956   9.071  0.9443 -0.5230  0.0919
  106OSM    C1F10843   0.235   1.756  10.282  0.1634 -0.1862 -0.3691
  106OSM     OF10844   0.146   1.699  10.349  0.1742  0.4451  0.2936
  106OSM    C2F10845   0.276   1.717  10.141  0.4977  0.3491  0.3288
  106OSM    H2F10846   0.384   1.693  10.138  0.3541 -0.1976 -0.9133
  106OSM    H2G10847   0.251   1.805  10.079  0.4780 -0.3677 -0.7049
  106OSM    C3F10848   0.183   1.612  10.072  0.2219  0.3359 -0.5700
  106OSM    H3F10849   0.088   1.661  10.042  0.4510  1.4321  0.4804
  106OSM    H3G10850   0.166   1.526  10.140  1.7027  0.7417  0.3403
  106OSM    C4F10851   0.246   1.566   9.942 -0.4739  0.9536 -0.5770
  106OSM    H4F10852   0.187   1.494   9.882  0.4721  0.6351 -1.1329
  106OSM    H4G10853   0.345   1.519   9.961 -0.0544  2.3931  0.9409
  106OSM    C5F10854   0.266   1.681   9.845  0.0846  0.4620  0.2083
  106OSM    H5F10855   0.346   1.752   9.877 -0.2685  1.1775 -0.4587
  106OSM    H5G10856   0.169   1.734   9.833  0.2379  0.7712  0.3124
  106OSM    C6F10857   0.312   1.633   9.707 -0.2082  0.4161 -0.7558
  106OSM    H6F10858   0.239   1.564   9.661  0.3321 -0.4428 -0.3269
  106OSM    H6G10859   0.400   1.567   9.723 -1.3966 -0.8930  0.4159
  106OSM    C7F10860   0.355   1.761   9.628  0.7389 -0.0091 -0.3656
  106OSM    H7F10861   0.393   1.716   9.534 -0.1938 -3.0186  0.6460
  106OSM    H7G10862   0.439   1.814   9.678  0.8132 -0.1642 -0.3255
  106OSM    C8F10863   0.238   1.855   9.600 -0.1537 -0.4548 -0.3766
  106OSM    H8F10864   0.219   1.925   9.685 -1.9492 -0.3715 -0.8339
  106OSM    H8G10865   0.150   1.792   9.577 -0.4477  0.3581 -1.4794
  106OSM    C9F10866   0.272   1.947   9.477 -0.8330 -0.1847  0.2794
  106OSM    H9F10867   0.306   2.050   9.498 -0.4693 -0.2709  0.1107
  106OSM   C10F10868   0.256   1.912   9.350 -0.1844  0.1964 -0.0447
  106OSM   H10F10869   0.278   1.987   9.273  1.6875 -0.0428  0.2208
  106OSM   C11F10870   0.210   1.777   9.298  0.3405  0.6782 -0.2487
  106OSM   H11F10871   0.105   1.791   9.266  0.8515  0.8144 -1.9130
  106OSM   H11G10872   0.228   1.702   9.377  0.4527  0.6074 -0.3425
  106OSM   C12F10873   0.311   1.723   9.187  0.4462 -0.0970 -0.1317
  106OSM   H12F10874   0.298   1.799   9.108 -0.6484 -0.1496 -0.0081
  106OSM   H12G10875   0.283   1.621   9.152 -0.0198  0.2519 -0.7739
  106OSM   C13F10876   0.457   1.710   9.242  0.5773  0.5358  0.1235
  106OSM   H13F10877   0.445   1.643   9.330  0.6639  1.1818  0.6339
  106OSM   H13G10878   0.501   1.809   9.265  0.2349  0.7673 -0.2146
  106OSM   C14F10879   0.546   1.629   9.140  0.0979 -0.6295  0.8952
  106OSM   H14F10880   0.540   1.519   9.156  2.5993 -1.3237 -2.4528
  106OSM   H14G10881   0.650   1.661   9.161 -0.0976  1.1666 -0.7654
  106OSM   C15F10882   0.528   1.650   8.986 -0.2076 -0.3369  0.6732
  106OSM   H15F10883   0.534   1.759   8.967  1.0063 -0.7725 -1.6703
  106OSM   H15G10884   0.432   1.615   8.944 -1.7776  2.4141  1.8732
  106OSM   C16F10885   0.654   1.590   8.910  0.6571  0.3054  0.0843
  106OSM   H16F10886   0.647   1.479   8.897 -1.7041  0.4527  0.0151
  106OSM   H16G10887   0.739   1.605   8.979 -1.0640 -0.9482  2.5306
  106OSM   C17F10888   0.683   1.659   8.775  0.1047 -0.5284  0.3664
  106OSM   H17F10889   0.591   1.653   8.713  0.8469 -0.5573 -0.7436
  106OSM   H17G10890   0.764   1.598   8.730  1.1002  0.2659  1.0577
  106OSM   C18F10891   0.721   1.807   8.793 -0.1873 -0.8009 -0.1900
  106OSM   H18F10892   0.647   1.881   8.833  1.8138  1.7587 -1.0602
  106OSM   H18G10893   0.740   1.848   8.692 -5.5834  0.3496 -0.9156
  106OSM   H18H10894   0.811   1.817   8.857 -1.2934 -1.7386  1.5507
  107OSM      N10895   3.555   6.796  11.075  0.5256 -0.1757  0.1346
  107OSM    C1510896   3.554   6.938  11.026 -0.6414 -0.4267 -0.3459
  107OSM   H15A10897   3.517   6.939  10.925 -0.6403 -0.3755 -0.3464
  107OSM   H15B10898   3.659   6.962  11.026 -0.9070  0.7765 -0.4733
  107OSM   H15C10899   3.486   7.002  11.081 -0.4201 -0.1404 -0.4095
  107OSM    C1410900   3.640   6.723  10.977  0.6793 -0.6256  0.2014
  107OSM   H14A10901   3.623   6.616  10.974  0.5004 -0.5749 -1.2269
  107OSM   H14B10902   3.745   6.740  10.995  0.4594  1.2173 -0.1863
  107OSM   H14C10903   3.625   6.765  10.879 -1.4343  0.6703  1.0533
  107OSM    C1310904   3.602   6.790  11.215 -0.1037  0.2555 -0.2593
  107OSM   H13A10905   3.548   6.852  11.285 -0.1327  0.4002 -0.4104
  107OSM   H13B10906   3.710   6.791  11.221 -0.1108 -0.1529  0.0026
  107OSM   H13C10907   3.580   6.687  11.240  1.1669 -0.5810 -2.4858
  107OSM    C1210908   3.403   6.771  11.068  0.0533 -0.4012  0.0994
  107OSM   H12A10909   3.366   6.791  10.969 -0.3443 -0.7194  0.1814
  107OSM   H12B10910   3.339   6.834  11.128 -1.5327 -4.0468  2.4322
  107OSM    C1110911   3.353   6.631  11.109  0.1769  0.0587 -0.4937
  107OSM   H11A10912   3.242   6.634  11.100  0.0345  0.2417  1.1604
  107OSM   H11B10913   3.373   6.601  11.214  3.0641  0.4333 -0.8903
  107OSM      P10914   3.347   6.496  10.877 -0.8726  0.1904 -0.1116
  107OSM    O1310915   3.445   6.406  10.805  0.3826 -0.1005 -0.3302
  107OSM    O1410916   3.220   6.436  10.915  0.9360  0.5697  0.2564
  107OSM    O1110917   3.325   6.635  10.805  0.2925  0.5040  0.0620
  107OSM    O1210918   3.401   6.540  11.016 -0.1364  0.2032  0.0920
  107OSM    C1S10919   3.412   6.693  10.708  0.0142  0.3054  0.5415
  107OSM    H1S10920   3.516   6.666  10.736 -0.2968 -0.4797  0.9654
  107OSM    H1T10921   3.398   6.802  10.716 -2.7585 -0.0566  1.0977
  107OSM     NF10922   3.483   6.725  10.484  0.3379 -0.2228 -0.1078
  107OSM    HNF10923   3.458   6.809  10.436 -0.6927  0.2213  1.1964
  107OSM    C2S10924   3.376   6.652  10.561 -0.5883  0.6349 -0.2844
  107OSM    H2S10925   3.385   6.543  10.544 -0.7160  0.0725  2.8897
  107OSM    C3S10926   3.233   6.690  10.526  0.5774 -0.3971  0.1737
  107OSM    H3S10927   3.226   6.796  10.560 -0.4328  0.3347 -2.2344
  107OSM     O310928   3.126   6.626  10.604 -0.0997  0.0754  0.2073
  107OSM    HO310929   3.175   6.607  10.685  0.1494  0.6077  0.1863
  107OSM    C4S10930   3.208   6.684  10.379  0.8784 -0.5140  0.5508
  107OSM    H4S10931   3.218   6.777  10.321 -0.9216 -0.3939  0.4108
  107OSM    C5S10932   3.174   6.564  10.318  0.0062 -0.5037 -0.7166
  107OSM    H5S10933   3.150   6.474  10.375  0.9502 -0.9374 -0.9929
  107OSM    C6S10934   3.147   6.545  10.175 -0.3165 -0.3168 -0.0165
  107OSM    H6S10935   3.037   6.551  10.159 -0.5017 -1.0609  0.8905
  107OSM    H6T10936   3.172   6.437  10.163  2.0352  0.2296 -0.2993
  107OSM    C7S10937   3.226   6.634  10.080 -0.4870  0.6294 -0.4170
  107OSM    H7S10938   3.335   6.636  10.104 -0.9188 -1.8517  2.0126
  107OSM    H7T10939   3.191   6.739  10.078  0.4930  1.0178  1.4423
  107OSM    C8S10940   3.208   6.581   9.933 -0.6152  0.1390 -0.1622
  107OSM    H8S10941   3.100   6.569   9.908 -1.0065  1.7846  0.7014
  107OSM    H8T10942   3.251   6.479   9.921 -0.1691  0.3527 -0.3685
  107OSM    C9S10943   3.280   6.672   9.831 -0.3583  0.4168  0.0332
  107OSM    H9S10944   3.388   6.683   9.858 -0.4673  1.8866 -0.0838
  107OSM    H9T10945   3.223   6.766   9.844 -0.5137  0.4156 -0.6170
  107OSM   C10S10946   3.252   6.631   9.693 -0.2788 -0.3186 -0.1427
  107OSM   H10S10947   3.143   6.635   9.670  0.0225 -1.3646 -1.8344
  107OSM   H10T10948   3.290   6.532   9.660  1.5322  0.8821 -1.7237
  107OSM   C11S10949   3.309   6.724   9.581 -0.7676 -0.5198  0.4334
  107OSM   H11S10950   3.418   6.734   9.597 -0.5512 -1.8185 -0.1717
  107OSM   H11T10951   3.260   6.824   9.578  1.1761  0.4229 -1.9921
  107OSM   C12S10952   3.302   6.658   9.438  0.1785  0.1260  0.6498
  107OSM   H12S10953   3.197   6.625   9.422  0.2206 -0.2381  1.1010
  107OSM   H12T10954   3.358   6.562   9.445 -1.6916 -0.9928  0.7636
  107OSM   C13S10955   3.351   6.745   9.323 -0.2334  0.3616  0.2409
  107OSM   H13S10956   3.459   6.765   9.341 -0.2988 -0.1737  1.3173
  107OSM   H13T10957   3.304   6.846   9.318 -0.7370  0.1342  0.4102
  107OSM   C14S10958   3.336   6.673   9.189  0.6008 -0.7893  0.3106
  107OSM   H14S10959   3.366   6.568   9.206 -0.6916 -1.3546 -0.8816
  107OSM   H14T10960   3.397   6.726   9.112  0.5444  1.6442  1.8600
  107OSM   C15S10961   3.188   6.692   9.147 -0.7323 -0.3948 -0.1250
  107OSM   H15S10962   3.149   6.796   9.156 -1.5572 -0.5292 -1.9813
  107OSM   H15T10963   3.126   6.626   9.211 -0.8537 -0.6794 -0.5315
  107OSM   C16S10964   3.153   6.650   9.004  0.2337  0.0098  0.5346
  107OSM   H16S10965   3.196   6.548   8.992  3.2049  1.0635  1.6167
  107OSM   H16T10966   3.196   6.724   8.933  0.4269  0.5802  1.2490
  107OSM   C17S10967   3.007   6.647   8.981  0.2755 -0.4931 -0.1996
  107OSM   H17S10968   2.974   6.753   8.987  0.5143 -0.4775  1.0366
  107OSM   H17T10969   2.960   6.588   9.062 -2.1542  0.1331 -1.1244
  107OSM   C18S10970   2.968   6.579   8.847 -0.3900 -0.4734 -0.0304
  107OSM   H18S10971   2.864   6.615   8.830 -0.0552  2.1463  3.0320
  107OSM   H18T10972   2.975   6.469   8.845  0.6104 -0.4000 -0.8582
  107OSM   H18U10973   3.027   6.619   8.762  0.5524 -1.9216 -0.0669
  107OSM    C1F10974   3.611   6.695  10.492  0.0212 -0.1437 -1.2014
  107OSM     OF10975   3.651   6.599  10.548 -0.4277 -0.2066 -0.1851
  107OSM    C2F10976   3.701   6.795  10.423  0.8107  0.0506 -0.0259
  107OSM    H2F10977   3.660   6.894  10.453  0.2739 -0.4560  0.9521
  107OSM    H2G10978   3.700   6.787  10.313  0.1770  0.7853 -0.0732
  107OSM    C3F10979   3.844   6.779  10.480 -0.4526 -0.1314 -0.2299
  107OSM    H3F10980   3.885   6.679  10.458 -0.4962  0.1116 -1.5042
  107OSM    H3G10981   3.845   6.780  10.591 -1.7917  2.2564 -0.2041
  107OSM    C4F10982   3.946   6.880  10.430  0.4791 -0.0409 -0.6070
  107OSM    H4F10983   4.050   6.858  10.462  1.0269  0.7847 -1.7780
  107OSM    H4G10984   3.922   6.977  10.479  1.0904 -0.2168  0.0455
  107OSM    C5F10985   3.940   6.889  10.271 -0.4481  0.0970  0.3499
  107OSM    H5F10986   3.837   6.919  10.243 -0.4739  0.2349  0.5923
  107OSM    H5G10987   3.936   6.783  10.239  0.2050  0.4654 -0.9944
  107OSM    C6F10988   4.051   6.973  10.204 -0.0241 -0.0443  0.5202
  107OSM    H6F10989   4.145   6.914  10.215  0.3684  0.3842 -0.5364
  107OSM    H6G10990   4.047   7.069  10.259 -1.9186 -0.9746  2.0939
  107OSM    C7F10991   4.029   6.988  10.050  0.2134  0.5588 -0.2613
  107OSM    H7F10992   4.085   7.069   9.999  0.3540  1.3386  1.1043
  107OSM    H7G10993   3.921   7.016  10.050  0.1206  0.2154 -0.6735
  107OSM    C8F10994   4.029   6.859   9.973  0.0230  0.7196  0.1377
  107OSM    H8F10995   3.972   6.874   9.879 -0.6510 -0.0583  0.4136
  107OSM    H8G10996   3.980   6.782  10.037 -0.8726  3.0871  2.3982
  107OSM    C9F10997   4.168   6.808   9.936  0.1798  0.4005  0.2962
  107OSM    H9F10998   4.216   6.749  10.015  1.5817  1.6371  0.4007
  107OSM   C10F10999   4.239   6.845   9.832 -0.2966  0.4558  0.0925
  107OSM   H10F11000   4.343   6.815   9.812 -0.0740  0.6250  0.9734
  107OSM   C11F11001   4.195   6.943   9.725 -0.0604 -0.7437 -0.4945
  107OSM   H11F11002   4.281   7.014   9.727 -0.5107 -0.1591 -1.8436
  107OSM   H11G11003   4.101   6.990   9.761  0.7841  0.8813 -0.3499
  107OSM   C12F11004   4.191   6.872   9.597  0.2360 -0.0587 -0.2351
  107OSM   H12F11005   4.129   6.780   9.601  2.0387 -1.2412  1.1329
  107OSM   H12G11006   4.296   6.848   9.570  0.2153 -1.2650  0.7472
  107OSM   C13F11007   4.135   6.975   9.512  0.3986  0.4317 -0.7543
  107OSM   H13F11008   4.186   7.074   9.517 -0.5116  0.9614 -1.6482
  107OSM   H13G11009   4.026   6.995   9.524 -0.3543 -1.4915 -3.8260
  107OSM   C14F11010   4.138   6.939   9.363 -0.5220  0.4298 -0.3170
  107OSM   H14F11011   4.064   6.858   9.345 -1.4400  1.4043 -0.9771
  107OSM   H14G11012   4.234   6.899   9.325 -1.7864 -1.9498 -1.1233
  107OSM   C15F11013   4.107   7.046   9.254 -0.2927  0.3889 -0.1156
  107OSM   H15F11014   4.189   7.118   9.233 -0.5834  0.1234 -2.2785
  107OSM   H15G11015   4.020   7.102   9.296 -0.7457 -1.2325  1.1304
  107OSM   C16F11016   4.046   6.984   9.128 -0.2863 -0.4405 -0.2183
  107OSM   H16F11017   3.949   6.935   9.151 -0.1593 -1.1619 -1.1518
  107OSM   H16G11018   4.119   6.905   9.098 -1.0171 -1.5355  0.8317
  107OSM   C17F11019   4.033   7.082   9.006  0.5473  0.6009  0.3542
  107OSM   H17F11020   4.036   7.032   8.907  3.6400  1.7614 -0.2009
  107OSM   H17G11021   4.126   7.140   8.989  0.7482  0.1628 -0.0401
  107OSM   C18F11022   3.914   7.175   9.020  0.1439  0.4685  0.3376
  107OSM   H18F11023   3.833   7.125   9.077  0.5327  0.8555  1.2235
  107OSM   H18G11024   3.874   7.212   8.923 -1.1821 -0.4338  0.5218
  107OSM   H18H11025   3.925   7.264   9.086  1.4256  0.5368  0.0416
  108OSM      N11026   0.253   0.715  10.681  1.1520 -0.2967 -0.6541
  108OSM    C1511027   0.347   0.795  10.597  0.3329  0.1828  0.0767
  108OSM   H15A11028   0.402   0.741  10.521 -0.0567  2.9298 -2.2368
  108OSM   H15B11029   0.421   0.843  10.659  0.5669 -1.8423  1.4217
  108OSM   H15C11030   0.287   0.876  10.560  0.4517 -0.0407 -0.5999
  108OSM    C1411031   0.345   0.628  10.761 -0.2765 -0.5557 -0.0193
  108OSM   H14A11032   0.421   0.681  10.816  0.1461 -1.7077  0.5201
  108OSM   H14B11033   0.391   0.571  10.682 -0.9206 -1.4445  0.2300
  108OSM   H14C11034   0.290   0.567  10.832 -0.1673  1.0347  1.4554
  108OSM    C1311035   0.179   0.809  10.775  0.1803  0.4939 -0.2442
  108OSM   H13A11036   0.137   0.895  10.723  0.0716 -0.3753 -1.6085
  108OSM   H13B11037   0.245   0.849  10.851 -0.4902  1.0143  0.0751
  108OSM   H13C11038   0.087   0.768  10.815 -1.3371  1.9308 -2.1098
  108OSM    C1211039   0.171   0.619  10.600  0.5103  0.0984  0.4376
  108OSM   H12A11040   0.121   0.547  10.664  0.7075 -1.5499 -1.2017
  108OSM   H12B11041   0.241   0.568  10.535  0.7556 -1.4802  1.8924
  108OSM    C1111042   0.074   0.681  10.503  0.0183  0.2484 -0.1788
  108OSM   H11A11043   0.014   0.608  10.445 -0.5480  0.1929  0.4787
  108OSM   H11B11044   0.128   0.751  10.435  0.1747 -0.6126 -0.9401
  108OSM      P11045  -0.063   0.908  10.543 -0.2714  0.3343 -0.1828
  108OSM    O1311046  -0.151   0.974  10.639 -0.0893 -0.3849  0.6415
  108OSM    O1411047   0.068   0.981  10.517  0.0678  0.1491 -0.2620
  108OSM    O1111048  -0.138   0.896  10.405 -0.1459  0.1576  0.4743
  108OSM    O1211049  -0.031   0.756  10.575 -0.6470 -0.7987 -0.1558
  108OSM    C1S11050  -0.276   0.845  10.404  0.2389 -0.0868  0.0859
  108OSM    H1S11051  -0.340   0.904  10.473  0.6968 -1.8281  2.0890
  108OSM    H1T11052  -0.284   0.739  10.437 -1.8596 -0.2010 -0.7338
  108OSM     NF11053  -0.474   0.823  10.265  0.4849  0.1382 -0.3184
  108OSM    HNF11054  -0.503   0.733  10.234 -1.5047  0.5734  0.1678
  108OSM    C2S11055  -0.332   0.844  10.254  0.3177  0.2264  0.4064
  108OSM    H2S11056  -0.316   0.947  10.216 -2.9433  0.0254 -1.7327
  108OSM    C3S11057  -0.250   0.737  10.174 -0.0772 -0.4149 -0.1167
  108OSM    H3S11058  -0.277   0.638  10.217  0.5183  0.6801  2.8390
  108OSM     O311059  -0.111   0.749  10.188  0.7841 -0.6611 -0.5436
  108OSM    HO311060  -0.117   0.823  10.250  1.3953 -1.5246  0.5672
  108OSM    C4S11061  -0.281   0.753  10.032 -0.3981  0.1592  1.0253
  108OSM    H4S11062  -0.277   0.860  10.010 -0.5875 -0.2898 -1.3540
  108OSM    C5S11063  -0.311   0.654   9.945 -0.5290  0.5799 -0.0992
  108OSM    H5S11064  -0.311   0.549   9.979 -1.8914 -0.2586 -2.6174
  108OSM    C6S11065  -0.355   0.667   9.802  0.0492  0.5318 -0.4241
  108OSM    H6S11066  -0.466   0.653   9.807 -0.2116  2.4476 -0.3220
  108OSM    H6T11067  -0.309   0.595   9.732 -0.7100 -0.5162  0.1309
  108OSM    C7S11068  -0.331   0.800   9.727  0.2375 -0.0694  0.1143
  108OSM    H7S11069  -0.224   0.813   9.697 -0.3002 -0.8421 -2.2425
  108OSM    H7T11070  -0.362   0.882   9.795  2.6298  1.9153 -1.1096
  108OSM    C8S11071  -0.420   0.812   9.603 -0.6388  0.5010  0.3407
  108OSM    H8S11072  -0.453   0.918   9.603 -1.4719  0.2457  0.9162
  108OSM    H8T11073  -0.513   0.752   9.617 -0.1296 -0.2154  0.7091
  108OSM    C9S11074  -0.356   0.774   9.470 -0.1599 -0.5360  0.3237
  108OSM    H9S11075  -0.441   0.738   9.408 -1.3863 -0.8234  2.1217
  108OSM    H9T11076  -0.271   0.704   9.483 -0.0894  0.1825  4.2410
  108OSM   C10S11077  -0.292   0.899   9.398  0.3712  1.0713 -0.6306
  108OSM   H10S11078  -0.216   0.955   9.457  2.1919 -0.0991 -1.8455
  108OSM   H10T11079  -0.372   0.970   9.366 -1.3556 -1.0696 -1.1294
  108OSM   C11S11080  -0.234   0.850   9.261 -0.2013  0.4034 -0.6610
  108OSM   H11S11081  -0.167   0.762   9.276 -2.0050 -1.4862 -3.1341
  108OSM   H11T11082  -0.158   0.926   9.236 -1.5084  1.8568 -0.3266
  108OSM   C12S11083  -0.345   0.827   9.155 -0.2827 -0.1620 -0.0084
  108OSM   H12S11084  -0.390   0.927   9.136 -0.3934 -0.3253 -0.6012
  108OSM   H12T11085  -0.428   0.757   9.181 -0.5582  0.0923 -0.2037
  108OSM   C13S11086  -0.274   0.778   9.026 -0.3720 -0.8022 -0.1813
  108OSM   H13S11087  -0.239   0.676   9.053  0.6912 -0.9622 -2.0599
  108OSM   H13T11088  -0.180   0.835   9.011  0.0862 -1.6756 -0.6376
  108OSM   C14S11089  -0.359   0.783   8.901  0.7486  0.0216 -0.4627
  108OSM   H14S11090  -0.380   0.889   8.874  2.3984 -0.3321 -3.3883
  108OSM   H14T11091  -0.455   0.729   8.917 -0.2317  1.9522  0.3030
  108OSM   C15S11092  -0.287   0.719   8.777 -0.7304  0.4766 -0.2077
  108OSM   H15S11093  -0.350   0.720   8.686 -0.5503  2.9961 -0.3346
  108OSM   H15T11094  -0.259   0.613   8.789  1.5583  0.7720 -2.5235
  108OSM   C16S11095  -0.154   0.793   8.754  0.3110  0.2384  0.2119
  108OSM   H16S11096  -0.082   0.766   8.834 -0.8548 -1.4525  0.7208
  108OSM   H16T11097  -0.180   0.900   8.770 -1.1957 -0.1196  0.2797
  108OSM   C17S11098  -0.078   0.765   8.623  0.3261  0.2113 -0.4656
  108OSM   H17S11099  -0.149   0.773   8.537 -2.1061 -0.2093  1.4702
  108OSM   H17T11100  -0.046   0.659   8.629  0.9420  0.5178  2.0676
  108OSM   C18S11101   0.043   0.852   8.598 -0.1781  0.2504 -0.0432
  108OSM   H18S11102   0.115   0.847   8.683 -0.2780 -1.3772 -0.0348
  108OSM   H18T11103  -0.004   0.953   8.600 -2.8192 -0.8810 -1.7136
  108OSM   H18U11104   0.092   0.831   8.501 -3.9629  0.2112 -2.0260
  108OSM    C1F11105  -0.562   0.925  10.282 -1.2835  0.2588 -0.2222
  108OSM     OF11106  -0.523   1.040  10.284  0.0445  0.0017 -0.1101
  108OSM    C2F11107  -0.708   0.899  10.312  0.2458  1.1220  0.0891
  108OSM    H2F11108  -0.743   0.919  10.416 -1.2892 -3.3643  0.5267
  108OSM    H2G11109  -0.707   0.790  10.293 -1.6504  1.1055 -0.0164
  108OSM    C3F11110  -0.807   0.955  10.198 -0.0800 -0.2805 -0.4366
  108OSM    H3F11111  -0.794   1.064  10.215  0.1489  0.0819 -2.8614
  108OSM    H3G11112  -0.911   0.939  10.233 -0.0531 -1.9077 -1.0592
  108OSM    C4F11113  -0.766   0.906  10.060 -0.2461 -0.2807  0.4061
  108OSM    H4F11114  -0.772   0.797  10.077  2.4066 -0.7713 -1.4931
  108OSM    H4G11115  -0.657   0.920  10.041 -0.6401  2.4153 -0.0904
  108OSM    C5F11116  -0.858   0.943   9.942  0.0671  0.6666  0.1756
  108OSM    H5F11117  -0.875   1.052   9.935 -2.9309  0.1160 -2.4110
  108OSM    H5G11118  -0.958   0.897   9.953  0.4393 -0.2136 -0.0585
  108OSM    C6F11119  -0.803   0.901   9.803  0.2453  0.4607 -0.3539
  108OSM    H6F11120  -0.781   0.792   9.794 -2.6089 -0.3532  1.7967
  108OSM    H6G11121  -0.707   0.957   9.794  0.3861  0.1841 -0.6059
  108OSM    C7F11122  -0.883   0.950   9.686 -0.2595  0.4262  0.0284
  108OSM    H7F11123  -0.903   1.059   9.695 -2.4714  0.2002 -1.7061
  108OSM    H7G11124  -0.983   0.902   9.679 -0.5997  1.3889 -2.3043
  108OSM    C8F11125  -0.806   0.939   9.551 -0.2041  0.1249  1.1736
  108OSM    H8F11126  -0.884   0.950   9.473 -0.1545 -1.1285  0.9314
  108OSM    H8G11127  -0.764   0.839   9.529 -1.7558 -0.6273  1.5891
  108OSM    C9F11128  -0.707   1.051   9.532 -0.3468  0.5459  0.0276
  108OSM    H9F11129  -0.687   1.113   9.621 -0.3998 -0.7928  0.9860
  108OSM   C10F11130  -0.657   1.088   9.415 -0.0616 -0.1154  0.3565
  108OSM   H10F11131  -0.593   1.178   9.418  0.5664 -0.6129  2.1358
  108OSM   C11F11132  -0.681   1.026   9.278  0.9484  0.8415 -1.2068
  108OSM   H11F11133  -0.760   0.948   9.284  0.6989  1.3279  2.8353
  108OSM   H11G11134  -0.587   0.973   9.247 -0.1443 -0.3186 -2.6235
  108OSM   C12F11135  -0.726   1.123   9.172 -0.6163 -0.5176 -0.0637
  108OSM   H12F11136  -0.657   1.209   9.168 -1.2481 -0.0871 -2.3787
  108OSM   H12G11137  -0.824   1.165   9.201 -0.2055  1.3632 -1.2856
  108OSM   C13F11138  -0.747   1.046   9.041  0.1891  0.1059 -0.0177
  108OSM   H13F11139  -0.832   1.094   8.987 -0.7771  0.0269  1.4271
  108OSM   H13G11140  -0.773   0.941   9.064  1.7605  0.2414  2.4926
  108OSM   C14F11141  -0.634   1.044   8.934 -0.0733  0.4265 -0.5762
  108OSM   H14F11142  -0.663   0.970   8.857  1.1017 -2.7429  1.9076
  108OSM   H14G11143  -0.548   1.005   8.994 -0.5782 -0.7943 -0.6380
  108OSM   C15F11144  -0.606   1.182   8.864  0.1981  0.8416 -0.1308
  108OSM   H15F11145  -0.599   1.258   8.944 -0.7319  0.0172  0.7501
  108OSM   H15G11146  -0.692   1.215   8.802 -1.3271 -0.5843  1.1541
  108OSM   C16F11147  -0.473   1.180   8.781  0.0790 -0.2693  0.5656
  108OSM   H16F11148  -0.395   1.134   8.846  2.2441  0.3558 -1.5218
  108OSM   H16G11149  -0.448   1.286   8.761 -0.0313 -0.4804 -0.6747
  108OSM   C17F11150  -0.486   1.106   8.645 -0.2575  0.0244 -0.7325
  108OSM   H17F11151  -0.581   1.144   8.603 -1.5040 -0.2389  1.7782
  108OSM   H17G11152  -0.513   1.001   8.666  0.1693  0.0568  0.0208
  108OSM   C18F11153  -0.367   1.127   8.549  0.0009  0.4017  0.8984
  108OSM   H18F11154  -0.379   1.084   8.448 -0.2507 -2.2412  2.0266
  108OSM   H18G11155  -0.271   1.082   8.582  0.0936  1.3023  1.8945
  108OSM   H18H11156  -0.346   1.236   8.542 -0.1933  0.3700 -0.3318
  109OSM      N11157   6.129   5.136  11.135  0.4619  0.1113 -0.0120
  109OSM    C1511158   6.159   5.246  11.232  0.1053  0.0297  0.0730
  109OSM   H15A11159   6.266   5.259  11.232 -0.1696  2.5173 -1.2314
  109OSM   H15B11160   6.132   5.222  11.334  0.3705 -0.7307 -0.0312
  109OSM   H15C11161   6.119   5.343  11.207 -2.1839 -0.9093 -0.0554
  109OSM    C1411162   6.184   5.012  11.200 -0.3031  0.0306  0.3096
  109OSM   H14A11163   6.286   5.023  11.232 -0.7238  2.1122  1.0049
  109OSM   H14B11164   6.176   4.918  11.147 -1.8761  0.1854  0.2332
  109OSM   H14C11165   6.128   4.998  11.291  0.2910 -1.6112  0.4383
  109OSM    C1311166   5.982   5.107  11.127  0.4175  0.0087 -0.6050
  109OSM   H13A11167   5.965   5.021  11.065  1.3888 -0.0332 -0.8234
  109OSM   H13B11168   5.931   5.189  11.077  1.6092  1.5385  0.6366
  109OSM   H13C11169   5.932   5.090  11.221  1.9354 -1.0175  0.0234
  109OSM    C1211170   6.193   5.150  10.998 -0.0659  0.3624 -0.2843
  109OSM   H12A11171   6.205   5.051  10.955  1.1621 -0.3986  1.7469
  109OSM   H12B11172   6.293   5.188  11.012 -0.1630  0.3932  0.3157
  109OSM    C1111173   6.125   5.246  10.892 -0.5276 -0.4902 -1.1838
  109OSM   H11A11174   6.024   5.213  10.860 -1.0542 -0.5437  0.4677
  109OSM   H11B11175   6.187   5.225  10.802  0.2995 -0.1622 -0.6929
  109OSM      P11176   6.010   5.472  10.943 -0.5024  0.0731 -0.2449
  109OSM    O1311177   5.902   5.402  11.001 -0.0969  1.0480 -0.0216
  109OSM    O1411178   6.053   5.596  11.013  0.1491 -0.3655 -0.1678
  109OSM    O1111179   5.984   5.492  10.786  0.0757 -0.3270 -0.5373
  109OSM    O1211180   6.133   5.375  10.949 -0.4485  0.3673  0.6786
  109OSM    C1S11181   6.051   5.590  10.701 -0.1710  0.7608  0.1990
  109OSM    H1S11182   6.161   5.588  10.718  0.0275 -0.5903 -1.1200
  109OSM    H1T11183   6.016   5.694  10.722 -1.9235  0.4049 -0.8586
  109OSM     NF11184   6.081   5.659  10.480 -0.8462 -0.4251  0.0131
  109OSM    HNF11185   6.008   5.717  10.444  0.3774 -0.0683 -2.0016
  109OSM    C2S11186   6.049   5.543  10.553 -0.3076 -0.0886 -0.8999
  109OSM    H2S11187   6.124   5.463  10.535 -0.4065 -0.1063 -1.2408
  109OSM    C3S11188   5.914   5.483  10.511  0.0880  0.4574 -0.4536
  109OSM    H3S11189   5.822   5.540  10.535  0.0224  0.2626 -0.2393
  109OSM     O311190   5.897   5.359  10.579 -0.0133 -0.2782 -0.4312
  109OSM    HO311191   5.939   5.378  10.663 -0.2305 -1.8972  0.0601
  109OSM    C4S11192   5.907   5.470  10.360  0.3813  0.7862 -0.1020
  109OSM    H4S11193   5.963   5.385  10.319 -0.9000 -0.4452  0.6692
  109OSM    C5S11194   5.831   5.544  10.281  0.4200 -0.2820  0.2537
  109OSM    H5S11195   5.773   5.627  10.324  3.2487  1.8101  0.2074
  109OSM    C6S11196   5.843   5.522  10.137 -0.1695  0.0428  0.0434
  109OSM    H6S11197   5.760   5.462  10.093 -1.5085  2.4001 -0.7158
  109OSM    H6T11198   5.938   5.477  10.102 -0.0172  0.4837 -0.1046
  109OSM    C7S11199   5.825   5.663  10.077  0.3628 -0.1398 -1.4584
  109OSM    H7S11200   5.901   5.728  10.125  0.4595 -1.0071 -0.4179
  109OSM    H7T11201   5.733   5.718  10.105  0.5451  0.9225 -2.9186
  109OSM    C8S11202   5.850   5.675   9.924  0.0335 -0.0731 -0.7690
  109OSM    H8S11203   5.956   5.651   9.903 -0.3453 -1.3440 -1.3442
  109OSM    H8T11204   5.825   5.775   9.884  1.8268  0.8634  0.4104
  109OSM    C9S11205   5.771   5.574   9.825 -0.5310 -0.1860 -0.3570
  109OSM    H9S11206   5.665   5.569   9.859 -0.6661  4.5866  0.3094
  109OSM    H9T11207   5.812   5.471   9.830  2.5942  1.0743  1.4787
  109OSM   C10S11208   5.789   5.616   9.675 -0.8297  0.0679  0.1823
  109OSM   H10S11209   5.763   5.721   9.651  1.9955  0.2580 -2.3683
  109OSM   H10T11210   5.710   5.562   9.618  1.6229 -3.8402  0.2851
  109OSM   C11S11211   5.921   5.590   9.608  0.2590 -0.2623 -0.3054
  109OSM   H11S11212   5.937   5.481   9.625 -0.1916 -0.4867 -1.3038
  109OSM   H11T11213   6.000   5.623   9.679 -0.3247 -1.6139  0.9874
  109OSM   C12S11214   5.932   5.617   9.457  0.5312 -0.3942  0.1053
  109OSM   H12S11215   5.862   5.553   9.400 -0.0116  0.3781 -0.1029
  109OSM   H12T11216   6.030   5.585   9.417  0.8107  1.0997 -0.4343
  109OSM   C13S11217   5.910   5.765   9.423 -0.2675  0.4340 -0.0546
  109OSM   H13S11218   5.974   5.813   9.501 -1.8024  2.1714  0.1378
  109OSM   H13T11219   5.804   5.791   9.439 -1.1688 -2.6439 -0.6050
  109OSM   C14S11220   5.960   5.807   9.284 -0.3652  0.3789  0.8544
  109OSM   H14S11221   6.061   5.767   9.260  0.2581  2.8136 -0.6962
  109OSM   H14T11222   5.967   5.918   9.280  2.3759  0.2110  0.4421
  109OSM   C15S11223   5.868   5.762   9.171  0.2147 -1.0806  0.0837
  109OSM   H15S11224   5.765   5.792   9.198  0.3452  1.6213 -2.1197
  109OSM   H15T11225   5.867   5.652   9.157 -0.0099 -1.1906  0.9657
  109OSM   C16S11226   5.891   5.850   9.048 -0.0793  0.5325  0.0035
  109OSM   H16S11227   5.997   5.826   9.022  0.4829  0.9061  1.8630
  109OSM   H16T11228   5.891   5.956   9.081  1.9809  0.8746 -1.0119
  109OSM   C17S11229   5.801   5.823   8.932 -0.4093 -0.3392  0.0679
  109OSM   H17S11230   5.697   5.825   8.970 -0.4578 -2.8112  0.1722
  109OSM   H17T11231   5.826   5.718   8.906  0.3087 -0.5976  1.7713
  109OSM   C18S11232   5.819   5.920   8.817 -0.0064 -0.1829  0.2722
  109OSM   H18S11233   5.744   5.889   8.741 -1.4777 -1.7293  2.3007
  109OSM   H18T11234   5.921   5.927   8.773  0.3339  3.0536  1.4847
  109OSM   H18U11235   5.798   6.020   8.859 -2.3055 -1.2717  1.8442
  109OSM    C1F11236   6.200   5.713  10.475  0.1949 -0.1633  0.4665
  109OSM     OF11237   6.295   5.679  10.548 -0.4277 -0.1624  0.8982
  109OSM    C2F11238   6.227   5.818  10.379  0.2416 -0.2424  0.0039
  109OSM    H2F11239   6.322   5.792  10.326  0.3101  3.1654 -1.6687
  109OSM    H2G11240   6.242   5.907  10.444 -0.4421 -1.2212  1.5286
  109OSM    C3F11241   6.122   5.848  10.272 -0.1499 -0.2166 -0.6407
  109OSM    H3F11242   6.034   5.893  10.323 -0.2633 -0.0875 -0.9532
  109OSM    H3G11243   6.084   5.758  10.218  0.3933 -0.2857 -0.9154
  109OSM    C4F11244   6.174   5.950  10.168  0.0208  0.0252 -0.6818
  109OSM    H4F11245   6.269   5.918  10.121  0.9004 -0.2816  1.2633
  109OSM    H4G11246   6.189   6.048  10.218 -1.0943 -1.0926  1.9105
  109OSM    C5F11247   6.064   5.972  10.062  0.1063 -0.1842 -0.5064
  109OSM    H5F11248   5.974   6.004  10.118  1.9938  0.7325  2.1058
  109OSM    H5G11249   6.046   5.881  10.001  0.0970 -2.1021  2.3033
  109OSM    C6F11250   6.103   6.082   9.973  0.3288  0.5189  0.4076
  109OSM    H6F11251   6.187   6.053   9.907  1.0007  2.1123  0.5460
  109OSM    H6G11252   6.142   6.160  10.041 -0.6722  1.2268  0.1823
  109OSM    C7F11253   5.992   6.130   9.878  0.2007  0.0669 -0.6746
  109OSM    H7F11254   5.915   6.177   9.942  0.4186 -1.2964  0.6066
  109OSM    H7G11255   5.947   6.037   9.837 -0.9291 -0.3661  1.5207
  109OSM    C8F11256   6.042   6.216   9.764  0.0426  0.1807 -0.2174
  109OSM    H8F11257   6.107   6.150   9.703 -0.4913 -0.1245 -0.4587
  109OSM    H8G11258   6.112   6.289   9.811  2.1102 -0.9874 -1.4365
  109OSM    C9F11259   5.938   6.290   9.682 -0.2001  0.1926 -1.4219
  109OSM    H9F11260   5.896   6.373   9.740  0.4166 -0.7446  0.4064
  109OSM   C10F11261   5.886   6.277   9.558 -0.3497  0.1873 -0.1710
  109OSM   H10F11262   5.813   6.352   9.524 -2.2201 -0.7099  1.7412
  109OSM   C11F11263   5.929   6.177   9.454 -0.7720  0.3647 -0.1634
  109OSM   H11F11264   5.836   6.153   9.398 -0.7739  0.1095 -0.0477
  109OSM   H11G11265   5.979   6.087   9.494 -2.3261 -0.4192  0.0627
  109OSM   C12F11266   6.026   6.240   9.355  0.5898 -0.7760  0.5668
  109OSM   H12F11267   6.057   6.155   9.290  0.2450 -0.3404 -0.1683
  109OSM   H12G11268   6.121   6.257   9.410 -0.6626  0.7308  2.3267
  109OSM   C13F11269   5.973   6.352   9.267  0.5122 -0.1634 -0.0403
  109OSM   H13F11270   5.976   6.447   9.323  3.7899  1.0420 -2.0917
  109OSM   H13G11271   5.867   6.337   9.238  0.6791  0.0464 -0.7858
  109OSM   C14F11272   6.057   6.374   9.144 -0.0229  0.7474  0.3327
  109OSM   H14F11273   6.164   6.390   9.168  0.8759 -3.0124 -0.8312
  109OSM   H14G11274   6.024   6.468   9.096  0.4732  0.2853 -0.9366
  109OSM   C15F11275   6.027   6.255   9.042 -0.5996  0.3703 -0.5547
  109OSM   H15F11276   5.932   6.271   8.987 -0.1609 -2.2551 -2.1913
  109OSM   H15G11277   6.019   6.157   9.092 -0.4629  0.3238 -0.6233
  109OSM   C16F11278   6.137   6.249   8.933 -0.6955  0.2547  0.6445
  109OSM   H16F11279   6.120   6.167   8.860  2.9524  0.0902 -0.1551
  109OSM   H16G11280   6.235   6.233   8.983  0.3740 -0.2448 -1.5252
  109OSM   C17F11281   6.145   6.381   8.855 -0.4715  0.7018  0.4689
  109OSM   H17F11282   6.171   6.458   8.930  0.9750 -0.4184  1.1489
  109OSM   H17G11283   6.054   6.416   8.803  0.2795  0.9910 -0.6741
  109OSM   C18F11284   6.252   6.375   8.744  0.0684  0.2709  0.2798
  109OSM   H18F11285   6.201   6.357   8.647 -1.7432 -1.3606  1.5072
  109OSM   H18G11286   6.329   6.295   8.752 -0.7222 -0.4237  1.0308
  109OSM   H18H11287   6.294   6.478   8.736  3.2657 -0.8947  1.1185
  110OSM      N11288   6.725   4.698  11.059  0.1513  0.0719  0.4303
  110OSM    C1511289   6.594   4.718  10.971  0.5826 -0.2532 -0.0946
  110OSM   H15A11290   6.513   4.752  11.033  1.4258  0.2297  0.7544
  110OSM   H15B11291   6.560   4.621  10.938  2.0345 -0.9136  0.3228
  110OSM   H15C11292   6.608   4.788  10.890 -0.7167  1.6638  1.3017
  110OSM    C1411293   6.760   4.830  11.121 -0.0009 -0.2964 -0.1110
  110OSM   H14A11294   6.788   4.896  11.040 -0.9054  0.4741  0.2022
  110OSM   H14B11295   6.843   4.824  11.190 -0.8208  1.4684  1.0579
  110OSM   H14C11296   6.677   4.875  11.172  1.5869  2.0845  0.4937
  110OSM    C1311297   6.685   4.599  11.159 -0.0690 -0.2627  0.0360
  110OSM   H13A11298   6.759   4.576  11.234 -0.3626  0.0535  0.4186
  110OSM   H13B11299   6.664   4.505  11.110 -2.7397 -0.7840  2.0671
  110OSM   H13C11300   6.587   4.620  11.199 -0.7488 -0.9549 -1.2132
  110OSM    C1211301   6.846   4.664  10.973  0.6438  0.4068  0.5598
  110OSM   H12A11302   6.938   4.679  11.027  1.3216  0.4100 -0.5763
  110OSM   H12B11303   6.845   4.742  10.899 -0.9219  0.6122  0.7904
  110OSM    C1111304   6.854   4.527  10.895 -0.1348  0.1835 -0.2405
  110OSM   H11A11305   6.950   4.535  10.840  1.3138 -1.9047  1.8822
  110OSM   H11B11306   6.771   4.522  10.822  0.8109  0.2049 -1.3277
  110OSM      P11307   6.955   4.338  11.039  0.1971  0.2745  0.0205
  110OSM    O1311308   6.998   4.399  11.164 -0.7362  0.6217  0.2256
  110OSM    O1411309   6.904   4.199  11.054 -0.1824 -0.1147  0.1552
  110OSM    O1111310   7.070   4.335  10.930  0.5478  0.2413  0.6738
  110OSM    O1211311   6.841   4.412  10.975 -0.0344  0.1162  0.1558
  110OSM    C1S11312   7.076   4.274  10.801  1.2328 -0.4530 -0.6086
  110OSM    H1S11313   6.973   4.265  10.760  1.4786  3.0430 -2.1618
  110OSM    H1T11314   7.131   4.178  10.803  1.3601 -0.3655  1.4535
  110OSM     NF11315   7.104   4.308  10.569 -0.6253 -0.4678 -0.6097
  110OSM    HNF11316   7.168   4.247  10.522  1.4755 -0.1431  1.7184
  110OSM    C2S11317   7.148   4.363  10.699 -0.1455 -0.3942 -0.6978
  110OSM    H2S11318   7.113   4.466  10.720 -0.2417 -0.5763  0.0455
  110OSM    C3S11319   7.301   4.359  10.735  0.4399  0.3171  0.6616
  110OSM    H3S11320   7.322   4.251  10.719 -1.6688  0.0630 -0.5228
  110OSM     O311321   7.336   4.377  10.873  0.8065 -0.6303  0.0204
  110OSM    HO311322   7.251   4.375  10.917  1.3214 -1.4745  0.9886
  110OSM    C4S11323   7.386   4.437  10.641 -0.1836  0.3736 -0.5424
  110OSM    H4S11324   7.434   4.384  10.557 -0.1415  1.9654 -1.5543
  110OSM    C5S11325   7.402   4.574  10.646 -0.1445 -0.0394 -0.1997
  110OSM    H5S11326   7.352   4.617  10.735 -2.1015 -1.2406 -0.6753
  110OSM    C6S11327   7.481   4.664  10.548  0.7592  0.2594 -0.7564
  110OSM    H6S11328   7.433   4.763  10.537  0.8940  0.2135 -1.7709
  110OSM    H6T11329   7.485   4.610  10.452  0.2033 -2.3572  0.6387
  110OSM    C7S11330   7.626   4.687  10.612  0.0467 -0.2959 -0.0146
  110OSM    H7S11331   7.673   4.586  10.617 -1.3377 -0.8816  1.3591
  110OSM    H7T11332   7.627   4.726  10.716  0.5256  0.9209 -0.4701
  110OSM    C8S11333   7.717   4.776  10.524 -0.1347  0.2729 -0.2774
  110OSM    H8S11334   7.725   4.738  10.420 -1.4732  1.4511 -0.8403
  110OSM    H8T11335   7.821   4.763  10.561 -0.9675 -2.2614  1.2909
  110OSM    C9S11336   7.681   4.925  10.527  0.5032 -0.7940  0.3027
  110OSM    H9S11337   7.691   4.948  10.635 -2.2219 -1.5856  0.7516
  110OSM    H9T11338   7.575   4.933  10.494  1.1214 -2.6416 -2.3493
  110OSM   C10S11339   7.778   5.007  10.436 -0.0092 -1.1108 -0.3617
  110OSM   H10S11340   7.883   4.983  10.461 -1.0036 -0.4559  5.2091
  110OSM   H10T11341   7.771   5.114  10.466  2.5323 -0.2319 -2.7475
  110OSM   C11S11342   7.760   5.004  10.284 -0.2031 -0.6348 -0.3000
  110OSM   H11S11343   7.765   4.900  10.248 -0.0535 -0.8848  0.4227
  110OSM   H11T11344   7.843   5.064  10.240 -0.6473  1.2844  1.3571
  110OSM   C12S11345   7.629   5.075  10.235  0.8858  0.5161 -0.3194
  110OSM   H12S11346   7.619   5.167  10.297  1.1559  0.4677 -0.2035
  110OSM   H12T11347   7.542   5.015  10.270  0.4225  0.6246 -1.2533
  110OSM   C13S11348   7.616   5.090  10.085 -0.1872 -0.4414 -0.3452
  110OSM   H13S11349   7.510   5.110  10.058 -0.9188 -0.0381  2.7042
  110OSM   H13T11350   7.626   4.988  10.041  0.1749 -1.1791  1.4268
  110OSM   C14S11351   7.690   5.195  10.019 -0.4710 -0.4047 -0.0581
  110OSM   H14S11352   7.796   5.178  10.049 -0.7671 -2.4245 -0.1055
  110OSM   H14T11353   7.651   5.292  10.055 -1.0857  0.1087 -2.0357
  110OSM   C15S11354   7.672   5.196   9.869  0.1007 -0.2339  0.1266
  110OSM   H15S11355   7.568   5.197   9.830 -0.5928 -3.2843  1.7067
  110OSM   H15T11356   7.722   5.104   9.830 -0.4053 -0.0591 -0.9418
  110OSM   C16S11357   7.729   5.325   9.805  0.0586 -0.1686  0.3546
  110OSM   H16S11358   7.671   5.410   9.847  0.5004 -0.2497  1.1595
  110OSM   H16T11359   7.697   5.324   9.699  0.1237  1.5960  0.2996
  110OSM   C17S11360   7.876   5.345   9.818 -0.1270 -0.1522 -0.6052
  110OSM   H17S11361   7.904   5.328   9.924 -0.3607  2.9031 -0.0214
  110OSM   H17T11362   7.902   5.444   9.774 -2.9967  1.1645  0.5427
  110OSM   C18S11363   7.957   5.255   9.730  0.4698  0.0948 -0.2751
  110OSM   H18S11364   8.060   5.234   9.767 -0.1800 -1.5207  0.7019
  110OSM   H18T11365   7.962   5.305   9.631 -0.3101  0.0016 -0.3584
  110OSM   H18U11366   7.909   5.154   9.727  0.0182  0.3373 -1.2523
  110OSM    C1F11367   6.987   4.344  10.518  0.1169  0.3578  1.4298
  110OSM     OF11368   6.917   4.428  10.577  0.4689 -0.0743  0.2349
  110OSM    C2F11369   6.935   4.274  10.396 -0.0802  0.4780  0.5216
  110OSM    H2F11370   6.851   4.207  10.422  1.3679 -0.5066  2.8249
  110OSM    H2G11371   7.018   4.214  10.351  0.4328 -0.2273  2.3608
  110OSM    C3F11372   6.873   4.360  10.284 -0.4535  0.1413 -0.4425
  110OSM    H3F11373   6.806   4.443  10.317  0.4440  0.6941  0.0138
  110OSM    H3G11374   6.810   4.295  10.220 -1.8141 -0.4999  1.4862
  110OSM    C4F11375   6.980   4.419  10.192 -0.1011 -0.3366 -0.7888
  110OSM    H4F11376   7.038   4.339  10.142  0.7670  0.6586 -1.3743
  110OSM    H4G11377   7.045   4.490  10.247  1.2703 -1.0909 -1.4253
  110OSM    C5F11378   6.927   4.503  10.072 -0.2005 -0.0246  0.4565
  110OSM    H5F11379   6.903   4.607  10.103  0.0980  0.3196 -0.4437
  110OSM    H5G11380   6.836   4.454  10.030 -1.0825 -0.7766  3.1319
  110OSM    C6F11381   7.034   4.517   9.961 -0.0822  0.1915 -0.0460
  110OSM    H6F11382   7.067   4.419   9.920  2.4679  1.3512 -0.8440
  110OSM    H6G11383   7.127   4.561  10.003  0.3880  0.0926 -0.9840
  110OSM    C7F11384   6.986   4.609   9.849  0.4435 -0.6719 -0.2754
  110OSM    H7F11385   7.065   4.611   9.771  0.2209 -0.2533 -0.4942
  110OSM    H7G11386   6.979   4.706   9.904  0.9084 -0.5094 -0.5027
  110OSM    C8F11387   6.843   4.586   9.785  0.1117 -0.7569  0.5327
  110OSM    H8F11388   6.806   4.678   9.733 -0.2767 -0.3841  1.4553
  110OSM    H8G11389   6.768   4.584   9.868  0.1199  3.3020  0.7781
  110OSM    C9F11390   6.828   4.466   9.692  0.7355  0.2175 -0.1317
  110OSM    H9F11391   6.791   4.374   9.740 -1.4597  1.8209  1.3688
  110OSM   C10F11392   6.853   4.457   9.563  0.0387 -0.8997 -0.1913
  110OSM   H10F11393   6.824   4.370   9.502  3.1521  0.1731 -3.3354
  110OSM   C11F11394   6.907   4.569   9.476 -0.5845 -1.4225  0.3313
  110OSM   H11F11395   7.006   4.605   9.512 -1.3985  0.5729  0.6181
  110OSM   H11G11396   6.848   4.663   9.482  0.2284 -0.9282  0.6735
  110OSM   C12F11397   6.906   4.518   9.330  0.0728 -0.6929  0.7289
  110OSM   H12F11398   6.801   4.500   9.301 -0.0719 -0.0994  0.8870
  110OSM   H12G11399   6.961   4.423   9.310  0.9520  0.2072 -1.2130
  110OSM   C13F11400   6.973   4.625   9.242  0.6143 -0.1182 -0.3448
  110OSM   H13F11401   7.065   4.668   9.287  1.0941 -1.2359 -0.2354
  110OSM   H13G11402   6.898   4.708   9.236 -2.3630 -2.6718  0.0603
  110OSM   C14F11403   7.011   4.578   9.094  0.1736  0.3061  0.8065
  110OSM   H14F11404   7.081   4.492   9.109  0.6578  0.8306  1.6018
  110OSM   H14G11405   7.071   4.656   9.042 -0.6549  0.7323  0.4888
  110OSM   C15F11406   6.896   4.545   8.999  0.0649  0.0900 -0.1117
  110OSM   H15F11407   6.807   4.609   9.013 -0.4579 -0.7554  0.4351
  110OSM   H15G11408   6.872   4.443   9.037 -1.5080 -0.1057 -1.5608
  110OSM   C16F11409   6.934   4.511   8.854 -0.0675 -0.2151  0.3561
  110OSM   H16F11410   6.883   4.423   8.810  1.1424 -0.0182 -1.5118
  110OSM   H16G11411   7.042   4.486   8.857  0.3623  1.3253 -1.2747
  110OSM   C17F11412   6.914   4.622   8.755  0.3637  0.2838  0.3613
  110OSM   H17F11413   6.979   4.706   8.787 -0.7754  0.7090  1.6064
  110OSM   H17G11414   6.808   4.655   8.769  0.1808 -0.1633  0.0160
  110OSM   C18F11415   6.940   4.600   8.605  0.2116  0.1439  0.3014
  110OSM   H18F11416   7.047   4.589   8.578 -0.5160 -0.2914 -2.6799
  110OSM   H18G11417   6.899   4.679   8.538  1.2871  0.1312 -0.3815
  110OSM   H18H11418   6.887   4.509   8.568 -2.0991  0.9419  1.5553
  111OSM      N11419   0.507   2.198  10.945  0.2448  0.8204 -0.5568
  111OSM    C1511420   0.557   2.307  11.045 -0.4601  0.3505  0.1876
  111OSM   H15A11421   0.525   2.278  11.144 -2.3000 -1.8607 -0.9932
  111OSM   H15B11422   0.511   2.401  11.020  1.2944  0.8770 -1.1827
  111OSM   H15C11423   0.665   2.315  11.040  0.0238 -4.0349  0.8913
  111OSM    C1411424   0.499   2.062  11.011 -0.0109 -0.3646  0.0251
  111OSM   H14A11425   0.444   2.075  11.103  2.8729 -2.2569  2.0931
  111OSM   H14B11426   0.599   2.025  11.028  1.6129  3.1765 -1.3429
  111OSM   H14C11427   0.462   1.976  10.957  0.3277  0.1266 -0.9942
  111OSM    C1311428   0.372   2.245  10.914  0.4828 -0.2528  0.1767
  111OSM   H13A11429   0.292   2.221  10.983  1.1728 -0.9304  0.7488
  111OSM   H13B11430   0.342   2.224  10.812  0.7191  1.5945 -0.2874
  111OSM   H13C11431   0.367   2.352  10.924  1.6798 -0.3161  1.7478
  111OSM    C1211432   0.599   2.198  10.829 -0.5199 -0.0971  0.3476
  111OSM   H12A11433   0.560   2.129  10.754 -0.6722  0.5600 -0.1832
  111OSM   H12B11434   0.695   2.168  10.866 -0.3106  3.4093  2.8127
  111OSM    C1111435   0.623   2.335  10.763  0.1069  0.3251  0.7394
  111OSM   H11A11436   0.535   2.403  10.763 -0.2968 -0.1959  0.3738
  111OSM   H11B11437   0.639   2.306  10.657 -0.9808  3.1423 -0.2464
  111OSM      P11438   0.873   2.388  10.760  0.0234  0.4628 -0.1244
  111OSM    O1311439   0.966   2.479  10.835 -0.2830  0.0948  0.5343
  111OSM    O1411440   0.898   2.243  10.768 -0.5947 -0.4465  0.8437
  111OSM    O1111441   0.854   2.437  10.613 -0.4677 -0.8372  0.3356
  111OSM    O1211442   0.731   2.407  10.819  0.0251  0.7596  0.2653
  111OSM    C1S11443   0.782   2.549  10.569 -0.3737 -0.3243 -0.7230
  111OSM    H1S11444   0.801   2.632  10.640 -1.0333 -0.7840 -0.0083
  111OSM    H1T11445   0.675   2.521  10.563 -0.6990  0.7467 -0.0332
  111OSM     NF11446   0.789   2.735  10.402 -0.3642  0.6440  0.2043
  111OSM    HNF11447   0.700   2.751  10.359 -0.2811 -0.9853 -0.6403
  111OSM    C2S11448   0.819   2.587  10.424 -0.0334  0.3600  0.1825
  111OSM    H2S11449   0.927   2.565  10.413 -0.3478 -1.5450  0.6366
  111OSM    C3S11450   0.740   2.495  10.329 -0.5376 -0.2289  0.1884
  111OSM    H3S11451   0.632   2.521  10.330 -0.3216  0.6609  0.5924
  111OSM     O311452   0.769   2.357  10.366  0.3096 -0.6031 -0.2854
  111OSM    HO311453   0.815   2.371  10.449  0.2960 -0.1531 -0.3478
  111OSM    C4S11454   0.803   2.520  10.198 -0.2418  0.5518 -0.4563
  111OSM    H4S11455   0.900   2.471  10.183 -1.0843 -1.1598 -0.4910
  111OSM    C5S11456   0.735   2.579  10.101 -0.0932 -0.5542  0.0894
  111OSM    H5S11457   0.629   2.603  10.115 -0.3661 -0.7994 -1.5293
  111OSM    C6S11458   0.791   2.599   9.959  0.9017  0.1604  0.0496
  111OSM    H6S11459   0.719   2.543   9.894  0.0077  0.3585  0.8578
  111OSM    H6T11460   0.889   2.548   9.952  0.5610 -0.5063  0.0416
  111OSM    C7S11461   0.813   2.742   9.917 -0.2839 -0.4197 -0.0374
  111OSM    H7S11462   0.858   2.807   9.995  0.6859  1.6638 -2.2577
  111OSM    H7T11463   0.713   2.786   9.896 -0.2004 -0.1064  0.2098
  111OSM    C8S11464   0.920   2.755   9.805 -0.3939 -0.1369 -1.0172
  111OSM    H8S11465   1.021   2.725   9.838 -0.6361 -0.8461 -0.9221
  111OSM    H8T11466   0.919   2.864   9.782  0.4753 -0.1502 -1.1235
  111OSM    C9S11467   0.878   2.679   9.674  0.0971  0.0273 -0.0980
  111OSM    H9S11468   0.786   2.729   9.637  0.8621  0.5561 -1.3337
  111OSM    H9T11469   0.851   2.577   9.709  0.8395 -0.1369  0.0094
  111OSM   C10S11470   0.975   2.694   9.548 -0.1147  0.2354 -0.5910
  111OSM   H10S11471   1.074   2.648   9.567  0.0258  0.3739 -0.9777
  111OSM   H10T11472   0.986   2.802   9.526  1.0857  0.3061  0.3768
  111OSM   C11S11473   0.920   2.629   9.420  0.4757 -0.0776 -0.0717
  111OSM   H11S11474   0.814   2.657   9.406  1.2427  3.0990  0.0303
  111OSM   H11T11475   0.921   2.519   9.437  1.0978 -0.2390 -1.0829
  111OSM   C12S11476   0.999   2.658   9.292 -0.0378  0.1996  0.6888
  111OSM   H12S11477   1.094   2.603   9.307 -1.1725 -2.1597 -0.4170
  111OSM   H12T11478   1.015   2.768   9.285  2.6920 -0.0862  1.8571
  111OSM   C13S11479   0.938   2.588   9.170  0.8164 -0.3780  0.8200
  111OSM   H13S11480   0.878   2.499   9.197  1.0936 -1.3689 -1.7597
  111OSM   H13T11481   1.024   2.555   9.108  0.7233  1.8393 -0.5420
  111OSM   C14S11482   0.838   2.682   9.092 -0.0706  0.3955  0.1826
  111OSM   H14S11483   0.896   2.769   9.055  1.7698 -1.8009 -2.3284
  111OSM   H14T11484   0.760   2.706   9.168 -0.1233  2.2586 -0.4282
  111OSM   C15S11485   0.774   2.600   8.971  0.3464  0.6029 -0.6291
  111OSM   H15S11486   0.712   2.518   9.013  2.7069 -0.3405  1.1842
  111OSM   H15T11487   0.846   2.558   8.897 -3.4938  0.2418 -4.3509
  111OSM   C16S11488   0.676   2.689   8.894 -0.1398  0.0046  0.0313
  111OSM   H16S11489   0.740   2.776   8.866 -2.6814  1.0634 -2.7262
  111OSM   H16T11490   0.589   2.736   8.946  0.5974  1.8719 -0.3730
  111OSM   C17S11491   0.632   2.631   8.766 -0.1522  0.1751 -0.2652
  111OSM   H17S11492   0.579   2.539   8.798 -2.2875  1.6541  0.5754
  111OSM   H17T11493   0.710   2.607   8.691 -0.2723  1.8086 -0.9238
  111OSM   C18S11494   0.534   2.717   8.691 -0.4953  0.3794 -0.8868
  111OSM   H18S11495   0.488   2.672   8.601 -0.7352  0.2424 -0.6941
  111OSM   H18T11496   0.581   2.812   8.656  1.0552 -0.5753 -1.4076
  111OSM   H18U11497   0.442   2.739   8.749 -0.1603  1.7449 -0.8485
  111OSM    C1F11498   0.856   2.840  10.453 -0.1213  0.4674  0.5659
  111OSM     OF11499   0.959   2.832  10.519 -0.0343  0.6114 -0.2768
  111OSM    C2F11500   0.787   2.978  10.445  0.8212  1.5451  0.3042
  111OSM    H2F11501   0.784   3.017  10.550  0.3327 -0.2004  0.9572
  111OSM    H2G11502   0.685   2.951  10.409  0.7651  1.5393  0.4610
  111OSM    C3F11503   0.846   3.078  10.348 -0.1126 -0.2539 -0.1086
  111OSM    H3F11504   0.943   3.102  10.395  0.8231 -0.7100 -1.7602
  111OSM    H3G11505   0.784   3.170  10.347  2.1487  1.3092 -0.3178
  111OSM    C4F11506   0.863   3.027  10.200  0.8897  0.3142 -0.0618
  111OSM    H4F11507   0.760   3.005  10.163  0.1662  0.0740  2.0190
  111OSM    H4G11508   0.930   2.940  10.184  1.2569  0.1493  2.2606
  111OSM    C5F11509   0.918   3.139  10.111 -0.6319 -0.1250 -0.2925
  111OSM    H5F11510   1.011   3.180  10.155 -1.5288  0.8623  0.7261
  111OSM    H5G11511   0.848   3.224  10.105  1.3679  1.6233  0.6605
  111OSM    C6F11512   0.963   3.087   9.974 -0.2322  0.0725  0.2706
  111OSM    H6F11513   0.873   3.034   9.933  0.7423 -2.4900  1.3231
  111OSM    H6G11514   1.044   3.013   9.992  1.6084  1.6245 -1.5400
  111OSM    C7F11515   1.015   3.197   9.877  0.2827  0.1728 -0.2764
  111OSM    H7F11516   1.125   3.183   9.869  0.4370  1.2478 -0.0298
  111OSM    H7G11517   0.983   3.294   9.921  0.7165  1.5454 -2.9200
  111OSM    C8F11518   0.968   3.168   9.735 -0.0639  0.4712  0.8685
  111OSM    H8F11519   0.858   3.168   9.723  0.1164  0.5472 -0.9701
  111OSM    H8G11520   1.010   3.067   9.714  2.1781  1.8138 -1.4515
  111OSM    C9F11521   1.036   3.274   9.650 -0.0934 -0.2051  0.0777
  111OSM    H9F11522   1.034   3.373   9.698 -1.3059 -1.1112  1.9653
  111OSM   C10F11523   1.092   3.257   9.529 -0.2383  0.0531  0.1759
  111OSM   H10F11524   1.136   3.347   9.483 -0.7429  0.6846  0.9055
  111OSM   C11F11525   1.100   3.123   9.458 -0.3468 -0.5237  0.2739
  111OSM   H11F11526   1.059   3.035   9.513 -2.1206 -1.4864 -2.4864
  111OSM   H11G11527   1.209   3.108   9.442 -0.2909  2.7687 -3.2433
  111OSM   C12F11528   1.022   3.128   9.330 -0.0292  0.4371  0.1186
  111OSM   H12F11529   0.920   3.167   9.351 -0.2628  0.2713 -0.6647
  111OSM   H12G11530   1.008   3.024   9.292  2.2378  0.5626 -1.1380
  111OSM   C13F11531   1.100   3.200   9.221 -0.8609 -0.0769 -0.2418
  111OSM   H13F11532   1.201   3.155   9.209  0.3088  2.0865  1.3321
  111OSM   H13G11533   1.114   3.305   9.253 -1.4747  0.3197 -1.2408
  111OSM   C14F11534   1.043   3.219   9.078 -0.0080 -0.3335 -0.0772
  111OSM   H14F11535   0.954   3.285   9.083 -0.4043 -0.9463  1.3869
  111OSM   H14G11536   1.011   3.126   9.026  0.9712 -1.6993  1.6799
  111OSM   C15F11537   1.143   3.280   8.980 -0.8166  0.3109 -0.2148
  111OSM   H15F11538   1.233   3.215   8.976  0.3594  1.8278  0.7316
  111OSM   H15G11539   1.176   3.367   9.040  0.6697 -0.4251  0.0554
  111OSM   C16F11540   1.084   3.319   8.849 -0.5867  0.1307 -0.7081
  111OSM   H16F11541   0.996   3.382   8.873  0.4743  0.9268  1.1896
  111OSM   H16G11542   1.056   3.234   8.784 -1.0053 -0.8550  0.7486
  111OSM   C17F11543   1.169   3.414   8.765 -0.9853  0.2131  0.0413
  111OSM   H17F11544   1.256   3.371   8.711 -0.0004  1.0839  0.9013
  111OSM   H17G11545   1.215   3.485   8.838  1.0062 -1.3656  0.3779
  111OSM   C18F11546   1.078   3.500   8.672 -0.2067 -0.0114 -0.4773
  111OSM   H18F11547   0.994   3.439   8.634  1.2560 -2.2242 -0.2825
  111OSM   H18G11548   1.132   3.534   8.581 -0.3973 -0.0875 -0.6180
  111OSM   H18H11549   1.052   3.588   8.735  3.6975  1.4349 -0.7251
  112OSM      N11550   6.137   0.890  11.125  0.3147  0.7376 -0.0499
  112OSM    C1511551   6.139   0.873  11.274 -0.3500 -0.1749 -0.6866
  112OSM   H15A11552   6.064   0.814  11.325  1.1936 -1.2224  0.3986
  112OSM   H15B11553   6.143   0.968  11.325 -0.6500 -1.1749  1.2378
  112OSM   H15C11554   6.230   0.824  11.306 -0.0166  1.6033  1.1806
  112OSM    C1411555   6.018   0.966  11.067  0.6559  0.3138 -0.2215
  112OSM   H14A11556   6.004   1.049  11.134 -0.3696 -2.0965  2.6785
  112OSM   H14B11557   5.932   0.902  11.077  0.4508  0.6898  0.4493
  112OSM   H14C11558   6.037   0.974  10.961  0.8495  0.2639 -0.1921
  112OSM    C1311559   6.253   0.979  11.085 -0.2216 -0.0145  0.5582
  112OSM   H13A11560   6.340   0.917  11.103  1.2774  2.3801  1.9164
  112OSM   H13B11561   6.263   1.065  11.150  2.0214 -0.4115  0.7707
  112OSM   H13C11562   6.259   1.013  10.983 -0.3830  0.0804  0.5794
  112OSM    C1211563   6.145   0.752  11.063 -0.3912  1.1881 -0.8315
  112OSM   H12A11564   6.053   0.697  11.075  0.0530  0.3038 -1.4032
  112OSM   H12B11565   6.215   0.697  11.124 -1.1341  1.1134 -0.0326
  112OSM    C1111566   6.193   0.732  10.913 -0.0841  0.4634 -0.2278
  112OSM   H11A11567   6.235   0.630  10.898 -0.4250 -0.1859  2.9221
  112OSM   H11B11568   6.287   0.789  10.896  1.5811 -1.0917  3.1947
  112OSM      P11569   6.109   0.828  10.676  0.3912  0.3785 -0.2133
  112OSM    O1311570   5.976   0.818  10.607 -0.8587 -0.2933  0.2260
  112OSM    O1411571   6.176   0.964  10.690 -0.2431 -0.2878  0.3080
  112OSM    O1111572   6.207   0.737  10.598  0.4497  0.1574  0.3912
  112OSM    O1211573   6.091   0.758  10.815 -0.3966 -0.4132 -0.4753
  112OSM    C1S11574   6.164   0.619  10.533 -0.5130  1.2459 -0.2889
  112OSM    H1S11575   6.098   0.646  10.448  0.1834 -1.4810 -1.7603
  112OSM    H1T11576   6.112   0.556  10.609  1.9036 -0.8852 -0.3369
  112OSM     NF11577   6.235   0.423  10.406  0.2746 -0.4217  0.0209
  112OSM    HNF11578   6.215   0.337  10.452 -1.5735  0.7285  1.4101
  112OSM    C2S11579   6.281   0.535  10.487  0.2837 -0.5272  0.1017
  112OSM    H2S11580   6.342   0.596  10.418 -0.5931 -0.3430 -0.5091
  112OSM    C3S11581   6.377   0.500  10.606  0.0238 -0.5613  0.7090
  112OSM    H3S11582   6.326   0.431  10.676 -1.3287 -2.6136 -2.1867
  112OSM     O311583   6.427   0.609  10.682  0.4981 -0.0238 -0.1287
  112OSM    HO311584   6.372   0.685  10.661  0.8308  0.6102  1.2203
  112OSM    C4S11585   6.486   0.402  10.564  0.0478 -0.3035  0.8372
  112OSM    H4S11586   6.447   0.301  10.586  1.3046 -0.6695  1.4128
  112OSM    C5S11587   6.604   0.431  10.505 -0.1269  0.2160  0.0927
  112OSM    H5S11588   6.624   0.531  10.463  2.8940 -0.5615 -0.3983
  112OSM    C6S11589   6.694   0.314  10.458  0.3292 -0.6012 -0.1015
  112OSM    H6S11590   6.660   0.215  10.496 -1.6516  0.4302  0.8530
  112OSM    H6T11591   6.800   0.320  10.493  0.2419 -3.0732  0.6873
  112OSM    C7S11592   6.704   0.308  10.298  0.6052  0.0344 -0.1908
  112OSM    H7S11593   6.769   0.219  10.284  2.6301  1.0863  2.0227
  112OSM    H7T11594   6.752   0.397  10.252  2.6273 -0.3738  1.0281
  112OSM    C8S11595   6.564   0.291  10.227 -0.0692  0.9415 -0.5239
  112OSM    H8S11596   6.516   0.390  10.243 -0.1627  0.8708 -0.3656
  112OSM    H8T11597   6.506   0.206  10.267  0.2012  0.1894 -1.7173
  112OSM    C9S11598   6.582   0.272  10.076  0.8137 -0.3347 -0.4244
  112OSM    H9S11599   6.652   0.189  10.055  1.1129 -0.5469  1.2929
  112OSM    H9T11600   6.623   0.361  10.024 -0.6419  1.1857  0.9486
  112OSM   C10S11601   6.450   0.261   9.998  0.2565  0.1479  0.4170
  112OSM   H10S11602   6.386   0.351  10.016 -1.4392 -1.3405  2.0841
  112OSM   H10T11603   6.392   0.173  10.033  0.6293  0.5972  2.2123
  112OSM   C11S11604   6.467   0.246   9.847 -0.6682 -0.1684  0.3963
  112OSM   H11S11605   6.507   0.146   9.821 -0.6602  0.5738 -2.6516
  112OSM   H11T11606   6.524   0.326   9.796 -1.0751 -1.7530 -2.6428
  112OSM   C12S11607   6.331   0.239   9.773  0.0276  0.0762  0.4717
  112OSM   H12S11608   6.257   0.308   9.820 -0.7805 -0.4436 -0.0402
  112OSM   H12T11609   6.283   0.140   9.789  1.2189 -0.5178  0.3667
  112OSM   C13S11610   6.336   0.278   9.623 -0.2851  0.2913  0.7606
  112OSM   H13S11611   6.411   0.210   9.580 -0.9851  0.3905 -0.6388
  112OSM   H13T11612   6.375   0.380   9.600 -1.4089  0.9054  1.4855
  112OSM   C14S11613   6.205   0.254   9.549 -0.2427 -0.6616 -0.4758
  112OSM   H14S11614   6.131   0.323   9.595 -0.4398 -1.7874  0.9259
  112OSM   H14T11615   6.157   0.157   9.575  0.7945 -0.6342  1.5776
  112OSM   C15S11616   6.218   0.277   9.395  0.6165  0.1029  0.0562
  112OSM   H15S11617   6.291   0.200   9.364  3.7237  2.2816  1.6339
  112OSM   H15T11618   6.267   0.375   9.373 -0.7051  0.6726 -0.4589
  112OSM   C16S11619   6.087   0.278   9.320 -1.2153 -0.3686  0.1085
  112OSM   H16S11620   6.011   0.345   9.367 -1.5388  0.6960 -1.8258
  112OSM   H16T11621   6.046   0.176   9.335 -0.4465 -0.8664 -1.0983
  112OSM   C17S11622   6.102   0.300   9.170 -0.1335  0.0225  0.4415
  112OSM   H17S11623   6.148   0.399   9.148 -0.8895  1.0257  3.1358
  112OSM   H17T11624   5.998   0.314   9.134 -0.5001  0.3612  1.5882
  112OSM   C18S11625   6.163   0.176   9.104  0.4654  0.3720  0.0950
  112OSM   H18S11626   6.091   0.094   9.127  1.7210 -0.4625  1.0945
  112OSM   H18T11627   6.261   0.138   9.137 -0.0690 -0.0372  1.2464
  112OSM   H18U11628   6.169   0.180   8.993 -0.4506  0.1941  0.0321
  112OSM    C1F11629   6.170   0.445  10.293 -0.2710  0.6370  0.6058
  112OSM     OF11630   6.183   0.551  10.240 -0.3108  0.2099  0.0427
  112OSM    C2F11631   6.084   0.335  10.243 -0.8488  0.4385  0.1954
  112OSM    H2F11632   5.984   0.341  10.291 -2.0918 -0.5593 -2.2016
  112OSM    H2G11633   6.145   0.244  10.256 -2.0665 -0.2410  1.3092
  112OSM    C3F11634   6.064   0.353  10.089  0.0161 -0.5524 -1.3953
  112OSM    H3F11635   6.151   0.394  10.033  0.1771 -1.0752 -1.5296
  112OSM    H3G11636   5.984   0.430  10.088 -1.5852 -2.1303  0.3589
  112OSM    C4F11637   6.007   0.239  10.010  0.2492 -0.5202 -0.3803
  112OSM    H4F11638   5.925   0.185  10.061  2.7627 -1.0775  3.2744
  112OSM    H4G11639   6.089   0.164  10.000 -0.3604 -1.4660  1.4615
  112OSM    C5F11640   5.961   0.265   9.865  0.3601  0.5262  0.0807
  112OSM    H5F11641   6.043   0.313   9.807  3.5979 -2.5567  1.8811
  112OSM    H5G11642   5.878   0.339   9.864  0.0423  0.1572 -2.3100
  112OSM    C6F11643   5.905   0.146   9.787  0.0358 -0.1312  1.0723
  112OSM    H6F11644   5.816   0.110   9.843 -0.9264 -0.1866 -0.4616
  112OSM    H6G11645   5.979   0.065   9.769 -1.4088 -1.1984 -0.1737
  112OSM    C7F11646   5.839   0.177   9.651 -1.4404  0.8163 -0.0957
  112OSM    H7F11647   5.919   0.212   9.582 -1.3171  5.3526  2.1628
  112OSM    H7G11648   5.776   0.268   9.666 -3.2468 -0.1723 -1.4963
  112OSM    C8F11649   5.764   0.062   9.586 -0.6446  0.7339  0.0036
  112OSM    H8F11650   5.686   0.033   9.660  0.0939 -1.4791 -0.0569
  112OSM    H8G11651   5.829  -0.025   9.563 -0.8048  1.2504 -2.5078
  112OSM    C9F11652   5.685   0.110   9.470 -0.4185 -0.3660 -0.6266
  112OSM    H9F11653   5.583   0.147   9.492  0.4047  0.4391  2.0919
  112OSM   C10F11654   5.718   0.088   9.339 -0.6720 -0.2196 -0.7953
  112OSM   H10F11655   5.656   0.130   9.258 -0.8856  0.0598 -0.4856
  112OSM   C11F11656   5.844   0.022   9.294  0.1315 -0.6903  0.8035
  112OSM   H11F11657   5.919   0.000   9.373  0.4290 -2.5785  0.0096
  112OSM   H11G11658   5.888   0.090   9.218  0.7343 -2.2051 -0.2232
  112OSM   C12F11659   5.818  -0.104   9.225 -0.7753 -0.2288  0.0350
  112OSM   H12F11660   5.760  -0.172   9.291  0.0669 -2.6687 -1.6571
  112OSM   H12G11661   5.915  -0.151   9.195 -0.2537  0.9151 -0.0978
  112OSM   C13F11662   5.743  -0.095   9.091 -0.1840 -1.1048  0.3805
  112OSM   H13F11663   5.642  -0.057   9.114  0.4933  1.5552 -0.8442
  112OSM   H13G11664   5.731  -0.195   9.046  1.3724 -1.3250  0.4174
  112OSM   C14F11665   5.825  -0.011   8.984 -0.0542 -0.0762 -0.0461
  112OSM   H14F11666   5.926  -0.056   8.994 -0.0288 -0.3910 -1.6968
  112OSM   H14G11667   5.827   0.098   9.009  1.2923 -0.2005  0.4308
  112OSM   C15F11668   5.784  -0.015   8.842 -0.4132 -0.2787 -0.0662
  112OSM   H15F11669   5.797  -0.122   8.815 -0.1270  0.0056 -1.1000
  112OSM   H15G11670   5.843   0.048   8.771 -1.7286  2.5094  1.2361
  112OSM   C16F11671   5.634   0.007   8.821 -0.5123 -0.3296 -0.3362
  112OSM   H16F11672   5.574  -0.053   8.892 -1.3352  1.4958  0.5670
  112OSM   H16G11673   5.596  -0.020   8.720  0.8238 -2.3892 -0.3121
  112OSM   C17F11674   5.589   0.155   8.836 -0.3501  0.0398 -0.0254
  112OSM   H17F11675   5.617   0.196   8.935  2.6092  0.5703 -1.0419
  112OSM   H17G11676   5.478   0.150   8.836 -0.3461 -0.2622  1.5418
  112OSM   C18F11677   5.642   0.249   8.727  0.3998  0.2081 -0.1557
  112OSM   H18F11678   5.618   0.200   8.630  2.3695 -1.1098 -0.0041
  112OSM   H18G11679   5.749   0.276   8.731  0.0060  2.4960 -3.5380
  112OSM   H18H11680   5.587   0.345   8.728 -0.0238  0.0161 -2.1634
  113OSM      N11681   0.775   5.904  11.088  1.1222 -0.1453  0.0026
  113OSM    C1511682   0.663   5.904  10.990  0.3597  0.3665 -0.4094
  113OSM   H15A11683   0.627   6.001  10.958 -1.6166 -0.0078  0.5539
  113OSM   H15B11684   0.580   5.841  11.019  0.7039 -0.9452 -2.1880
  113OSM   H15C11685   0.713   5.866  10.902 -0.4221  0.2201 -0.7954
  113OSM    C1411686   0.724   5.946  11.223  1.0003 -0.3301 -0.8396
  113OSM   H14A11687   0.794   5.959  11.304  0.6636  1.3246 -0.7947
  113OSM   H14B11688   0.625   5.905  11.240 -0.1889  2.8772  0.5575
  113OSM   H14C11689   0.688   6.047  11.208  0.7444 -0.3671 -0.4884
  113OSM    C1311690   0.822   5.765  11.105  0.1196  0.2853  0.5318
  113OSM   H13A11691   0.866   5.722  11.016 -1.0756 -1.9659  0.9925
  113OSM   H13B11692   0.735   5.702  11.119  3.1600 -3.9077  1.5675
  113OSM   H13C11693   0.870   5.748  11.200  0.6143  1.6159  0.5260
  113OSM    C1211694   0.893   5.986  11.044 -0.6870 -0.4790 -0.2777
  113OSM   H12A11695   0.913   5.963  10.940 -2.2532  0.2840 -0.7701
  113OSM   H12B11696   0.980   5.952  11.096 -1.4334 -1.3999  0.3884
  113OSM    C1111697   0.892   6.141  11.036  0.2396  0.3513  0.0117
  113OSM   H11A11698   0.998   6.174  11.028  0.0964  1.3691  2.1004
  113OSM   H11B11699   0.854   6.189  11.129  3.2028  0.8334  1.0391
  113OSM      P11700   0.697   6.278  10.923 -0.2599  0.1424  0.1271
  113OSM    O1311701   0.586   6.199  10.864 -0.5727 -0.1257  0.6415
  113OSM    O1411702   0.680   6.343  11.057 -0.1153 -1.0351 -0.2026
  113OSM    O1111703   0.736   6.393  10.816  0.1928 -0.1312 -0.3204
  113OSM    O1211704   0.829   6.183  10.916  0.0442  0.6184 -0.5878
  113OSM    C1S11705   0.779   6.351  10.686  0.2241 -0.2303  0.0441
  113OSM    H1S11706   0.793   6.241  10.677 -2.5404 -0.6815  0.6029
  113OSM    H1T11707   0.877   6.390  10.651  0.5300 -0.2138  0.9068
  113OSM     NF11708   0.741   6.345  10.449  0.3250 -0.4267  0.1388
  113OSM    HNF11709   0.770   6.411  10.381  2.0414 -1.5798 -0.2941
  113OSM    C2S11710   0.679   6.392  10.572  1.0413  0.1176  0.2681
  113OSM    H2S11711   0.580   6.342  10.584 -1.0008  4.4985  3.0850
  113OSM    C3S11712   0.653   6.545  10.574  0.5453 -1.3058 -0.3011
  113OSM    H3S11713   0.743   6.597  10.533 -0.8539 -0.0874 -1.8780
  113OSM     O311714   0.635   6.602  10.702 -0.4195 -0.9802  0.4315
  113OSM    HO311715   0.671   6.535  10.760  0.0907 -0.6306  0.5234
  113OSM    C4S11716   0.532   6.582  10.486 -0.5850 -0.2459  0.1225
  113OSM    H4S11717   0.430   6.550  10.511 -0.2437  0.6348  2.7891
  113OSM    C5S11718   0.553   6.651  10.372  0.4049  0.1370 -0.2719
  113OSM    H5S11719   0.652   6.690  10.343 -0.8038  2.2872 -1.6365
  113OSM    C6S11720   0.434   6.678  10.281  1.1095 -0.4518 -0.8511
  113OSM    H6S11721   0.449   6.781  10.242 -3.3263  0.9446  0.7921
  113OSM    H6T11722   0.336   6.682  10.333  2.8064  2.7141  2.3121
  113OSM    C7S11723   0.412   6.575  10.167  0.0671  0.0552  0.1375
  113OSM    H7S11724   0.305   6.581  10.139  0.1897 -0.9165 -0.5457
  113OSM    H7T11725   0.418   6.473  10.211 -3.7252 -1.2322 -2.1235
  113OSM    C8S11726   0.497   6.595  10.042  0.0421 -0.0326  0.2057
  113OSM    H8S11727   0.599   6.555  10.056  0.8596  1.0105 -2.3715
  113OSM    H8T11728   0.505   6.704  10.023 -0.5593 -0.2754 -1.5330
  113OSM    C9S11729   0.427   6.545   9.912 -0.2859  0.5530 -0.6972
  113OSM    H9S11730   0.333   6.603   9.899 -0.1023  1.0472  0.1026
  113OSM    H9T11731   0.396   6.441   9.934 -0.5992  0.6111 -0.8617
  113OSM   C10S11732   0.515   6.556   9.779  0.1416 -0.0915 -0.4095
  113OSM   H10S11733   0.613   6.504   9.783 -0.9467 -2.3045 -1.8140
  113OSM   H10T11734   0.522   6.662   9.748  0.4088 -0.5243 -1.8286
  113OSM   C11S11735   0.442   6.490   9.657  0.1032  0.1484 -0.0510
  113OSM   H11S11736   0.340   6.531   9.644  0.4637  0.8040 -0.8897
  113OSM   H11T11737   0.428   6.381   9.675  2.0656 -0.4462 -1.8340
  113OSM   C12S11738   0.524   6.512   9.530  0.3321  0.9796  0.1177
  113OSM   H12S11739   0.619   6.461   9.557 -0.7082 -0.2497  1.5703
  113OSM   H12T11740   0.547   6.620   9.529 -0.7668  1.2391  1.0028
  113OSM   C13S11741   0.462   6.457   9.408  0.1391 -0.4197  0.0588
  113OSM   H13S11742   0.460   6.348   9.430  1.2122 -0.2399  1.0556
  113OSM   H13T11743   0.518   6.479   9.314  1.5232  1.9882  1.4043
  113OSM   C14S11744   0.314   6.489   9.387  0.1018  0.2599 -0.5890
  113OSM   H14S11745   0.251   6.478   9.478 -1.4384 -0.3329 -1.6874
  113OSM   H14T11746   0.272   6.410   9.320  1.6046 -0.8826 -0.2114
  113OSM   C15S11747   0.300   6.621   9.311 -0.1957 -1.1730 -1.2585
  113OSM   H15S11748   0.372   6.627   9.226  1.6253  2.4112  0.4528
  113OSM   H15T11749   0.334   6.706   9.373  0.0779 -0.8695 -1.8238
  113OSM   C16S11750   0.157   6.643   9.266  0.0674 -0.2156  0.2633
  113OSM   H16S11751   0.155   6.750   9.237  0.3471 -0.3691 -0.3289
  113OSM   H16T11752   0.083   6.658   9.348 -0.6240 -1.7966 -0.0556
  113OSM   C17S11753   0.091   6.553   9.153 -0.4215 -0.4002 -0.3750
  113OSM   H17S11754  -0.013   6.591   9.153 -0.2693  0.0232 -1.2308
  113OSM   H17T11755   0.106   6.446   9.177  0.3445 -0.3178 -0.4623
  113OSM   C18S11756   0.155   6.558   9.010  0.0554  0.1333 -0.4272
  113OSM   H18S11757   0.263   6.579   9.016  0.0505  0.3940 -1.1731
  113OSM   H18T11758   0.121   6.649   8.956 -1.1133 -1.4042 -2.3952
  113OSM   H18U11759   0.124   6.467   8.954 -1.6760  1.2624 -1.3668
  113OSM    C1F11760   0.733   6.222  10.408 -0.7334  0.1559  0.1043
  113OSM     OF11761   0.664   6.138  10.470 -0.0401 -0.2404 -0.3156
  113OSM    C2F11762   0.798   6.191  10.279  0.3281  0.6752  0.0246
  113OSM    H2F11763   0.837   6.088  10.292 -2.3745 -0.4222 -0.1214
  113OSM    H2G11764   0.890   6.248  10.256  1.0849 -1.8270 -3.7182
  113OSM    C3F11765   0.706   6.199  10.160 -0.2031 -1.1099 -0.2185
  113OSM    H3F11766   0.688   6.307  10.141  0.9276 -0.7158  0.8569
  113OSM    H3G11767   0.614   6.139  10.174 -1.4647  1.0524  1.0044
  113OSM    C4F11768   0.779   6.141  10.035 -0.4448  0.4171 -0.1185
  113OSM    H4F11769   0.815   6.038  10.058  0.5472  0.9788  0.8976
  113OSM    H4G11770   0.867   6.206  10.015 -1.2410  1.2088 -1.0922
  113OSM    C5F11771   0.707   6.146   9.906 -0.0614  0.7506  0.5652
  113OSM    H5F11772   0.651   6.240   9.888 -0.6375  0.0850 -1.1918
  113OSM    H5G11773   0.640   6.062   9.879 -0.0596  0.3789  1.6859
  113OSM    C6F11774   0.801   6.173   9.792 -0.3398 -0.2337  0.2422
  113OSM    H6F11775   0.890   6.107   9.796  1.5786  2.2569 -0.0303
  113OSM    H6G11776   0.848   6.273   9.807 -0.7328 -0.3314  2.3417
  113OSM    C7F11777   0.735   6.175   9.650 -0.5137 -0.0046 -0.1243
  113OSM    H7F11778   0.634   6.221   9.660  0.4730  2.0457  0.6854
  113OSM    H7G11779   0.708   6.072   9.618 -2.6058  0.0458  1.3865
  113OSM    C8F11780   0.817   6.246   9.552 -0.2414  0.8787  0.5950
  113OSM    H8F11781   0.909   6.184   9.547 -0.0721  0.9614  2.3634
  113OSM    H8G11782   0.852   6.349   9.573  1.7056  0.8596 -2.2552
  113OSM    C9F11783   0.766   6.250   9.408  0.3894 -0.3341 -0.3926
  113OSM    H9F11784   0.735   6.349   9.371  0.4793 -0.1818 -0.0600
  113OSM   C10F11785   0.750   6.146   9.329 -0.7493 -0.0670 -0.5924
  113OSM   H10F11786   0.713   6.171   9.228  0.2211  1.9649 -0.4835
  113OSM   C11F11787   0.773   5.999   9.369  0.6120  0.1841  0.1482
  113OSM   H11F11788   0.693   5.977   9.443  0.8388  0.3669  0.4488
  113OSM   H11G11789   0.876   5.987   9.409 -0.2015  1.5029  2.7621
  113OSM   C12F11790   0.759   5.894   9.255 -0.8002 -0.3861 -0.1622
  113OSM   H12F11791   0.662   5.902   9.202 -0.3721 -0.6734 -0.9995
  113OSM   H12G11792   0.768   5.795   9.304  2.7567  0.9545  2.1239
  113OSM   C13F11793   0.873   5.901   9.154  0.2040 -0.2972 -0.6023
  113OSM   H13F11794   0.956   5.868   9.221  0.0333 -0.0787 -0.2779
  113OSM   H13G11795   0.878   6.006   9.118 -0.8292  0.1498  0.5093
  113OSM   C14F11796   0.857   5.805   9.045 -0.6545 -0.5440  0.0763
  113OSM   H14F11797   0.768   5.841   8.988  0.8322 -0.5255 -2.2760
  113OSM   H14G11798   0.834   5.710   9.098 -0.6517  0.8280  2.6207
  113OSM   C15F11799   0.975   5.775   8.943 -0.5125  0.2416  0.3327
  113OSM   H15F11800   0.942   5.694   8.875 -0.5517  0.1194  0.4954
  113OSM   H15G11801   1.066   5.742   8.997 -0.9906  1.4987  1.9375
  113OSM   C16F11802   1.003   5.902   8.861 -0.7049 -0.1005  0.5264
  113OSM   H16F11803   1.012   5.979   8.940 -0.4249  0.0306  0.3659
  113OSM   H16G11804   0.924   5.949   8.799 -0.0864  0.8247  0.4327
  113OSM   C17F11805   1.120   5.881   8.775  1.4297 -0.0029 -0.6765
  113OSM   H17F11806   1.097   5.813   8.690 -2.9271 -1.4377  1.5130
  113OSM   H17G11807   1.197   5.831   8.836  2.4876 -0.3776 -2.2995
  113OSM   C18F11808   1.187   6.008   8.716 -0.0368  0.2617  0.2001
  113OSM   H18F11809   1.108   6.071   8.670  0.0965  0.2174 -0.0855
  113OSM   H18G11810   1.265   5.979   8.643  0.4970  1.3606  0.3117
  113OSM   H18H11811   1.232   6.065   8.801  2.0794 -3.2122  1.4989
  114OSM      N11812   2.139   4.555  11.380 -0.2893  0.8659  0.5314
  114OSM    C1511813   2.137   4.581  11.528 -0.3312 -0.1861  0.1672
  114OSM   H15A11814   2.102   4.494  11.582  1.3820 -0.0440  1.5841
  114OSM   H15B11815   2.076   4.666  11.552  0.3015 -0.2010  1.9487
  114OSM   H15C11816   2.240   4.609  11.546 -0.1020 -0.4129 -0.7545
  114OSM    C1411817   2.201   4.671  11.303 -0.1822  0.2805 -1.1178
  114OSM   H14A11818   2.182   4.661  11.197 -1.7315  2.0539 -1.0262
  114OSM   H14B11819   2.307   4.682  11.316 -0.3226  0.0432  0.3466
  114OSM   H14C11820   2.161   4.767  11.330  2.2895  0.2135  3.3035
  114OSM    C1311821   2.222   4.434  11.349 -0.2145 -0.0035 -0.2122
  114OSM   H13A11822   2.220   4.414  11.243  1.9585  3.7065 -1.0292
  114OSM   H13B11823   2.182   4.349  11.403 -0.0366 -0.6752 -1.1390
  114OSM   H13C11824   2.328   4.447  11.363  0.3384 -1.9272 -2.3846
  114OSM    C1211825   1.999   4.546  11.318  0.0235  0.0046  0.5314
  114OSM   H12A11826   1.946   4.456  11.347 -0.6303  0.6896  1.5065
  114OSM   H12B11827   2.017   4.536  11.212  0.1202 -0.9697  0.6335
  114OSM    C1111828   1.904   4.668  11.332 -0.3868 -0.5380  0.0881
  114OSM   H11A11829   1.803   4.634  11.302 -0.9558 -1.1689  2.5872
  114OSM   H11B11830   1.940   4.740  11.255  3.1510 -0.6104  1.6090
  114OSM      P11831   1.884   4.876  11.498 -0.4765  0.1470  0.0341
  114OSM    O1311832   1.812   4.887  11.624 -0.6259 -0.2217  0.1859
  114OSM    O1411833   2.021   4.937  11.501  0.7440  0.4309 -0.2942
  114OSM    O1111834   1.807   4.927  11.369  0.5238 -0.4114  0.3211
  114OSM    O1211835   1.899   4.721  11.466  0.2623 -0.1722 -0.5627
  114OSM    C1S11836   1.726   5.040  11.378 -0.1509  0.0400  0.3722
  114OSM    H1S11837   1.767   5.124  11.437 -2.8563  1.9890 -0.4336
  114OSM    H1T11838   1.625   5.010  11.414 -0.2027 -0.3544 -0.0924
  114OSM     NF11839   1.628   5.230  11.245  0.0720 -0.0077 -0.6230
  114OSM    HNF11840   1.530   5.216  11.257 -0.1767  0.0700 -2.4235
  114OSM    C2S11841   1.699   5.102  11.236  0.5407  0.1370  0.6531
  114OSM    H2S11842   1.793   5.126  11.181 -0.3513 -0.5098 -1.1916
  114OSM    C3S11843   1.624   5.000  11.143  0.3152  0.4819 -0.4326
  114OSM    H3S11844   1.514   5.017  11.147  0.4928  1.3340  1.2530
  114OSM     O311845   1.657   4.860  11.163 -0.2180  0.2690  0.1832
  114OSM    HO311846   1.713   4.864  11.241 -0.6131  0.3283  0.4632
  114OSM    C4S11847   1.651   5.029  10.995 -0.2660 -0.2322 -0.4866
  114OSM    H4S11848   1.569   5.092  10.958 -0.5026 -0.6642 -0.7041
  114OSM    C5S11849   1.745   4.982  10.914  0.0582  0.2248  0.1490
  114OSM    H5S11850   1.817   4.907  10.949 -0.3111 -0.3248 -0.2552
  114OSM    C6S11851   1.754   5.011  10.763  0.2813 -0.2923 -0.3797
  114OSM    H6S11852   1.766   4.912  10.714  2.9016 -0.6297  0.8896
  114OSM    H6T11853   1.838   5.080  10.740  0.3930 -0.0479  0.7566
  114OSM    C7S11854   1.623   5.069  10.697 -0.3444 -0.7565 -0.5141
  114OSM    H7S11855   1.620   5.169  10.747 -1.1145 -1.6048  1.1702
  114OSM    H7T11856   1.535   5.012  10.733 -1.0918  0.5726 -0.1871
  114OSM    C8S11857   1.629   5.077  10.551 -0.4556  0.0553  0.8946
  114OSM    H8S11858   1.691   4.994  10.511 -2.6293 -0.9711 -0.4533
  114OSM    H8T11859   1.672   5.175  10.524 -0.2473 -0.5942 -1.2196
  114OSM    C9S11860   1.487   5.061  10.485  0.3585  0.2589 -0.1703
  114OSM    H9S11861   1.428   5.150  10.515  1.6191  0.6967  1.0735
  114OSM    H9T11862   1.441   4.969  10.526  0.6430 -0.2448 -0.9682
  114OSM   C10S11863   1.481   5.042  10.333 -0.6111  0.6029  0.5739
  114OSM   H10S11864   1.529   4.947  10.300 -2.3254 -0.9090  2.3189
  114OSM   H10T11865   1.554   5.114  10.290 -0.0915  0.8122  1.7843
  114OSM   C11S11866   1.338   5.034  10.273  0.3846  0.4682  0.5173
  114OSM   H11S11867   1.286   5.127  10.305 -1.9383  0.1620 -2.2043
  114OSM   H11T11868   1.285   4.948  10.320  0.3744 -0.3463 -0.9746
  114OSM   C12S11869   1.342   5.038  10.119  0.0031 -0.1355  0.1785
  114OSM   H12S11870   1.362   5.141  10.083 -0.8103 -0.2443 -0.5936
  114OSM   H12T11871   1.243   5.006  10.081 -0.6279  0.8654  0.9738
  114OSM   C13S11872   1.447   4.948  10.057  0.0237  0.3479 -0.0790
  114OSM   H13S11873   1.447   4.845  10.100 -2.7214 -0.4008 -1.7629
  114OSM   H13T11874   1.546   4.998  10.070 -0.5565  1.7162 -0.8347
  114OSM   C14S11875   1.432   4.941   9.908  0.5438 -0.0851  0.4444
  114OSM   H14S11876   1.326   4.923   9.879  0.1937  4.0576 -1.1950
  114OSM   H14T11877   1.497   4.857   9.875  1.1141  0.6638 -0.3346
  114OSM   C15S11878   1.488   5.074   9.848 -0.0583 -0.4838  0.3594
  114OSM   H15S11879   1.597   5.083   9.868  0.2689 -0.8250 -1.1996
  114OSM   H15T11880   1.428   5.162   9.879  1.0275 -0.0846  1.3856
  114OSM   C16S11881   1.490   5.075   9.693  1.0278 -0.2058 -0.5399
  114OSM   H16S11882   1.387   5.059   9.654  1.1988  0.9270 -1.5033
  114OSM   H16T11883   1.555   4.989   9.665  1.1560  0.0084 -0.9138
  114OSM   C17S11884   1.557   5.206   9.642 -0.5039  0.8200 -0.6573
  114OSM   H17S11885   1.654   5.208   9.697 -0.4760 -0.2199 -0.6539
  114OSM   H17T11886   1.492   5.285   9.684  0.1909  0.9460  0.2027
  114OSM   C18S11887   1.563   5.210   9.486 -0.5250 -1.0036 -0.0218
  114OSM   H18S11888   1.596   5.309   9.447 -1.2938 -0.4031  0.8269
  114OSM   H18T11889   1.468   5.191   9.433 -1.6279  0.8167  1.2536
  114OSM   H18U11890   1.642   5.144   9.445 -2.2735 -2.9845 -0.2624
  114OSM    C1F11891   1.694   5.346  11.243 -0.6453 -0.5814 -0.6885
  114OSM     OF11892   1.818   5.352  11.234  0.2970  0.3542  0.0030
  114OSM    C2F11893   1.603   5.465  11.253  0.1955 -0.6951  0.3403
  114OSM    H2F11894   1.626   5.523  11.345  1.9346 -0.6900 -0.0924
  114OSM    H2G11895   1.499   5.425  11.260  0.8768 -2.1143  2.7756
  114OSM    C3F11896   1.637   5.558  11.133 -0.5917  0.7830  0.0528
  114OSM    H3F11897   1.744   5.580  11.114 -0.3402 -2.2991 -2.3888
  114OSM    H3G11898   1.601   5.657  11.170  0.4477  0.2346  2.5865
  114OSM    C4F11899   1.577   5.505  11.004  0.0203 -0.4975  0.3173
  114OSM    H4F11900   1.477   5.465  11.029 -0.3152  0.1854  0.0809
  114OSM    H4G11901   1.627   5.414  10.966 -0.6826 -0.3077 -1.0763
  114OSM    C5F11902   1.564   5.617  10.902  0.4656 -0.8202  0.9667
  114OSM    H5F11903   1.658   5.672  10.878  0.0812 -0.9776 -1.0283
  114OSM    H5G11904   1.508   5.699  10.952 -0.2110  0.0271 -1.1006
  114OSM    C6F11905   1.507   5.573  10.767  0.0448 -0.1897 -0.1668
  114OSM    H6F11906   1.518   5.663  10.703 -0.3521 -1.4192 -2.0210
  114OSM    H6G11907   1.398   5.550  10.761 -0.1267  0.6093 -0.1196
  114OSM    C7F11908   1.570   5.449  10.702 -0.4430 -0.2740  0.1989
  114OSM    H7F11909   1.510   5.435  10.610  0.2710  0.4656 -0.3944
  114OSM    H7G11910   1.565   5.359  10.766  2.8752 -1.3133 -0.8699
  114OSM    C8F11911   1.716   5.465  10.667  0.1597  0.9167  0.8763
  114OSM    H8F11912   1.744   5.367  10.623  1.7213  1.7304  0.0030
  114OSM    H8G11913   1.775   5.478  10.760 -0.1299  1.0701  1.0393
  114OSM    C9F11914   1.742   5.582  10.577 -0.0529 -0.5461  0.0445
  114OSM    H9F11915   1.726   5.676  10.632  0.8000 -1.2782  1.6004
  114OSM   C10F11916   1.790   5.590  10.453 -0.7290  0.2824 -1.0179
  114OSM   H10F11917   1.795   5.692  10.412  0.9550  1.7555  2.5527
  114OSM   C11F11918   1.816   5.479  10.364 -0.4682 -0.2661  0.3234
  114OSM   H11F11919   1.847   5.386  10.418 -2.5879 -1.1360  0.0688
  114OSM   H11G11920   1.903   5.503  10.299  1.0303 -0.6153  2.1367
  114OSM   C12F11921   1.690   5.444  10.269  0.3967 -0.0561 -0.1300
  114OSM   H12F11922   1.678   5.535  10.206 -0.2917 -0.3591 -0.4424
  114OSM   H12G11923   1.603   5.427  10.336  0.6567  1.1109  0.5067
  114OSM   C13F11924   1.706   5.316  10.179 -0.3073  0.3204  0.5206
  114OSM   H13F11925   1.611   5.289  10.130 -0.1044 -1.1423  0.9273
  114OSM   H13G11926   1.721   5.236  10.254 -0.5010 -0.9061 -0.7173
  114OSM   C14F11927   1.809   5.317  10.072 -0.6164 -0.1633 -0.0142
  114OSM   H14F11928   1.826   5.214  10.035 -1.1872 -0.0715 -0.5369
  114OSM   H14G11929   1.910   5.350  10.105  0.2189  0.6860 -3.2366
  114OSM   C15F11930   1.761   5.404   9.956 -0.7384 -0.3124  0.1149
  114OSM   H15F11931   1.709   5.492  10.000  0.5777 -0.3451  1.7994
  114OSM   H15G11932   1.682   5.348   9.900 -0.0615 -0.7187 -0.4448
  114OSM   C16F11933   1.870   5.430   9.847  0.5119  0.4436 -0.5565
  114OSM   H16F11934   1.907   5.328   9.824  2.3444  0.8787  0.3525
  114OSM   H16G11935   1.945   5.496   9.896 -3.3950  5.7709 -1.2239
  114OSM   C17F11936   1.820   5.507   9.723 -0.4236 -0.4909  1.1941
  114OSM   H17F11937   1.762   5.592   9.762 -0.1159  0.5593 -0.5761
  114OSM   H17G11938   1.754   5.454   9.651  0.2465 -0.0843  0.2560
  114OSM   C18F11939   1.928   5.563   9.630 -0.1244  0.0834 -0.8302
  114OSM   H18F11940   1.887   5.630   9.551  1.5955 -0.9310 -2.6329
  114OSM   H18G11941   1.986   5.479   9.584 -0.9265 -1.2473  0.5542
  114OSM   H18H11942   1.995   5.619   9.698 -2.4551  2.5626 -0.4986
  115OSM      N11943   3.224   1.804   5.952 -0.3466 -0.2657 -0.0935
  115OSM    C1511944   3.345   1.834   5.866 -0.3690  0.6080 -0.7155
  115OSM   H15A11945   3.424   1.857   5.937  0.7746 -2.6792 -0.8362
  115OSM   H15B11946   3.343   1.926   5.809 -0.4309  3.3706  3.4682
  115OSM   H15C11947   3.373   1.743   5.816  0.4098  0.1415  0.5284
  115OSM    C1411948   3.127   1.745   5.856  0.3741  0.2550 -0.3281
  115OSM   H14A11949   3.031   1.725   5.899  0.7914 -0.6312  0.1836
  115OSM   H14B11950   3.163   1.651   5.818  0.8267  0.0340  0.6554
  115OSM   H14C11951   3.126   1.790   5.757  0.7663 -1.6382 -1.2035
  115OSM    C1311952   3.263   1.706   6.054  0.3548 -0.4320 -0.8999
  115OSM   H13A11953   3.314   1.621   6.014  0.3381 -0.5449 -0.6841
  115OSM   H13B11954   3.175   1.681   6.112  1.4064 -0.3643  0.7545
  115OSM   H13C11955   3.326   1.759   6.125  2.1558 -1.8408 -1.4243
  115OSM    C1211956   3.168   1.932   6.012 -0.3456 -0.3559  0.2385
  115OSM   H12A11957   3.077   1.904   6.064  0.5188  1.3916  2.7776
  115OSM   H12B11958   3.134   1.996   5.932  1.4209  0.8155  0.4075
  115OSM    C1111959   3.248   2.007   6.125 -0.0525  0.4373  0.4948
  115OSM   H11A11960   3.249   1.929   6.204 -0.6505 -1.8046 -1.6522
  115OSM   H11B11961   3.180   2.088   6.160  0.6706  2.4201 -2.5376
  115OSM      P11962   3.401   2.185   6.026  0.0440 -0.4440  0.0631
  115OSM    O1311963   3.544   2.216   6.007 -0.0676  0.4949 -0.3598
  115OSM    O1411964   3.313   2.195   5.906 -0.2132 -0.6896 -0.3294
  115OSM    O1111965   3.339   2.285   6.127 -0.1933  0.3652 -0.5701
  115OSM    O1211966   3.386   2.048   6.094  0.1644  0.4266 -0.3112
  115OSM    C1S11967   3.373   2.280   6.261  1.1095  0.3863 -0.2722
  115OSM    H1S11968   3.478   2.313   6.276  0.9660  0.6642  0.1494
  115OSM    H1T11969   3.359   2.178   6.300 -1.4170  0.7107 -0.2634
  115OSM     NF11970   3.332   2.393   6.475 -0.3077 -0.4727 -0.3474
  115OSM    HNF11971   3.255   2.375   6.535 -1.3224  2.1834 -0.7783
  115OSM    C2S11972   3.286   2.380   6.335  0.6775 -0.3530 -0.3771
  115OSM    H2S11973   3.276   2.483   6.295  2.1442 -0.5066 -1.1718
  115OSM    C3S11974   3.138   2.333   6.321  0.6056 -0.0832 -1.5660
  115OSM    H3S11975   3.124   2.230   6.362  2.2089  0.1723 -0.3169
  115OSM     O311976   3.085   2.328   6.188  0.1930  0.3130  0.2055
  115OSM    HO311977   3.168   2.348   6.145 -1.3933  2.1484 -2.1142
  115OSM    C4S11978   3.041   2.411   6.414  0.7411  0.1684 -0.8348
  115OSM    H4S11979   3.025   2.370   6.515 -0.3671 -1.8859 -1.7996
  115OSM    C5S11980   2.963   2.514   6.380 -0.8339  0.1034 -0.1894
  115OSM    H5S11981   2.962   2.546   6.275  0.4569  0.3689 -0.1291
  115OSM    C6S11982   2.862   2.580   6.474  0.2969  1.3614 -0.9175
  115OSM    H6S11983   2.765   2.599   6.423 -0.5209 -1.6508 -0.5517
  115OSM    H6T11984   2.890   2.687   6.487 -2.2918  1.9602  0.0243
  115OSM    C7S11985   2.848   2.522   6.615 -0.2635 -0.2552 -0.4864
  115OSM    H7S11986   2.950   2.537   6.656 -0.7658  1.7549  0.0890
  115OSM    H7T11987   2.821   2.415   6.623 -1.1020  0.2007  3.7226
  115OSM    C8S11988   2.748   2.605   6.703 -0.1533  0.1689 -0.7076
  115OSM    H8S11989   2.648   2.594   6.656 -2.0555  0.9040  2.9462
  115OSM    H8T11990   2.771   2.713   6.699 -1.0771  0.4756  1.4650
  115OSM    C9S11991   2.746   2.557   6.850 -0.3561 -0.0831  0.4134
  115OSM    H9S11992   2.722   2.449   6.863 -0.9225 -0.1821 -1.3240
  115OSM    H9T11993   2.676   2.619   6.909 -1.4086  0.0995 -1.0118
  115OSM   C10S11994   2.884   2.569   6.909 -0.0455  0.4959  0.8096
  115OSM   H10S11995   2.912   2.673   6.885 -0.8634  0.6495  0.4993
  115OSM   H10T11996   2.954   2.502   6.854 -1.1642  0.1728 -0.2422
  115OSM   C11S11997   2.900   2.542   7.059  0.1816  0.1304  0.3577
  115OSM   H11S11998   2.827   2.468   7.098  1.0012 -1.6606 -1.4295
  115OSM   H11T11999   2.876   2.637   7.111  2.8078 -0.1812  2.2343
  115OSM   C12S12000   3.041   2.499   7.103  0.0557  0.4932  0.0992
  115OSM   H12S12001   3.106   2.586   7.080  0.8636 -0.4520 -1.2976
  115OSM   H12T12002   3.083   2.413   7.046 -0.7576 -0.2731  0.6308
  115OSM   C13S12003   3.057   2.448   7.254  0.2700 -0.4146  0.6189
  115OSM   H13S12004   3.166   2.463   7.270  0.6657 -0.5433 -1.7123
  115OSM   H13T12005   3.030   2.342   7.267  2.3053 -1.1338 -0.7649
  115OSM   C14S12006   2.976   2.535   7.353 -0.3454 -0.2964  0.6786
  115OSM   H14S12007   2.870   2.506   7.335 -0.3139  0.7027 -1.2374
  115OSM   H14T12008   2.988   2.644   7.339  0.8948 -0.5250 -0.0748
  115OSM   C15S12009   3.013   2.503   7.501  0.8698 -0.1119 -0.2312
  115OSM   H15S12010   3.116   2.459   7.502 -0.2458 -2.8246  2.1426
  115OSM   H15T12011   2.945   2.421   7.531 -0.3868  1.2644  0.7381
  115OSM   C16S12012   3.007   2.620   7.598  0.0606  0.2173 -0.4915
  115OSM   H16S12013   3.030   2.710   7.537  0.2008  0.0446 -0.6955
  115OSM   H16T12014   3.093   2.608   7.667 -1.2340  3.2246  1.7548
  115OSM   C17S12015   2.874   2.650   7.671 -0.4702 -0.2940 -0.3009
  115OSM   H17S12016   2.867   2.564   7.741 -2.4257 -0.6479 -0.9192
  115OSM   H17T12017   2.791   2.628   7.602  0.3443  0.3284 -1.4933
  115OSM   C18S12018   2.857   2.781   7.753  0.2924  0.2105  0.1216
  115OSM   H18S12019   2.850   2.866   7.681 -2.5822 -0.9262 -1.0478
  115OSM   H18T12020   2.944   2.794   7.820 -1.3182 -1.2874  2.5886
  115OSM   H18U12021   2.758   2.772   7.802 -0.5352 -0.0820 -1.5356
  115OSM    C1F12022   3.448   2.457   6.507 -0.7383  0.4123 -0.1115
  115OSM     OF12023   3.511   2.512   6.420 -0.1092 -0.6567  0.6882
  115OSM    C2F12024   3.479   2.469   6.655  0.4023 -0.5334 -0.1895
  115OSM    H2F12025   3.444   2.369   6.689 -1.6154  0.5743  1.0684
  115OSM    H2G12026   3.410   2.546   6.695  0.7431  0.3656 -1.3048
  115OSM    C3F12027   3.625   2.498   6.669  0.0448 -1.3224 -0.4803
  115OSM    H3F12028   3.643   2.605   6.644 -1.5495 -0.0498  3.4161
  115OSM    H3G12029   3.695   2.441   6.604  2.3650 -1.9307  2.4245
  115OSM    C4F12030   3.677   2.470   6.813  0.4538  0.1158 -0.3950
  115OSM    H4F12031   3.691   2.362   6.832 -0.9147 -0.0312 -0.1481
  115OSM    H4G12032   3.609   2.503   6.894  0.7992 -1.0278  0.3660
  115OSM    C5F12033   3.823   2.533   6.838  0.0498  0.0204  0.8688
  115OSM    H5F12034   3.817   2.637   6.799 -0.8434 -0.7643 -1.1357
  115OSM    H5G12035   3.895   2.481   6.771  0.3376 -1.3332  2.1954
  115OSM    C6F12036   3.861   2.536   6.990 -0.0298  0.3561 -0.2751
  115OSM    H6F12037   3.968   2.564   7.002 -0.0129 -0.2606  1.0235
  115OSM    H6G12038   3.850   2.434   7.030  0.9180 -0.3808 -1.8418
  115OSM    C7F12039   3.773   2.626   7.070  0.5588  0.6734 -0.3239
  115OSM    H7F12040   3.674   2.579   7.090  1.6322 -1.3612  0.3127
  115OSM    H7G12041   3.753   2.725   7.025  1.5973  0.8520 -0.3856
  115OSM    C8F12042   3.850   2.650   7.196  0.1495  0.1459 -0.4876
  115OSM    H8F12043   3.810   2.744   7.239 -0.6009 -0.9024  1.1760
  115OSM    H8G12044   3.957   2.662   7.169 -0.1102  1.1599 -1.0750
  115OSM    C9F12045   3.836   2.543   7.300  0.0388  0.0701 -0.5372
  115OSM    H9F12046   3.805   2.445   7.262  0.1222 -0.2049  0.0992
  115OSM   C10F12047   3.852   2.557   7.433  0.3954  0.2332 -0.0048
  115OSM   H10F12048   3.832   2.469   7.495  0.6218 -0.2795 -0.6635
  115OSM   C11F12049   3.889   2.685   7.505 -0.3206 -0.9091  0.3044
  115OSM   H11F12050   3.805   2.756   7.486 -0.1365 -1.0611 -1.1133
  115OSM   H11G12051   3.974   2.728   7.449 -0.8982 -0.2230 -0.0448
  115OSM   C12F12052   3.931   2.659   7.645 -0.3645  0.7682  0.2071
  115OSM   H12F12053   3.952   2.759   7.689  1.3429  0.1066  0.9233
  115OSM   H12G12054   4.026   2.603   7.654 -0.9986 -0.1725  1.2981
  115OSM   C13F12055   3.823   2.604   7.739  0.4522 -0.0841  0.9076
  115OSM   H13F12056   3.804   2.504   7.694  2.5706 -0.3345  0.5145
  115OSM   H13G12057   3.728   2.660   7.727 -0.1027 -1.2322 -0.2502
  115OSM   C14F12058   3.862   2.612   7.893  0.8485  0.2696  0.2327
  115OSM   H14F12059   3.969   2.597   7.917  0.5293  0.6428  1.9966
  115OSM   H14G12060   3.808   2.526   7.938  1.0501 -0.1353 -0.3008
  115OSM   C15F12061   3.818   2.737   7.962 -0.0094  0.1087 -0.0652
  115OSM   H15F12062   3.709   2.754   7.948 -0.3281 -1.1091  0.9065
  115OSM   H15G12063   3.863   2.818   7.901 -1.6847  0.3180 -1.0486
  115OSM   C16F12064   3.850   2.746   8.108 -0.1021  0.5504 -1.1773
  115OSM   H16F12065   3.961   2.734   8.105 -0.1412 -0.5411  0.6953
  115OSM   H16G12066   3.809   2.657   8.160  1.2411  1.1735  1.0359
  115OSM   C17F12067   3.804   2.883   8.167 -0.5296 -0.3992  0.0034
  115OSM   H17F12068   3.834   2.894   8.274 -0.1554 -2.5867  0.1444
  115OSM   H17G12069   3.694   2.871   8.163 -0.4280 -1.3559  0.1569
  115OSM   C18F12070   3.843   3.011   8.087 -0.3811 -0.0329 -0.4490
  115OSM   H18F12071   3.951   3.035   8.085 -0.2872 -0.2014  1.5334
  115OSM   H18G12072   3.800   3.097   8.144  1.6854  1.4644 -1.0853
  115OSM   H18H12073   3.804   3.003   7.983  0.6489 -1.4302 -0.7334
  116OSM      N12074   2.337   0.293   6.093 -0.1127  0.0481 -0.7538
  116OSM    C1512075   2.250   0.368   6.004 -0.1191 -0.4776  0.0037
  116OSM   H15A12076   2.149   0.330   6.006 -0.0077 -0.8295 -0.8221
  116OSM   H15B12077   2.284   0.365   5.902  1.0080  1.6505  0.2867
  116OSM   H15C12078   2.249   0.475   6.017 -2.6588 -0.7593  2.7653
  116OSM    C1412079   2.346   0.147   6.052  0.3959 -0.3426  0.1475
  116OSM   H14A12080   2.400   0.145   5.959 -0.9678 -0.3995 -0.6497
  116OSM   H14B12081   2.256   0.090   6.039 -1.0761  1.7286  0.9707
  116OSM   H14C12082   2.398   0.089   6.127 -0.7045 -0.7868  0.5702
  116OSM    C1312083   2.481   0.338   6.100 -0.5251  0.5158  1.3023
  116OSM   H13A12084   2.544   0.252   6.116 -2.3991 -0.6933  2.3905
  116OSM   H13B12085   2.500   0.401   6.186  0.2388  1.4510  0.4575
  116OSM   H13C12086   2.517   0.396   6.017 -0.6297 -0.0923  0.8295
  116OSM    C1212087   2.274   0.286   6.239 -0.6307 -0.1513 -0.6681
  116OSM   H12A12088   2.173   0.252   6.225 -0.8601  0.8203 -1.4693
  116OSM   H12B12089   2.275   0.382   6.289 -0.8569  1.1869 -3.1556
  116OSM    C1112090   2.325   0.178   6.340 -0.2638  0.7180 -0.2628
  116OSM   H11A12091   2.273   0.197   6.437  0.3637 -0.8280  0.3908
  116OSM   H11B12092   2.433   0.192   6.362 -0.7783  0.8206  2.3230
  116OSM      P12093   2.148  -0.007   6.287  0.0072 -0.4759  0.3918
  116OSM    O1312094   2.069   0.089   6.211 -0.0049 -0.4379  0.0833
  116OSM    O1412095   2.144  -0.145   6.237 -0.5746 -0.2703 -0.0506
  116OSM    O1112096   2.102   0.002   6.436  0.1519 -0.1018  0.9577
  116OSM    O1212097   2.303   0.043   6.288 -0.0502  0.0503 -0.8537
  116OSM    C1S12098   2.177  -0.069   6.536  0.9205 -0.1821  0.1997
  116OSM    H1S12099   2.287  -0.076   6.519  0.5447 -0.5037 -2.3384
  116OSM    H1T12100   2.126  -0.167   6.548  0.7229 -0.1243 -0.1577
  116OSM     NF12101   2.246  -0.018   6.770  0.2332  0.6214  0.6161
  116OSM    HNF12102   2.226  -0.094   6.830 -0.9299  1.4852  1.3291
  116OSM    C2S12103   2.146   0.004   6.664  0.6043  0.3296  0.0570
  116OSM    H2S12104   2.153   0.114   6.648 -0.8521  0.3717 -0.3112
  116OSM    C3S12105   2.002  -0.032   6.710  0.2675 -0.1418  0.6022
  116OSM    H3S12106   1.982  -0.140   6.724 -2.6190  0.0402 -1.6285
  116OSM     O312107   1.903   0.004   6.616 -0.2657 -0.6882  0.2036
  116OSM    HO312108   1.944  -0.007   6.530 -1.3192  0.3226 -0.4435
  116OSM    C4S12109   1.961   0.038   6.832  0.0461 -0.5974 -0.0752
  116OSM    H4S12110   1.965   0.148   6.827  5.0324 -0.6925 -0.6706
  116OSM    C5S12111   1.923  -0.019   6.947 -0.4815 -0.0822  1.3210
  116OSM    H5S12112   1.919  -0.129   6.940  0.3409 -0.0117 -0.4352
  116OSM    C6S12113   1.882   0.054   7.072  0.0733 -0.0085 -0.0632
  116OSM    H6S12114   1.907  -0.014   7.156 -0.6224 -0.1247  0.0484
  116OSM    H6T12115   1.772   0.045   7.072  0.0201  0.3138  2.4444
  116OSM    C7S12116   1.922   0.199   7.079  0.9620  0.3300 -0.1776
  116OSM    H7S12117   1.871   0.230   7.173 -0.5209 -0.4044 -0.7224
  116OSM    H7T12118   1.866   0.249   6.997 -0.1260  1.1201  1.0156
  116OSM    C8S12119   2.076   0.230   7.093 -0.3752 -0.3792  0.1361
  116OSM    H8S12120   2.092   0.339   7.077  4.6886 -0.7489  1.8124
  116OSM    H8T12121   2.123   0.181   7.005 -0.2492  2.3067 -1.3567
  116OSM    C9S12122   2.149   0.179   7.222  0.1062  0.4131 -0.5387
  116OSM    H9S12123   2.251   0.220   7.211  1.0060 -1.5255  0.3490
  116OSM    H9T12124   2.137   0.069   7.229 -3.9664  0.6670 -2.2591
  116OSM   C10S12125   2.105   0.245   7.360 -0.7966  0.7342 -1.1803
  116OSM   H10S12126   2.003   0.207   7.384 -0.5891  1.8522  1.6646
  116OSM   H10T12127   2.108   0.355   7.349 -0.7077  0.9878  1.1132
  116OSM   C11S12128   2.202   0.209   7.474  0.7624 -0.0999  0.0981
  116OSM   H11S12129   2.311   0.207   7.450  1.2814  0.0092  2.3395
  116OSM   H11T12130   2.182   0.108   7.517  1.9169 -0.0016  0.8975
  116OSM   C12S12131   2.183   0.299   7.602 -0.5760 -0.2195  0.2593
  116OSM   H12S12132   2.074   0.313   7.611 -0.3724  0.9803  0.9320
  116OSM   H12T12133   2.222   0.400   7.577 -0.7096  0.1986  1.6952
  116OSM   C13S12134   2.246   0.246   7.726  0.1466 -0.5613  0.9970
  116OSM   H13S12135   2.356   0.261   7.715  0.1210 -0.0107  1.5196
  116OSM   H13T12136   2.213   0.141   7.739 -0.0458 -0.5782  0.3763
  116OSM   C14S12137   2.201   0.334   7.844 -0.4478 -0.1140 -0.2038
  116OSM   H14S12138   2.091   0.319   7.854 -0.2716  0.2608  2.8199
  116OSM   H14T12139   2.208   0.443   7.828 -0.8849 -0.2015 -0.9930
  116OSM   C15S12140   2.263   0.295   7.978  0.0886  0.0113 -0.9871
  116OSM   H15S12141   2.368   0.328   7.994 -0.7127  1.7314  0.9176
  116OSM   H15T12142   2.281   0.186   7.992 -0.1517  0.0184 -0.6106
  116OSM   C16S12143   2.174   0.335   8.087 -0.0833 -0.6523 -0.4122
  116OSM   H16S12144   2.069   0.321   8.055  0.4295  0.1557 -2.5136
  116OSM   H16T12145   2.179   0.446   8.095 -4.6048 -0.3221 -0.6795
  116OSM   C17S12146   2.212   0.281   8.233 -0.6345 -0.0563  0.5477
  116OSM   H17S12147   2.135   0.326   8.300  1.0109  2.8212  0.5441
  116OSM   H17T12148   2.310   0.321   8.266  0.1373 -0.4803 -1.1814
  116OSM   C18S12149   2.218   0.126   8.260  0.0916  0.0374  0.1074
  116OSM   H18S12150   2.113   0.097   8.281  0.1018 -0.4633 -0.5045
  116OSM   H18T12151   2.276   0.098   8.351  1.1764 -1.4616 -1.0176
  116OSM   H18U12152   2.249   0.064   8.173 -1.3006  0.5958 -0.8080
  116OSM    C1F12153   2.370   0.038   6.769  0.5022 -0.2322  0.2226
  116OSM     OF12154   2.395   0.125   6.685 -0.0850 -0.1171 -0.0134
  116OSM    C2F12155   2.454   0.003   6.890 -0.2054  0.4312  0.8090
  116OSM    H2F12156   2.449  -0.107   6.902 -2.7709  0.6474  2.1380
  116OSM    H2G12157   2.408   0.040   6.984  0.2343 -1.6548  1.8749
  116OSM    C3F12158   2.598   0.017   6.869  0.1128  0.2196 -0.3960
  116OSM    H3F12159   2.629   0.124   6.866  2.4477 -0.2948  2.6967
  116OSM    H3G12160   2.641  -0.023   6.775 -1.4003  1.8863 -1.8416
  116OSM    C4F12161   2.686  -0.074   6.959  0.9436 -0.2401 -0.5463
  116OSM    H4F12162   2.791  -0.035   6.958 -0.0614  2.6572  1.1157
  116OSM    H4G12163   2.693  -0.179   6.925  2.8127 -1.4723  3.3326
  116OSM    C5F12164   2.641  -0.086   7.103  0.7296  0.2480 -0.2450
  116OSM    H5F12165   2.562  -0.163   7.112  0.7942  0.3018  0.9124
  116OSM    H5G12166   2.600   0.010   7.143 -0.8000 -0.3339 -0.4067
  116OSM    C6F12167   2.749  -0.140   7.196 -0.4822 -0.0491  0.1607
  116OSM    H6F12168   2.831  -0.065   7.188 -0.7772  0.7335  3.6054
  116OSM    H6G12169   2.778  -0.238   7.153  1.5091 -0.4200  2.3084
  116OSM    C7F12170   2.707  -0.146   7.347  0.2116  0.1115  0.0362
  116OSM    H7F12171   2.630  -0.226   7.347  0.6330 -0.3168 -1.9920
  116OSM    H7G12172   2.668  -0.046   7.377  2.8777  1.1555  0.1179
  116OSM    C8F12173   2.811  -0.188   7.450 -0.3082 -0.4476 -0.3284
  116OSM    H8F12174   2.895  -0.117   7.432  0.0573  0.3560  3.9874
  116OSM    H8G12175   2.854  -0.285   7.419 -0.7546 -0.8898  0.4274
  116OSM    C9F12176   2.770  -0.176   7.589  0.0750  0.4583  0.8785
  116OSM    H9F12177   2.675  -0.123   7.598 -0.2441 -0.1906  1.4298
  116OSM   C10F12178   2.840  -0.206   7.701  0.0840  0.5173 -0.3216
  116OSM   H10F12179   2.795  -0.179   7.798 -0.9075 -1.4240 -0.2187
  116OSM   C11F12180   2.982  -0.260   7.703  0.1756  0.4429 -0.5664
  116OSM   H11F12181   3.037  -0.259   7.607 -0.0034 -2.1384 -0.7365
  116OSM   H11G12182   2.984  -0.366   7.738  2.2108  0.2954 -1.1138
  116OSM   C12F12183   3.074  -0.183   7.808 -0.7245  0.1632  0.2017
  116OSM   H12F12184   3.051  -0.075   7.792 -1.8472  0.1686  1.7530
  116OSM   H12G12185   3.179  -0.199   7.775 -1.3793  0.4543 -2.0949
  116OSM   C13F12186   3.064  -0.218   7.954 -0.0650  1.2076 -0.2124
  116OSM   H13F12187   2.955  -0.218   7.975  0.3998 -1.2693  2.5048
  116OSM   H13G12188   3.114  -0.145   8.020 -0.5908  1.1835  0.2175
  116OSM   C14F12189   3.119  -0.359   7.991  0.4033  0.7602  0.6079
  116OSM   H14F12190   3.206  -0.383   7.926  0.3300 -1.0645  1.1726
  116OSM   H14G12191   3.029  -0.420   7.970 -0.5320  2.1430  0.5326
  116OSM   C15F12192   3.150  -0.386   8.138 -0.2080  0.0161 -0.1721
  116OSM   H15F12193   3.061  -0.442   8.176 -0.1371 -0.1985 -0.3242
  116OSM   H15G12194   3.141  -0.287   8.189  3.4150 -0.2346  1.0753
  116OSM   C16F12195   3.282  -0.454   8.174 -0.5502  0.1509  0.2862
  116OSM   H16F12196   3.371  -0.393   8.146 -0.3390 -0.2959 -0.0223
  116OSM   H16G12197   3.279  -0.547   8.114  0.0272  0.9131 -0.9623
  116OSM   C17F12198   3.294  -0.477   8.325  0.1890 -0.4866  0.8648
  116OSM   H17F12199   3.268  -0.391   8.391  0.2580  0.0061  0.2546
  116OSM   H17G12200   3.397  -0.515   8.335  0.5116 -1.0202 -3.4054
  116OSM   C18F12201   3.199  -0.593   8.373  0.5593 -0.0583 -0.0290
  116OSM   H18F12202   3.095  -0.554   8.376  0.2445 -0.7639 -1.4133
  116OSM   H18G12203   3.228  -0.621   8.476 -0.2440  3.1727  1.1602
  116OSM   H18H12204   3.210  -0.667   8.291  2.4417  0.9778 -0.7385
  117OSM      N12205   1.191   1.234   6.310 -0.0207  0.9523 -0.1403
  117OSM    C1512206   1.217   1.123   6.409 -0.2344 -0.4845  0.5371
  117OSM   H15A12207   1.220   1.158   6.511 -0.9370  0.9013  0.0900
  117OSM   H15B12208   1.320   1.091   6.398 -0.6049 -1.4076 -0.3932
  117OSM   H15C12209   1.148   1.040   6.412  1.6359 -2.1231 -0.6390
  117OSM    C1412210   1.306   1.333   6.329  0.7062 -0.7367 -0.3866
  117OSM   H14A12211   1.299   1.417   6.261 -1.0208 -1.9070 -1.6862
  117OSM   H14B12212   1.405   1.291   6.314  0.2872 -1.5569 -0.8887
  117OSM   H14C12213   1.304   1.367   6.431  0.2452 -1.5425 -0.1245
  117OSM    C1312214   1.185   1.179   6.174 -0.0950  1.0671 -0.3481
  117OSM   H13A12215   1.096   1.117   6.179  0.5699 -0.1542 -2.8439
  117OSM   H13B12216   1.261   1.107   6.149 -0.3480  1.3381 -1.9607
  117OSM   H13C12217   1.179   1.252   6.095  2.6350  1.8230  0.0896
  117OSM    C1212218   1.054   1.297   6.348 -0.3322 -0.1456  0.4262
  117OSM   H12A12219   1.054   1.347   6.444 -0.2744 -0.5654  0.6454
  117OSM   H12B12220   0.974   1.225   6.344  0.6937 -1.2019 -1.6329
  117OSM    C1112221   1.007   1.410   6.253 -0.3723 -0.3908 -0.1891
  117OSM   H11A12222   0.902   1.428   6.283 -1.4932 -3.1819 -2.2389
  117OSM   H11B12223   1.003   1.369   6.150 -0.3758 -2.5085  0.6135
  117OSM      P12224   1.064   1.664   6.270  0.0800  0.1407  0.5323
  117OSM    O1312225   1.161   1.736   6.355 -0.0722  0.2813 -0.6692
  117OSM    O1412226   1.052   1.712   6.134 -0.2815  0.5735  0.2280
  117OSM    O1112227   0.910   1.668   6.327  1.0413 -0.2416 -0.6018
  117OSM    O1212228   1.102   1.511   6.262  1.0139  0.6414 -0.8351
  117OSM    C1S12229   0.884   1.609   6.459 -0.4714  0.7586  0.0613
  117OSM    H1S12230   0.968   1.542   6.488 -2.1591 -1.5815 -0.3547
  117OSM    H1T12231   0.790   1.551   6.471  0.2998 -0.6400 -0.5976
  117OSM     NF12232   0.848   1.649   6.695 -0.2737  0.0769 -0.1728
  117OSM    HNF12233   0.750   1.645   6.713 -0.2041  2.3873  0.8961
  117OSM    C2S12234   0.883   1.713   6.578 -0.8514 -0.1977 -0.3081
  117OSM    H2S12235   0.988   1.746   6.593 -0.5172 -1.8333  1.1326
  117OSM    C3S12236   0.803   1.844   6.547 -0.6226 -0.0826 -0.1385
  117OSM    H3S12237   0.696   1.819   6.565 -1.0131  1.5265 -0.1847
  117OSM     O312238   0.804   1.884   6.409 -0.1601 -0.4426  0.5210
  117OSM    HO312239   0.793   1.806   6.354 -3.6522  0.9284 -0.8397
  117OSM    C4S12240   0.846   1.952   6.635 -0.2139  0.4145 -0.1514
  117OSM    H4S12241   0.766   1.979   6.706 -0.5523 -0.5885 -0.1369
  117OSM    C5S12242   0.960   2.020   6.636  0.4972 -0.2528 -0.0477
  117OSM    H5S12243   1.045   1.998   6.570  1.7341  2.0850  0.6945
  117OSM    C6S12244   0.996   2.133   6.730  0.5293  0.1924  0.6153
  117OSM    H6S12245   1.018   2.226   6.674  0.4831 -1.9256 -3.0261
  117OSM    H6T12246   1.083   2.113   6.796  1.3522  1.4175 -0.0671
  117OSM    C7S12247   0.884   2.154   6.844 -0.3065 -0.1774  0.1321
  117OSM    H7S12248   0.863   2.059   6.899 -0.8956  0.4085  0.9194
  117OSM    H7T12249   0.797   2.202   6.793 -0.9769  0.6235  1.9797
  117OSM    C8S12250   0.941   2.261   6.939  0.4531 -0.0501 -0.4510
  117OSM    H8S12251   0.975   2.345   6.874 -0.0016  0.7840  0.3804
  117OSM    H8T12252   1.024   2.214   6.996 -0.4445  1.3204  2.0415
  117OSM    C9S12253   0.843   2.324   7.034 -0.1789  0.0902  0.2468
  117OSM    H9S12254   0.755   2.345   6.969 -0.2049 -0.9176 -0.0552
  117OSM    H9T12255   0.878   2.419   7.080  1.3933 -0.2170 -0.2706
  117OSM   C10S12256   0.792   2.243   7.152 -0.4546  0.0009  0.2406
  117OSM   H10S12257   0.748   2.160   7.093 -1.3646 -1.0156  2.2996
  117OSM   H10T12258   0.715   2.300   7.208 -0.8294 -1.0408  0.7952
  117OSM   C11S12259   0.893   2.207   7.264 -0.0865  0.4393  0.1271
  117OSM   H11S12260   0.926   2.307   7.302 -0.1709  0.9828 -1.1943
  117OSM   H11T12261   0.982   2.158   7.219  0.3701  0.8284  0.5931
  117OSM   C12S12262   0.839   2.123   7.383  0.0320 -0.1787 -0.5109
  117OSM   H12S12263   0.792   2.027   7.355 -1.2071  0.4023 -0.4352
  117OSM   H12T12264   0.760   2.186   7.429  0.3613  1.1233 -1.6851
  117OSM   C13S12265   0.952   2.097   7.488  0.0462  0.4683 -0.4552
  117OSM   H13S12266   0.990   2.197   7.520  1.1825 -0.7799  2.2194
  117OSM   H13T12267   1.033   2.045   7.432  1.2898 -0.6058  2.2721
  117OSM   C14S12268   0.909   2.004   7.601  0.2826 -0.1201  0.0876
  117OSM   H14S12269   0.989   1.927   7.610  0.0436 -0.2276  1.3732
  117OSM   H14T12270   0.812   1.957   7.574  1.2586 -1.4094 -1.2577
  117OSM   C15S12271   0.884   2.060   7.746  0.0330  0.6760  0.7028
  117OSM   H15S12272   0.843   1.976   7.806 -1.0825  0.1676 -0.7495
  117OSM   H15T12273   0.811   2.143   7.733  1.6102  1.8083 -1.2372
  117OSM   C16S12274   1.010   2.100   7.825 -0.1903  0.6804  0.0595
  117OSM   H16S12275   0.988   2.133   7.929 -0.0731  1.2741 -0.0978
  117OSM   H16T12276   1.058   2.186   7.772  0.3147 -1.2873 -2.7957
  117OSM   C17S12277   1.112   1.990   7.831  0.1667 -0.6374  0.1338
  117OSM   H17S12278   1.170   1.999   7.737  2.6335  1.6838  1.7875
  117OSM   H17T12279   1.066   1.891   7.850 -1.1092 -0.2182 -0.6957
  117OSM   C18S12280   1.212   2.018   7.946 -0.3601  0.5796 -0.0397
  117OSM   H18S12281   1.304   1.959   7.926  1.1278  3.0217 -0.5968
  117OSM   H18T12282   1.180   2.024   8.053 -0.5322 -0.5987 -0.0137
  117OSM   H18U12283   1.254   2.119   7.930  0.1697  0.4206  0.3185
  117OSM    C1F12284   0.930   1.556   6.748  0.2920  0.4868  0.0456
  117OSM     OF12285   1.050   1.550   6.722 -0.6275  0.3084  0.0955
  117OSM    C2F12286   0.856   1.462   6.839 -0.6937 -0.0554 -0.7045
  117OSM    H2F12287   0.817   1.379   6.777  0.4324  0.8330 -2.6338
  117OSM    H2G12288   0.763   1.509   6.877  0.3127  2.0114 -0.6908
  117OSM    C3F12289   0.945   1.403   6.957 -0.1787  0.1966 -0.0632
  117OSM    H3F12290   0.987   1.493   7.008 -2.6012  0.4940  1.5324
  117OSM    H3G12291   1.029   1.342   6.920  1.5166  1.9078  0.8740
  117OSM    C4F12292   0.861   1.331   7.067  0.5568 -0.4436  0.7703
  117OSM    H4F12293   0.822   1.240   7.017  1.8065 -1.1655  1.0831
  117OSM    H4G12294   0.780   1.402   7.090  1.3958  0.7979 -0.0448
  117OSM    C5F12295   0.945   1.304   7.200  0.6275 -0.2537 -0.7554
  117OSM    H5F12296   0.958   1.405   7.245  0.1183  0.1347 -1.4659
  117OSM    H5G12297   1.041   1.255   7.173  0.5567 -1.4027  0.9880
  117OSM    C6F12298   0.878   1.220   7.307 -0.4974 -0.0239 -0.0777
  117OSM    H6F12299   0.887   1.109   7.305  1.1176  0.1140 -1.0091
  117OSM    H6G12300   0.770   1.243   7.293 -0.0552  3.0170  1.2125
  117OSM    C7F12301   0.912   1.253   7.455  0.3042  0.4371 -0.0928
  117OSM    H7F12302   0.853   1.186   7.521 -0.5493  2.0476  0.8099
  117OSM    H7G12303   0.879   1.358   7.472 -2.7451 -0.7361  1.6469
  117OSM    C8F12304   1.064   1.249   7.488 -0.7612 -0.1422 -0.0471
  117OSM    H8F12305   1.092   1.296   7.584  0.6361 -1.5495  0.2544
  117OSM    H8G12306   1.119   1.307   7.410  0.9591  0.5501  1.6323
  117OSM    C9F12307   1.113   1.105   7.473 -0.4187  0.6226 -0.0599
  117OSM    H9F12308   1.154   1.083   7.374 -1.2999 -3.0406  0.2832
  117OSM   C10F12309   1.130   1.012   7.567  0.8539 -0.1078 -0.1149
  117OSM   H10F12310   1.164   0.909   7.549  0.6689 -0.6024  2.1637
  117OSM   C11F12311   1.093   1.028   7.711 -0.1506  0.4912 -0.9023
  117OSM   H11F12312   0.990   0.990   7.727  0.4823 -0.9397 -0.1325
  117OSM   H11G12313   1.098   1.136   7.734 -0.4357  0.1546  0.7644
  117OSM   C12F12314   1.186   0.958   7.811  0.3537  0.0142 -0.0546
  117OSM   H12F12315   1.292   0.980   7.783  0.0422 -0.1659 -1.4096
  117OSM   H12G12316   1.167   0.848   7.806 -1.1694  0.2852 -0.4491
  117OSM   C13F12317   1.175   1.012   7.958 -0.5400 -0.2824 -0.9407
  117OSM   H13F12318   1.113   1.103   7.960  0.6899  0.5750 -1.2939
  117OSM   H13G12319   1.273   1.050   7.996 -0.6252  0.4177 -1.4226
  117OSM   C14F12320   1.121   0.912   8.064 -0.0833  0.7904  1.0391
  117OSM   H14F12321   1.204   0.854   8.108 -0.4983 -0.4298  0.2160
  117OSM   H14G12322   1.062   0.835   8.011  0.4970 -0.3219  2.0001
  117OSM   C15F12323   1.057   0.971   8.190 -0.2776 -0.6289 -0.3460
  117OSM   H15F12324   0.986   1.041   8.141 -1.4885  0.2202  2.5372
  117OSM   H15G12325   1.133   1.024   8.250 -2.2367  0.3039  1.3693
  117OSM   C16F12326   0.970   0.879   8.282  0.6377 -0.1351 -0.2814
  117OSM   H16F12327   1.032   0.809   8.342  0.4949  1.1574  1.4362
  117OSM   H16G12328   0.900   0.823   8.216 -0.2346  0.6530 -0.0433
  117OSM   C17F12329   0.890   0.969   8.384 -0.3621 -0.0717 -0.1499
  117OSM   H17F12330   0.969   1.035   8.426 -1.2817  1.1491 -0.3058
  117OSM   H17G12331   0.836   1.053   8.335 -0.6002 -0.0440  0.1573
  117OSM   C18F12332   0.812   0.906   8.497  0.5979 -0.4526 -0.0891
  117OSM   H18F12333   0.862   0.823   8.551 -0.2071 -0.3232  0.8553
  117OSM   H18G12334   0.717   0.858   8.465  0.9155 -2.1949  1.4511
  117OSM   H18H12335   0.784   0.983   8.571 -0.7789 -3.1990  2.3382
  118OSM      N12336   4.201   3.990   6.010 -0.3314 -0.2867  0.0683
  118OSM    C1512337   4.243   4.121   5.948 -0.0752 -0.5169  0.3242
  118OSM   H15A12338   4.167   4.197   5.942 -1.6581 -2.2438 -3.1925
  118OSM   H15B12339   4.294   4.109   5.853 -2.8695 -0.7963 -1.2142
  118OSM   H15C12340   4.318   4.166   6.011 -0.4690  1.0241 -0.2923
  118OSM    C1412341   4.101   3.931   5.918  0.2637  0.0739  0.2060
  118OSM   H14A12342   4.131   3.895   5.821 -1.5630  0.4595 -0.5128
  118OSM   H14B12343   4.022   4.004   5.909 -2.1412 -2.3274  1.4256
  118OSM   H14C12344   4.067   3.837   5.957  1.8292 -0.2322  0.8867
  118OSM    C1312345   4.326   3.914   6.013 -0.6335 -0.2043 -0.0645
  118OSM   H13A12346   4.389   3.956   6.091  0.5494 -1.9792 -0.0428
  118OSM   H13B12347   4.380   3.920   5.919 -0.2715  0.5503  0.1840
  118OSM   H13C12348   4.311   3.809   6.029 -2.0882  0.2166  1.4373
  118OSM    C1212349   4.147   4.023   6.144 -0.4633  0.1861  0.0005
  118OSM   H12A12350   4.058   4.084   6.139 -1.4777 -1.3475 -1.4785
  118OSM   H12B12351   4.222   4.080   6.195 -1.4489  0.5346  1.0891
  118OSM    C1112352   4.095   3.907   6.230  0.0502  0.2650 -0.4868
  118OSM   H11A12353   4.093   3.948   6.333  1.0976  0.7621 -0.6553
  118OSM   H11B12354   4.175   3.829   6.230  0.2427  0.3958  2.4289
  118OSM      P12355   3.839   3.941   6.209  0.0625 -0.8335 -0.1677
  118OSM    O1312356   3.852   4.074   6.149  0.4033 -0.5972 -0.1703
  118OSM    O1412357   3.716   3.869   6.161 -0.1894  0.7568 -0.1910
  118OSM    O1112358   3.844   3.942   6.373  0.2945 -0.3527 -0.1260
  118OSM    O1212359   3.972   3.864   6.169 -0.4067 -0.3392  0.3470
  118OSM    C1S12360   3.769   3.838   6.451  0.2137  0.4765  0.8507
  118OSM    H1S12361   3.840   3.754   6.464 -0.5027 -0.3586 -0.5279
  118OSM    H1T12362   3.677   3.802   6.399  2.0698 -1.1619 -1.3651
  118OSM     NF12363   3.626   3.798   6.650  0.3057  0.3368  0.6960
  118OSM    HNF12364   3.527   3.810   6.647  0.1650 -1.2103 -1.6466
  118OSM    C2S12365   3.716   3.894   6.583  0.3347  0.0789  0.2646
  118OSM    H2S12366   3.798   3.901   6.658 -0.2863  0.1118  0.9404
  118OSM    C3S12367   3.650   4.031   6.550  0.6633  0.5470 -0.0192
  118OSM    H3S12368   3.583   4.014   6.463  3.0745 -0.5139 -1.7213
  118OSM     O312369   3.745   4.139   6.504 -0.4227 -0.3112 -0.9763
  118OSM    HO312370   3.825   4.098   6.471 -0.3727  0.6492 -2.0597
  118OSM    C4S12371   3.576   4.079   6.674 -0.3014 -0.7382  0.1563
  118OSM    H4S12372   3.466   4.075   6.663 -0.1940 -1.0632 -0.8756
  118OSM    C5S12373   3.625   4.156   6.780  0.2781 -0.0166 -0.0836
  118OSM    H5S12374   3.733   4.175   6.790  0.3137  0.9785 -2.0011
  118OSM    C6S12375   3.535   4.215   6.892  0.4979 -0.6755 -0.2811
  118OSM    H6S12376   3.524   4.323   6.870  1.0213  0.1892  3.4258
  118OSM    H6T12377   3.596   4.193   6.982  0.7336 -2.1632 -0.7771
  118OSM    C7S12378   3.392   4.162   6.913  0.2721  0.3946 -0.3497
  118OSM    H7S12379   3.414   4.053   6.924 -0.4595  0.0881 -1.7727
  118OSM    H7T12380   3.321   4.180   6.830 -2.9574  1.3184  2.5191
  118OSM    C8S12381   3.320   4.204   7.052  0.1818 -0.1489 -0.1779
  118OSM    H8S12382   3.228   4.142   7.064 -0.7832  1.3107  0.0238
  118OSM    H8T12383   3.290   4.310   7.041 -1.9349 -0.7630 -0.4689
  118OSM    C9S12384   3.400   4.173   7.179  0.5052 -0.2054  0.0708
  118OSM    H9S12385   3.499   4.224   7.179 -0.0164  0.8015  0.2210
  118OSM    H9T12386   3.418   4.063   7.176 -0.3123 -0.3095 -1.5266
  118OSM   C10S12387   3.321   4.198   7.304  0.1813  0.2053  0.8197
  118OSM   H10S12388   3.229   4.137   7.296  0.5579 -0.2307 -0.3307
  118OSM   H10T12389   3.283   4.301   7.321 -1.0214 -0.1340  0.2326
  118OSM   C11S12390   3.397   4.163   7.429 -0.2452 -0.4281 -0.4260
  118OSM   H11S12391   3.481   4.234   7.448 -2.9360  3.2811 -1.6733
  118OSM   H11T12392   3.440   4.061   7.419  2.1129  0.2441  2.2053
  118OSM   C12S12393   3.302   4.170   7.546  0.1902  0.0451  1.0153
  118OSM   H12S12394   3.218   4.097   7.539 -1.9688  2.4024  1.6176
  118OSM   H12T12395   3.239   4.259   7.566  0.8194  0.8486 -0.5331
  118OSM   C13S12396   3.374   4.131   7.682  0.3822 -0.1712  0.4631
  118OSM   H13S12397   3.426   4.225   7.708 -0.2600  0.7200 -1.3712
  118OSM   H13T12398   3.444   4.047   7.664  1.3399  0.6024  0.5655
  118OSM   C14S12399   3.276   4.087   7.788  0.3633 -0.5932 -0.2774
  118OSM   H14S12400   3.215   4.005   7.746 -1.2789  0.5399 -0.1470
  118OSM   H14T12401   3.221   4.179   7.818  0.7616  0.1939 -1.9028
  118OSM   C15S12402   3.354   4.023   7.905 -0.1129 -0.6980 -0.0932
  118OSM   H15S12403   3.415   4.101   7.955 -2.4787  0.2638  1.3615
  118OSM   H15T12404   3.419   3.936   7.879  1.4888  1.2812 -2.9189
  118OSM   C16S12405   3.257   3.982   8.008  0.0084 -0.2985 -0.1719
  118OSM   H16S12406   3.191   3.901   7.969 -0.9577  0.5437 -0.3021
  118OSM   H16T12407   3.190   4.068   8.026  0.3568  0.0315 -0.4470
  118OSM   C17S12408   3.316   3.937   8.135  0.6559  0.0149 -0.4242
  118OSM   H17S12409   3.365   4.022   8.186  1.9614 -1.0506  0.1216
  118OSM   H17T12410   3.376   3.846   8.112 -0.4739 -1.0224  0.6427
  118OSM   C18S12411   3.215   3.879   8.242 -0.0599  0.6450  0.1371
  118OSM   H18S12412   3.140   3.959   8.257  0.1209  0.6982  0.7408
  118OSM   H18T12413   3.269   3.845   8.333  0.8800  0.0262 -0.6336
  118OSM   H18U12414   3.156   3.797   8.196 -2.1771  1.5203  1.2289
  118OSM    C1F12415   3.679   3.688   6.703  0.0039  0.3790 -0.0284
  118OSM     OF12416   3.795   3.654   6.686  0.3281 -0.2170  0.1783
  118OSM    C2F12417   3.581   3.586   6.760 -0.3214 -0.2086  0.0404
  118OSM    H2F12418   3.623   3.484   6.757  0.7487  0.1997  0.9939
  118OSM    H2G12419   3.495   3.579   6.690  1.9852 -3.7440 -2.5591
  118OSM    C3F12420   3.532   3.602   6.905  0.0874  0.0924 -0.7193
  118OSM    H3F12421   3.616   3.593   6.978 -1.5277 -2.7891  0.8964
  118OSM    H3G12422   3.470   3.513   6.928 -1.0205  0.7356 -1.1845
  118OSM    C4F12423   3.455   3.726   6.934 -0.1672 -0.5377  0.6389
  118OSM    H4F12424   3.359   3.709   6.880  1.2888  1.0658 -2.6432
  118OSM    H4G12425   3.502   3.805   6.871 -0.8825 -1.7693 -1.5082
  118OSM    C5F12426   3.458   3.777   7.078 -0.2592 -0.5962 -0.1575
  118OSM    H5F12427   3.399   3.871   7.081  0.5499 -0.1109  0.5428
  118OSM    H5G12428   3.561   3.810   7.099 -1.0986  1.8883  0.1385
  118OSM    C6F12429   3.399   3.687   7.177  0.3056 -0.5098 -0.5040
  118OSM    H6F12430   3.459   3.595   7.195  2.6808  1.1550  0.4314
  118OSM    H6G12431   3.295   3.669   7.144  0.6748 -1.0889 -1.3545
  118OSM    C7F12432   3.378   3.756   7.315 -0.4201  0.6281 -0.2790
  118OSM    H7F12433   3.320   3.851   7.309 -1.9930 -0.3836 -1.6309
  118OSM    H7G12434   3.478   3.784   7.354 -0.2013  1.9607 -1.7260
  118OSM    C8F12435   3.307   3.674   7.416 -0.5085  0.9400  0.2229
  118OSM    H8F12436   3.348   3.572   7.434  0.3069  1.5079  1.6614
  118OSM    H8G12437   3.199   3.659   7.393 -0.1288 -1.0368 -0.3795
  118OSM    C9F12438   3.310   3.738   7.552 -0.0170 -0.0856  0.3840
  118OSM    H9F12439   3.218   3.793   7.573  1.4177  2.9282 -0.9288
  118OSM   C10F12440   3.403   3.732   7.645 -0.1471  0.3268 -0.3837
  118OSM   H10F12441   3.394   3.796   7.734 -0.3293 -0.8630  0.4793
  118OSM   C11F12442   3.537   3.659   7.630 -0.4616  0.6234 -0.5557
  118OSM   H11F12443   3.615   3.733   7.602  0.4472 -0.6443 -1.4510
  118OSM   H11G12444   3.541   3.575   7.557  2.5933  0.2792 -0.0562
  118OSM   C12F12445   3.570   3.591   7.760  0.3727  0.3198  0.3746
  118OSM   H12F12446   3.489   3.537   7.813 -1.0378  0.5278 -1.5061
  118OSM   H12G12447   3.591   3.666   7.839  2.5188  1.1310 -0.9204
  118OSM   C13F12448   3.711   3.522   7.754  0.4891 -0.1828  0.9241
  118OSM   H13F12449   3.783   3.603   7.729  0.0789  0.0797  0.5596
  118OSM   H13G12450   3.709   3.441   7.678 -1.4508 -0.5272  1.3175
  118OSM   C14F12451   3.726   3.448   7.885 -0.2862  0.4070 -0.5251
  118OSM   H14F12452   3.642   3.377   7.901  0.4984 -0.7965 -1.7322
  118OSM   H14G12453   3.719   3.518   7.972 -2.1374  0.0854 -0.3854
  118OSM   C15F12454   3.861   3.371   7.903  0.3499 -0.0563 -0.4580
  118OSM   H15F12455   3.872   3.295   7.823  2.0404  0.7819 -1.0500
  118OSM   H15G12456   3.863   3.344   8.011  0.1894  2.6086  0.2516
  118OSM   C16F12457   3.985   3.463   7.895 -0.2986 -0.1075  0.3453
  118OSM   H16F12458   4.004   3.515   7.799  0.2173 -0.0803  0.4597
  118OSM   H16G12459   4.075   3.400   7.915 -0.6052  0.0214  2.2923
  118OSM   C17F12460   3.991   3.572   8.008 -0.3315 -0.3572  0.0414
  118OSM   H17F12461   3.891   3.618   8.015  0.3985  1.2168  0.4583
  118OSM   H17G12462   4.061   3.649   7.967 -0.1177 -0.8437 -0.5188
  118OSM   C18F12463   4.029   3.522   8.151  0.1908 -0.0036  0.1726
  118OSM   H18F12464   4.019   3.604   8.226 -1.6511  0.7255 -0.8397
  118OSM   H18G12465   4.129   3.475   8.159  0.4338  0.6005  0.7193
  118OSM   H18H12466   3.958   3.441   8.180  0.6050  0.0678  1.4256
  119OSM      N12467   5.319   3.510   6.151  0.2283 -0.3369 -0.2661
  119OSM    C1512468   5.386   3.572   6.264 -0.7412 -0.3272  0.7907
  119OSM   H15A12469   5.450   3.497   6.308 -0.2610 -0.4529 -0.1053
  119OSM   H15B12470   5.326   3.605   6.347 -0.4856 -0.3333  0.9770
  119OSM   H15C12471   5.453   3.651   6.233 -1.4036 -0.5992 -1.4203
  119OSM    C1412472   5.413   3.472   6.044  0.7294  0.7187 -0.5709
  119OSM   H14A12473   5.362   3.422   5.963  0.1557 -0.8749  0.7228
  119OSM   H14B12474   5.479   3.395   6.083  1.6278  0.5163 -2.4387
  119OSM   H14C12475   5.469   3.555   6.005  0.5222  0.8998 -0.4794
  119OSM    C1312476   5.242   3.398   6.197 -0.1837 -0.4580 -0.1059
  119OSM   H13A12477   5.166   3.380   6.122 -0.2119  1.2364 -0.5050
  119OSM   H13B12478   5.208   3.408   6.299 -4.3662  0.3387 -1.4825
  119OSM   H13C12479   5.288   3.300   6.195  1.4597  0.2907  0.2269
  119OSM    C1212480   5.218   3.605   6.089  0.2873  0.4025  0.1824
  119OSM   H12A12481   5.269   3.696   6.059 -1.4413  1.6219  0.8642
  119OSM   H12B12482   5.147   3.648   6.158  0.9818  1.9986 -0.0636
  119OSM    C1112483   5.135   3.556   5.969  0.0546  0.7491 -0.1390
  119OSM   H11A12484   5.202   3.502   5.897  0.0688 -1.3816  1.4271
  119OSM   H11B12485   5.111   3.649   5.912  2.0464  0.2150 -1.9108
  119OSM      P12486   4.882   3.514   6.010 -0.1558  0.0501  0.0806
  119OSM    O1312487   4.852   3.621   5.912 -0.6388 -0.0263  0.0542
  119OSM    O1412488   4.792   3.398   6.006 -0.6127 -0.0015  0.5751
  119OSM    O1112489   4.876   3.584   6.158  0.2253 -0.1726  0.1526
  119OSM    O1212490   5.028   3.455   5.996 -0.4504 -0.3600  0.0630
  119OSM    C1S12491   4.845   3.491   6.264  0.2032 -0.0000 -0.3875
  119OSM    H1S12492   4.926   3.418   6.284 -0.6730 -0.9453 -0.1853
  119OSM    H1T12493   4.751   3.435   6.241  0.1283 -0.9824  2.1582
  119OSM     NF12494   4.784   3.462   6.503  0.2474 -0.5135  0.1776
  119OSM    HNF12495   4.687   3.460   6.526 -0.2484  2.6164 -1.3529
  119OSM    C2S12496   4.824   3.557   6.406 -0.5844 -0.0370 -0.0149
  119OSM    H2S12497   4.925   3.598   6.427 -0.0955 -1.3484  0.1945
  119OSM    C3S12498   4.723   3.666   6.392  0.3578 -0.1251  0.9176
  119OSM    H3S12499   4.629   3.626   6.349  2.6929 -3.1533 -1.6126
  119OSM     O312500   4.754   3.765   6.296  0.3057  0.2446  0.4888
  119OSM    HO312501   4.847   3.750   6.277  0.2528 -0.8923  1.0582
  119OSM    C4S12502   4.697   3.732   6.525 -0.3932  0.0964 -0.3309
  119OSM    H4S12503   4.612   3.688   6.580  0.7971 -2.1399 -0.2161
  119OSM    C5S12504   4.771   3.833   6.582  0.3835 -0.1702  0.0916
  119OSM    H5S12505   4.853   3.880   6.526 -0.8175  0.4918 -1.1423
  119OSM    C6S12506   4.725   3.902   6.710  0.3049 -0.4399  0.0360
  119OSM    H6S12507   4.701   4.010   6.705 -1.4667 -0.8080  0.2906
  119OSM    H6T12508   4.805   3.896   6.787 -0.4208 -0.6470  0.7789
  119OSM    C7S12509   4.597   3.843   6.783  0.1457  0.5778 -0.2076
  119OSM    H7S12510   4.610   3.735   6.808 -2.9960  0.0506 -0.6711
  119OSM    H7T12511   4.518   3.843   6.705  0.8932 -0.1647 -0.9816
  119OSM    C8S12512   4.547   3.929   6.899  0.2683  0.3249  0.9335
  119OSM    H8S12513   4.527   4.031   6.859  0.0033  0.2126  0.7778
  119OSM    H8T12514   4.634   3.933   6.968  0.7088  1.9994  0.3057
  119OSM    C9S12515   4.419   3.871   6.967  0.2791  0.0793  0.6576
  119OSM    H9S12516   4.445   3.766   6.992  1.2547 -0.0881 -0.9752
  119OSM    H9T12517   4.337   3.866   6.893 -0.4137  2.1878  1.2361
  119OSM   C10S12518   4.365   3.962   7.086  0.3464 -0.5537  0.8290
  119OSM   H10S12519   4.256   3.952   7.105 -0.1111  0.2557 -1.2304
  119OSM   H10T12520   4.376   4.065   7.047 -0.6925 -0.7108  0.0999
  119OSM   C11S12521   4.445   3.944   7.216  0.1780  0.2152 -0.3085
  119OSM   H11S12522   4.541   3.999   7.201  0.2823  0.5237  1.4030
  119OSM   H11T12523   4.482   3.839   7.223 -2.7278 -0.9252 -1.3719
  119OSM   C12S12524   4.378   3.982   7.350  0.8828 -0.3958 -0.2258
  119OSM   H12S12525   4.357   4.091   7.358 -1.4233 -0.7909 -0.5154
  119OSM   H12T12526   4.461   3.973   7.422  0.5112 -0.2992  0.2154
  119OSM   C13S12527   4.253   3.897   7.393  0.1710  0.2892  0.5452
  119OSM   H13S12528   4.254   3.793   7.353 -0.4989  0.1879  0.7813
  119OSM   H13T12529   4.162   3.936   7.342  0.0878 -2.0434 -1.2122
  119OSM   C14S12530   4.223   3.900   7.546 -0.1394  0.1529 -0.3550
  119OSM   H14S12531   4.122   3.860   7.568 -0.6967  0.4477 -2.2278
  119OSM   H14T12532   4.230   4.007   7.574  1.5151 -0.5862  2.2351
  119OSM   C15S12533   4.332   3.830   7.634  0.2465  1.0091 -0.6159
  119OSM   H15S12534   4.424   3.892   7.636 -0.4346  2.0684 -1.8038
  119OSM   H15T12535   4.353   3.727   7.598 -0.7294 -0.2756  2.3212
  119OSM   C16S12536   4.283   3.823   7.779 -0.1848 -0.1763  0.0409
  119OSM   H16S12537   4.203   3.746   7.781  0.2265 -0.6121 -0.1269
  119OSM   H16T12538   4.240   3.919   7.813  0.3791 -0.1886  0.7757
  119OSM   C17S12539   4.386   3.775   7.880  0.0708  0.4866 -0.4844
  119OSM   H17S12540   4.343   3.757   7.981 -1.2261 -0.9143 -1.2659
  119OSM   H17T12541   4.462   3.854   7.899  2.6148 -2.3144  1.5735
  119OSM   C18S12542   4.473   3.651   7.844 -0.2702  0.3077 -0.3321
  119OSM   H18S12543   4.528   3.597   7.924  2.1210  2.5978 -0.3357
  119OSM   H18T12544   4.540   3.677   7.759 -0.1562 -0.6467 -0.5326
  119OSM   H18U12545   4.400   3.580   7.801 -0.1571  0.6684 -1.1283
  119OSM    C1F12546   4.868   3.385   6.568  0.9108  0.1774  0.3591
  119OSM     OF12547   4.987   3.392   6.554  0.0154  0.4669 -0.2962
  119OSM    C2F12548   4.810   3.279   6.656  0.7075  0.3191  0.1824
  119OSM    H2F12549   4.871   3.191   6.626  0.6281  0.1222  0.5943
  119OSM    H2G12550   4.701   3.263   6.639  0.5435  1.6354 -0.0188
  119OSM    C3F12551   4.824   3.296   6.813 -0.7167 -0.5756 -0.0670
  119OSM    H3F12552   4.771   3.385   6.850  0.0045  0.1565 -0.7638
  119OSM    H3G12553   4.934   3.311   6.823 -0.6532 -0.9393 -0.1855
  119OSM    C4F12554   4.772   3.167   6.886 -0.4974  0.2063  0.4038
  119OSM    H4F12555   4.822   3.075   6.849 -0.7681  0.4464 -0.5660
  119OSM    H4G12556   4.663   3.153   6.873 -0.8830  0.7706  2.8444
  119OSM    C5F12557   4.787   3.170   7.045 -0.0280 -0.0243 -0.0579
  119OSM    H5F12558   4.894   3.166   7.074 -0.4214  0.8691  1.5553
  119OSM    H5G12559   4.750   3.071   7.079 -0.2832 -0.0197 -0.3191
  119OSM    C6F12560   4.713   3.287   7.114  0.2203  0.4752  0.0171
  119OSM    H6F12561   4.625   3.320   7.054  0.7150 -0.7347 -1.4013
  119OSM    H6G12562   4.781   3.374   7.124  1.6658 -0.4630 -1.4247
  119OSM    C7F12563   4.643   3.253   7.243  0.2859 -0.4306 -0.1878
  119OSM    H7F12564   4.600   3.151   7.230 -0.5960 -0.3517  1.9076
  119OSM    H7G12565   4.557   3.313   7.279  1.9915  1.3850  0.9490
  119OSM    C8F12566   4.731   3.250   7.371  0.3957  0.3088  0.0769
  119OSM    H8F12567   4.787   3.345   7.382  0.5909  0.1671  0.3021
  119OSM    H8G12568   4.800   3.166   7.346  1.7626  1.0132  1.4634
  119OSM    C9F12569   4.674   3.229   7.505  0.0782 -0.4221 -0.0002
  119OSM    H9F12570   4.718   3.142   7.556  1.1775  0.2050  0.1328
  119OSM   C10F12571   4.591   3.308   7.572 -0.3553  0.4278 -0.3536
  119OSM   H10F12572   4.533   3.284   7.662  0.4391  2.2459  0.6850
  119OSM   C11F12573   4.537   3.437   7.525 -0.1184  0.6196  0.2762
  119OSM   H11F12574   4.590   3.475   7.435 -0.5387 -2.2557 -1.2614
  119OSM   H11G12575   4.548   3.509   7.608  0.1175 -0.7137  1.4140
  119OSM   C12F12576   4.388   3.444   7.483 -0.1144  0.0995  0.0739
  119OSM   H12F12577   4.369   3.393   7.386  0.5774 -1.2950  0.6524
  119OSM   H12G12578   4.362   3.550   7.466 -0.6833 -0.0583 -0.0340
  119OSM   C13F12579   4.282   3.390   7.587  0.4009 -0.0463 -0.5513
  119OSM   H13F12580   4.256   3.460   7.670 -1.0221 -1.2178  0.0253
  119OSM   H13G12581   4.321   3.297   7.634  0.7024  2.0805  3.6286
  119OSM   C14F12582   4.146   3.360   7.531 -0.1073 -0.1271 -0.5613
  119OSM   H14F12583   4.082   3.352   7.621 -0.6928  2.0582 -0.7632
  119OSM   H14G12584   4.133   3.263   7.478 -3.0013 -0.8240  1.3329
  119OSM   C15F12585   4.096   3.465   7.429  0.3618 -0.1291 -0.0920
  119OSM   H15F12586   4.154   3.468   7.335 -0.0373  1.9833 -0.3062
  119OSM   H15G12587   4.113   3.567   7.469  0.0889  0.5724 -1.7267
  119OSM   C16F12588   3.944   3.464   7.395  0.1587 -0.1365  0.2547
  119OSM   H16F12589   3.898   3.475   7.495  0.6802 -1.5238  0.6472
  119OSM   H16G12590   3.902   3.370   7.352  0.2327 -0.7387  1.5006
  119OSM   C17F12591   3.907   3.578   7.308 -0.8861  0.0754  0.6251
  119OSM   H17F12592   3.922   3.553   7.201 -1.7239  1.0974  0.2539
  119OSM   H17G12593   3.979   3.660   7.330  0.6989 -1.7150  2.3192
  119OSM   C18F12594   3.767   3.627   7.330 -0.3390 -0.6871  0.2153
  119OSM   H18F12595   3.690   3.552   7.301  0.0456 -1.4832  1.2434
  119OSM   H18G12596   3.746   3.720   7.272 -0.6134 -0.4052  0.7655
  119OSM   H18H12597   3.727   3.661   7.428 -2.2697 -0.1121 -0.7443
  120OSM      N12598   2.295   0.915   6.624 -0.2616  0.5258 -0.8452
  120OSM    C1512599   2.309   0.854   6.495 -0.7543  0.4635  0.1108
  120OSM   H15A12600   2.213   0.825   6.455  0.3023 -1.2272 -1.2443
  120OSM   H15B12601   2.355   0.757   6.507 -0.5912  0.3558 -1.2887
  120OSM   H15C12602   2.355   0.908   6.414  3.2942 -2.3861  0.3963
  120OSM    C1412603   2.222   1.043   6.607 -0.0581 -0.0789  0.5123
  120OSM   H14A12604   2.272   1.117   6.546  0.1176 -0.7556 -0.1690
  120OSM   H14B12605   2.200   1.079   6.707 -0.3498 -1.2959  0.8945
  120OSM   H14C12606   2.127   1.031   6.557  1.0151  1.0616 -1.8568
  120OSM    C1312607   2.209   0.829   6.708 -0.0664 -0.3556 -0.6077
  120OSM   H13A12608   2.256   0.733   6.724 -1.3693 -0.7419  0.9428
  120OSM   H13B12609   2.120   0.811   6.650  0.3151  1.7104 -1.8953
  120OSM   H13C12610   2.198   0.860   6.811  0.5911  1.5538 -1.0935
  120OSM    C1212611   2.431   0.945   6.675 -0.0325  0.3507 -0.4202
  120OSM   H12A12612   2.418   1.019   6.753 -1.8225 -0.4438  0.0780
  120OSM   H12B12613   2.495   0.984   6.597  1.4840 -0.7523  0.2395
  120OSM    C1112614   2.530   0.841   6.734 -0.3003 -0.1593 -0.0536
  120OSM   H11A12615   2.482   0.785   6.817 -3.0010  1.9424 -0.1697
  120OSM   H11B12616   2.622   0.891   6.773  1.3054 -3.0941  0.0772
  120OSM      P12617   2.680   0.780   6.533  0.0128 -0.2632  0.3439
  120OSM    O1312618   2.646   0.753   6.392 -0.2620  0.0457  0.1741
  120OSM    O1412619   2.755   0.901   6.568 -0.1182 -0.6588  0.0782
  120OSM    O1112620   2.789   0.669   6.575  0.4664  0.2165 -0.0577
  120OSM    O1212621   2.564   0.749   6.636  0.1678 -0.5285 -0.1415
  120OSM    C1S12622   2.869   0.690   6.697 -0.4637 -0.0324  0.4799
  120OSM    H1S12623   2.900   0.795   6.716 -0.2673  0.0545 -0.2803
  120OSM    H1T12624   2.960   0.626   6.699  1.1154  2.0831 -0.5144
  120OSM     NF12625   2.884   0.677   6.937  0.4801 -0.1722  0.0116
  120OSM    HNF12626   2.959   0.616   6.965  0.9988  0.8513  0.8982
  120OSM    C2S12627   2.800   0.641   6.831 -0.2312 -0.0985  0.8693
  120OSM    H2S12628   2.702   0.694   6.833 -1.3171 -1.8246 -2.1525
  120OSM    C3S12629   2.768   0.487   6.827 -0.6630  0.3099 -0.6387
  120OSM    H3S12630   2.863   0.433   6.810 -0.0307  1.5044 -0.9584
  120OSM     O312631   2.689   0.444   6.717  0.5523  1.0489 -0.2184
  120OSM    HO312632   2.690   0.520   6.658 -0.5506  1.1609 -0.1120
  120OSM    C4S12633   2.699   0.437   6.963  0.1668 -0.0911 -0.1028
  120OSM    H4S12634   2.591   0.450   6.979  0.5510  0.3000  2.3324
  120OSM    C5S12635   2.764   0.360   7.054  0.2716  0.4546  1.0730
  120OSM    H5S12636   2.866   0.324   7.031  0.3096  1.9095 -1.0991
  120OSM    C6S12637   2.699   0.294   7.170  0.3557 -0.4126 -0.2920
  120OSM    H6S12638   2.696   0.183   7.173  0.9557 -0.4060  1.0625
  120OSM    H6T12639   2.590   0.314   7.175  0.7137  1.7373 -0.8029
  120OSM    C7S12640   2.765   0.335   7.305 -0.5029 -0.4662  0.1500
  120OSM    H7S12641   2.775   0.446   7.311 -0.8341 -0.4683  0.8067
  120OSM    H7T12642   2.871   0.305   7.308 -0.8321 -1.7630 -0.8695
  120OSM    C8S12643   2.677   0.297   7.423 -0.4619  0.0707  0.6737
  120OSM    H8S12644   2.646   0.190   7.419  0.7124 -0.3752  2.7691
  120OSM    H8T12645   2.588   0.363   7.410 -1.2451 -1.3985 -1.7371
  120OSM    C9S12646   2.744   0.317   7.553 -0.2756  0.3904  0.0780
  120OSM    H9S12647   2.803   0.411   7.550 -1.7376  1.3266  0.4428
  120OSM    H9T12648   2.820   0.237   7.564  1.1009  1.6024 -0.3701
  120OSM   C10S12649   2.653   0.303   7.671 -0.1641  0.4793 -0.3004
  120OSM   H10S12650   2.607   0.202   7.668  0.1317  0.3091  0.8078
  120OSM   H10T12651   2.562   0.367   7.675 -0.7845 -0.5019  1.7674
  120OSM   C11S12652   2.739   0.308   7.791 -0.2383 -0.6132  0.1414
  120OSM   H11S12653   2.795   0.404   7.795 -2.4699  0.8393 -1.7626
  120OSM   H11T12654   2.818   0.233   7.773 -0.7532 -0.8774 -1.1193
  120OSM   C12S12655   2.667   0.280   7.923  0.2090 -0.3759 -0.1634
  120OSM   H12S12656   2.616   0.182   7.909  1.4266 -0.9212 -0.8114
  120OSM   H12T12657   2.591   0.356   7.951  0.9945  0.7523 -1.0616
  120OSM   C13S12658   2.766   0.256   8.041  0.1604 -0.1067  1.1004
  120OSM   H13S12659   2.818   0.352   8.058  0.2846  0.2954 -1.3334
  120OSM   H13T12660   2.833   0.177   8.001 -0.7635  0.1992 -1.1160
  120OSM   C14S12661   2.704   0.199   8.168  0.0266 -0.0768 -0.3952
  120OSM   H14S12662   2.650   0.104   8.150  0.3233 -0.3143 -0.0337
  120OSM   H14T12663   2.624   0.269   8.201  0.8254  0.6045  0.1384
  120OSM   C15S12664   2.813   0.175   8.277  0.1940 -0.5090 -0.0371
  120OSM   H15S12665   2.862   0.271   8.306  3.1262 -2.1984  0.8536
  120OSM   H15T12666   2.890   0.104   8.240 -0.3624 -1.2633  0.2583
  120OSM   C16S12667   2.761   0.114   8.401  0.5134 -0.6043  0.6927
  120OSM   H16S12668   2.830   0.112   8.488  1.9637 -2.3232 -0.4551
  120OSM   H16T12669   2.735   0.007   8.386 -4.8688  0.6267  0.1082
  120OSM   C17S12670   2.627   0.174   8.443 -0.4984  0.2957  0.0646
  120OSM   H17S12671   2.552   0.101   8.406  1.1068 -0.3333 -1.9945
  120OSM   H17T12672   2.603   0.274   8.401 -2.6413  0.6270  1.9737
  120OSM   C18S12673   2.613   0.175   8.599  0.1140  0.2317 -0.3745
  120OSM   H18S12674   2.522   0.231   8.630 -0.7036 -1.8702  1.1315
  120OSM   H18T12675   2.691   0.228   8.658 -0.4360 -0.3257  0.8734
  120OSM   H18U12676   2.598   0.069   8.630 -2.5257  1.5163  3.0579
  120OSM    C1F12677   2.891   0.807   6.972 -0.5349  0.2257  0.8901
  120OSM     OF12678   2.810   0.886   6.926  0.0560 -0.0510  0.7176
  120OSM    C2F12679   2.999   0.855   7.062 -0.7101 -0.1512 -0.0416
  120OSM    H2F12680   3.076   0.907   7.001 -0.4571  1.9470  1.9801
  120OSM    H2G12681   3.054   0.769   7.105  1.1672  0.6358 -0.8087
  120OSM    C3F12682   2.936   0.951   7.168 -0.3190 -0.1240  0.3019
  120OSM    H3F12683   2.849   0.902   7.217 -0.3907  0.1717  0.4682
  120OSM    H3G12684   2.900   1.046   7.124  0.4253  0.0147 -0.0130
  120OSM    C4F12685   3.039   0.977   7.278 -0.2412  0.6292  0.1367
  120OSM    H4F12686   3.122   1.030   7.227 -0.2454 -0.4190 -0.9691
  120OSM    H4G12687   3.077   0.882   7.321  0.9104 -0.3526 -2.9333
  120OSM    C5F12688   2.992   1.061   7.399  1.0988  1.1075  0.2296
  120OSM    H5F12689   2.906   1.010   7.446  0.7492  2.6552  1.3271
  120OSM    H5G12690   2.970   1.163   7.360  3.3173  1.8409  0.8004
  120OSM    C6F12691   3.102   1.078   7.501  0.1935 -0.0022  0.9462
  120OSM    H6F12692   3.184   1.140   7.459 -1.6968  2.1111  0.2625
  120OSM    H6G12693   3.145   0.981   7.536  0.3248 -1.4233 -2.9151
  120OSM    C7F12694   3.065   1.144   7.632  0.7708 -0.1587  0.3774
  120OSM    H7F12695   3.046   1.249   7.601  1.9269 -1.1727 -4.0444
  120OSM    H7G12696   3.144   1.138   7.710  1.5517 -0.5926 -0.4367
  120OSM    C8F12697   2.935   1.099   7.704 -1.0732 -0.3628  0.1514
  120OSM    H8F12698   2.951   0.993   7.732  0.1208  0.0454  1.1028
  120OSM    H8G12699   2.852   1.112   7.631 -2.1386  0.0171  1.4138
  120OSM    C9F12700   2.904   1.179   7.824 -0.1981  0.2490 -0.4110
  120OSM    H9F12701   2.828   1.257   7.813  1.2080  1.6197 -0.5814
  120OSM   C10F12702   2.950   1.181   7.950 -0.0905 -0.2722  0.3185
  120OSM   H10F12703   2.917   1.262   8.018  3.4624  0.5432  1.1929
  120OSM   C11F12704   3.051   1.088   8.005  0.1064 -0.0009 -0.7197
  120OSM   H11F12705   3.152   1.135   8.006  0.0633  0.0841  0.5707
  120OSM   H11G12706   3.076   0.994   7.953  0.7197 -0.3255  0.1533
  120OSM   C12F12707   3.038   1.065   8.158 -0.4771  0.1650  0.4083
  120OSM   H12F12708   3.038   1.165   8.207 -1.3619  0.4315 -0.1022
  120OSM   H12G12709   3.129   1.022   8.203 -0.9872 -0.6864  0.6433
  120OSM   C13F12710   2.912   0.997   8.210 -0.3376 -0.1624 -0.4784
  120OSM   H13F12711   2.911   0.895   8.165  0.2261 -0.3121 -0.1521
  120OSM   H13G12712   2.826   1.053   8.168 -0.6237  0.3491  0.7651
  120OSM   C14F12713   2.901   0.981   8.364  0.0227 -0.0266 -0.3792
  120OSM   H14F12714   2.791   0.975   8.376  0.2019  0.1806  1.5395
  120OSM   H14G12715   2.940   1.071   8.417  2.9740 -0.8927 -0.9692
  120OSM   C15F12716   2.959   0.847   8.425  0.0277  0.3748  0.0875
  120OSM   H15F12717   3.068   0.839   8.403  0.6626  2.3851  2.2597
  120OSM   H15G12718   2.913   0.755   8.383  0.3981  0.2980 -0.1555
  120OSM   C16F12719   2.939   0.849   8.577  0.2759  0.8201  0.2231
  120OSM   H16F12720   2.831   0.852   8.601  0.6716  0.4411  2.1505
  120OSM   H16G12721   2.996   0.933   8.623 -1.1404  1.4465  0.8675
  120OSM   C17F12722   3.011   0.728   8.639 -0.5735 -0.2140 -1.0750
  120OSM   H17F12723   3.115   0.737   8.602  0.2822  0.7113  1.4763
  120OSM   H17G12724   2.975   0.633   8.593  2.0521 -0.8818 -1.8464
  120OSM   C18F12725   2.998   0.720   8.793  0.6639 -0.0526 -0.1042
  120OSM   H18F12726   2.896   0.757   8.814  0.3484 -0.8355 -0.2409
  120OSM   H18G12727   3.077   0.782   8.840 -2.3495  2.5540  1.7087
  120OSM   H18H12728   3.006   0.616   8.830 -0.1064  0.3384  1.1806
  121OSM      N12729   3.873   2.796   6.091  0.3127  0.2900 -0.7872
  121OSM    C1512730   3.801   2.702   5.995  0.2800 -0.7400 -0.8067
  121OSM   H15A12731   3.721   2.766   5.959 -0.2597 -0.4891  0.8014
  121OSM   H15B12732   3.745   2.624   6.044  0.8786 -1.2147 -0.8725
  121OSM   H15C12733   3.873   2.659   5.927 -0.8104 -2.5630 -0.8535
  121OSM    C1412734   3.952   2.900   6.016  0.6038 -0.3160  0.4335
  121OSM   H14A12735   4.038   2.844   5.982 -1.0170 -1.2327 -2.2667
  121OSM   H14B12736   3.977   2.974   6.091  2.3054  1.0561 -1.4344
  121OSM   H14C12737   3.899   2.942   5.932  1.8643 -1.7346 -1.1321
  121OSM    C1312738   3.773   2.864   6.178  0.6813 -0.1818 -0.6863
  121OSM   H13A12739   3.826   2.943   6.228  0.8771  0.0642 -1.2711
  121OSM   H13B12740   3.727   2.803   6.254  1.2392 -0.9366 -0.9394
  121OSM   H13C12741   3.700   2.889   6.102 -0.5548  0.7300  0.7843
  121OSM    C1212742   3.966   2.717   6.184 -0.4375  0.1293  0.0894
  121OSM   H12A12743   3.903   2.666   6.256  0.2943 -2.2213 -0.9100
  121OSM   H12B12744   4.028   2.782   6.243  1.8763 -1.3794 -0.6302
  121OSM    C1112745   4.054   2.611   6.113  0.3760 -0.5718 -0.0447
  121OSM   H11A12746   3.988   2.530   6.075  1.4098 -1.2172 -0.4976
  121OSM   H11B12747   4.112   2.549   6.186 -0.8554 -0.5305  0.9778
  121OSM      P12748   4.279   2.734   6.053  0.3445  0.3567 -0.6184
  121OSM    O1312749   4.398   2.658   6.030 -0.5140  0.5516  0.2735
  121OSM    O1412750   4.268   2.866   5.988  1.0951 -0.0388 -0.3486
  121OSM    O1112751   4.261   2.756   6.208 -0.1630  0.1332 -0.8381
  121OSM    O1212752   4.142   2.656   6.012  0.3424  0.6663  0.0854
  121OSM    C1S12753   4.333   2.678   6.301 -0.6476 -0.2106 -0.7462
  121OSM    H1S12754   4.436   2.659   6.263  0.0317 -0.2378  1.0536
  121OSM    H1T12755   4.284   2.580   6.319  0.3894 -0.8322 -1.3020
  121OSM     NF12756   4.420   2.658   6.533  0.2074 -0.8892  0.2156
  121OSM    HNF12757   4.375   2.594   6.594  0.4574 -2.6296 -1.3744
  121OSM    C2S12758   4.337   2.738   6.447 -0.6925 -0.3287  0.0530
  121OSM    H2S12759   4.387   2.837   6.442  1.5320 -1.3262  1.5259
  121OSM    C3S12760   4.198   2.764   6.504  0.0391  0.5996  0.2773
  121OSM    H3S12761   4.136   2.673   6.516 -0.7099  1.5876  5.0580
  121OSM     O312762   4.119   2.843   6.411 -0.5102 -0.8711 -0.3259
  121OSM    HO312763   4.168   2.852   6.329 -1.7924  0.8030 -0.9369
  121OSM    C4S12764   4.202   2.836   6.632 -0.0860 -0.2021  1.4406
  121OSM    H4S12765   4.209   2.946   6.624 -2.2543 -0.0250  1.6976
  121OSM    C5S12766   4.179   2.789   6.753  0.1485 -0.0321  0.1556
  121OSM    H5S12767   4.166   2.681   6.767 -0.4059  0.0843  0.5659
  121OSM    C6S12768   4.172   2.866   6.888  0.5396 -0.1672 -0.0110
  121OSM    H6S12769   4.087   2.824   6.945 -0.4628  1.0984 -0.5643
  121OSM    H6T12770   4.147   2.972   6.868 -0.6370  0.7471  5.4916
  121OSM    C7S12771   4.298   2.853   6.985  0.6837  0.0320 -0.0693
  121OSM    H7S12772   4.373   2.927   6.952  0.1932 -0.5119 -2.5571
  121OSM    H7T12773   4.330   2.746   6.981  0.3721 -0.0262 -1.0971
  121OSM    C8S12774   4.258   2.887   7.134 -0.1148  0.0927 -0.0651
  121OSM    H8S12775   4.219   2.798   7.188 -0.0545 -0.3299 -0.7194
  121OSM    H8T12776   4.188   2.974   7.129  0.3604  0.3385 -3.6439
  121OSM    C9S12777   4.380   2.919   7.221 -0.1715 -0.0235  0.5804
  121OSM    H9S12778   4.434   3.001   7.169  1.3573 -1.3460  0.0487
  121OSM    H9T12779   4.445   2.829   7.224 -0.0361  0.0941  1.1441
  121OSM   C10S12780   4.346   2.953   7.367 -1.1220  0.0416  0.6991
  121OSM   H10S12781   4.266   3.029   7.380 -0.5086  0.8274 -0.1585
  121OSM   H10T12782   4.436   2.997   7.414 -0.4225 -0.2100 -0.3955
  121OSM   C11S12783   4.309   2.829   7.451  0.2659 -1.2119  0.1199
  121OSM   H11S12784   4.391   2.755   7.442  1.6393  0.5743 -2.6303
  121OSM   H11T12785   4.213   2.787   7.412 -0.1027 -1.4569  1.2811
  121OSM   C12S12786   4.283   2.864   7.599  0.5794 -0.1203  0.4036
  121OSM   H12S12787   4.386   2.893   7.631 -0.0392  0.5062  1.8815
  121OSM   H12T12788   4.269   2.764   7.645  0.0602  0.6275  1.8901
  121OSM   C13S12789   4.176   2.961   7.628  0.7886 -0.4316 -0.2491
  121OSM   H13S12790   4.084   2.929   7.576  1.8925 -0.4993 -2.1855
  121OSM   H13T12791   4.204   3.064   7.597 -1.4629  0.1836 -0.3277
  121OSM   C14S12792   4.142   2.971   7.774  0.2314  0.8207  0.1548
  121OSM   H14S12793   4.109   2.874   7.816  1.2706  0.0884 -0.7091
  121OSM   H14T12794   4.050   3.027   7.801 -1.7136 -2.2438  0.0212
  121OSM   C15S12795   4.268   3.024   7.849 -0.8191  0.2875  0.2998
  121OSM   H15S12796   4.295   3.131   7.833  1.2664  0.0187  1.7463
  121OSM   H15T12797   4.358   2.963   7.824 -0.9639 -0.4477  1.5694
  121OSM   C16S12798   4.247   3.000   7.995  0.0792 -0.9579  0.5272
  121OSM   H16S12799   4.220   2.893   8.012  2.9879 -1.8093 -0.0690
  121OSM   H16T12800   4.165   3.058   8.043 -0.5975 -2.4685  1.2580
  121OSM   C17S12801   4.368   3.036   8.083  0.2744 -0.7273 -0.3184
  121OSM   H17S12802   4.405   3.132   8.040 -0.8159  1.3006  3.1182
  121OSM   H17T12803   4.444   2.959   8.056  0.6555 -0.2510 -0.6025
  121OSM   C18S12804   4.338   3.050   8.233  0.0588  0.0347  0.5609
  121OSM   H18S12805   4.272   3.139   8.244  0.5826  0.3921  0.8821
  121OSM   H18T12806   4.429   3.066   8.295 -0.0045 -3.6266  1.6769
  121OSM   H18U12807   4.283   2.959   8.264  0.2965 -0.2011  0.2886
  121OSM    C1F12808   4.547   2.624   6.516 -0.3022  0.4878  0.1397
  121OSM     OF12809   4.620   2.667   6.424 -0.2673 -0.3199  0.0942
  121OSM    C2F12810   4.601   2.527   6.613 -0.4901  0.3548 -0.5780
  121OSM    H2F12811   4.683   2.478   6.557 -1.8774 -3.6042  0.7079
  121OSM    H2G12812   4.519   2.454   6.632 -1.4267  1.7670  0.9784
  121OSM    C3F12813   4.636   2.588   6.752 -0.6323  0.1390  0.2123
  121OSM    H3F12814   4.699   2.511   6.802  0.2003  0.6467 -0.0439
  121OSM    H3G12815   4.546   2.598   6.816 -0.3766 -0.1759  0.6271
  121OSM    C4F12816   4.710   2.721   6.753 -0.3140 -0.7390 -0.1544
  121OSM    H4F12817   4.660   2.795   6.688  1.3596 -0.0194 -0.6469
  121OSM    H4G12818   4.808   2.694   6.707 -1.2795 -3.7968 -0.5286
  121OSM    C5F12819   4.713   2.784   6.898 -0.6164  0.0333 -1.1234
  121OSM    H5F12820   4.609   2.815   6.923  1.0121  2.7433  2.6422
  121OSM    H5G12821   4.775   2.876   6.893  2.7919 -2.0440  1.4825
  121OSM    C6F12822   4.786   2.696   7.003  0.2819  0.0509 -0.1840
  121OSM    H6F12823   4.874   2.651   6.953 -1.0701 -1.2924 -1.4050
  121OSM    H6G12824   4.714   2.615   7.030  1.1912 -0.5489  0.4856
  121OSM    C7F12825   4.815   2.786   7.123 -0.1331 -0.1988 -0.0659
  121OSM    H7F12826   4.732   2.856   7.147 -0.1197 -0.1783 -0.0797
  121OSM    H7G12827   4.897   2.859   7.109  0.9788 -1.6694 -1.4463
  121OSM    C8F12828   4.844   2.712   7.258  0.2966  0.0401  0.6757
  121OSM    H8F12829   4.853   2.797   7.330  2.3837 -0.5151  1.1105
  121OSM    H8G12830   4.937   2.652   7.256 -1.1664 -2.2524 -1.7653
  121OSM    C9F12831   4.723   2.633   7.302  0.2791 -0.1262  0.2429
  121OSM    H9F12832   4.663   2.594   7.219  2.4546  1.1018 -1.9817
  121OSM   C10F12833   4.686   2.607   7.429 -0.0677  0.2483 -0.0668
  121OSM   H10F12834   4.585   2.567   7.443  0.1878 -0.8457 -1.2722
  121OSM   C11F12835   4.753   2.641   7.557  0.1072 -0.3439  0.5406
  121OSM   H11F12836   4.858   2.671   7.536 -0.7800  1.5690 -1.3593
  121OSM   H11G12837   4.757   2.544   7.612  0.3309 -1.0234 -0.6378
  121OSM   C12F12838   4.689   2.747   7.648  0.4981 -0.3238  0.1898
  121OSM   H12F12839   4.586   2.712   7.670  0.0396  1.5695  1.1624
  121OSM   H12G12840   4.674   2.850   7.609 -0.9954 -0.7941 -0.4987
  121OSM   C13F12841   4.773   2.751   7.779 -0.5064  0.3373 -0.2265
  121OSM   H13F12842   4.883   2.761   7.762 -0.3407  0.7613  1.0230
  121OSM   H13G12843   4.750   2.661   7.839 -1.3056  0.7338  0.0671
  121OSM   C14F12844   4.722   2.869   7.861  0.9770  0.3909 -0.6252
  121OSM   H14F12845   4.617   2.853   7.894  0.3443  0.5918 -2.4980
  121OSM   H14G12846   4.722   2.957   7.794 -3.1725 -0.0293 -1.3321
  121OSM   C15F12847   4.815   2.888   7.988  0.1583  0.3919  0.0229
  121OSM   H15F12848   4.913   2.918   7.946  1.2714 -1.1403  1.4864
  121OSM   H15G12849   4.828   2.789   8.037  2.6622  1.2062  1.0515
  121OSM   C16F12850   4.762   3.002   8.074 -0.4144 -0.0747 -0.2323
  121OSM   H16F12851   4.834   3.038   8.150 -0.5340  1.6833 -0.9370
  121OSM   H16G12852   4.681   2.957   8.136 -0.0051 -0.2533  0.1770
  121OSM   C17F12853   4.708   3.126   8.013 -0.0632  0.4267 -0.8504
  121OSM   H17F12854   4.616   3.102   7.955  0.2428  0.3930 -1.3338
  121OSM   H17G12855   4.793   3.169   7.955  0.0652 -1.9255 -2.4938
  121OSM   C18F12856   4.671   3.232   8.118  0.4821  0.2155 -0.1273
  121OSM   H18F12857   4.589   3.201   8.187  0.0520 -0.3775 -0.9038
  121OSM   H18G12858   4.636   3.321   8.063 -1.0732  1.0065  2.0539
  121OSM   H18H12859   4.751   3.267   8.187 -0.9532  1.0869  1.1383
  122OSM      N12860   3.533   4.123   5.925 -0.5031 -0.1777  0.2594
  122OSM    C1512861   3.487   4.107   6.065 -0.0546 -0.6387 -0.1300
  122OSM   H15A12862   3.450   4.202   6.098 -2.1585 -1.6120  0.3958
  122OSM   H15B12863   3.569   4.078   6.129 -0.7632  1.3759  1.7430
  122OSM   H15C12864   3.407   4.037   6.086 -0.3164 -0.5802 -0.9006
  122OSM    C1412865   3.671   4.175   5.929  0.2039 -0.0105  0.7342
  122OSM   H14A12866   3.663   4.275   5.968  0.6435  0.6547 -0.8509
  122OSM   H14B12867   3.718   4.182   5.832 -2.8800 -1.6837 -0.9728
  122OSM   H14C12868   3.732   4.113   5.995  0.1608 -0.3038  0.4973
  122OSM    C1312869   3.533   3.986   5.858 -0.0690  0.3408  0.7780
  122OSM   H13A12870   3.569   3.924   5.938 -2.5436  0.5653  2.0970
  122OSM   H13B12871   3.593   3.987   5.768 -2.2003  1.1840 -0.6814
  122OSM   H13C12872   3.438   3.943   5.829  0.1373  0.2816  0.1833
  122OSM    C1212873   3.435   4.209   5.842 -0.2372  1.0368 -0.1745
  122OSM   H12A12874   3.331   4.182   5.855 -0.0732 -0.9025 -2.4616
  122OSM   H12B12875   3.460   4.192   5.738  2.8028  0.3163  0.6256
  122OSM    C1112876   3.425   4.361   5.874 -0.1714 -0.2679  0.5553
  122OSM   H11A12877   3.371   4.410   5.790  0.5629  0.6759  0.6288
  122OSM   H11B12878   3.526   4.407   5.870 -0.4648  0.3402 -0.1033
  122OSM      P12879   3.214   4.352   6.026  0.5567  0.1144 -0.1505
  122OSM    O1312880   3.141   4.468   5.967 -0.0289  0.4501  0.3943
  122OSM    O1412881   3.174   4.225   5.963 -0.7749 -0.0437 -0.4330
  122OSM    O1112882   3.203   4.346   6.178 -0.3365  0.3399  0.0198
  122OSM    O1212883   3.366   4.377   6.004 -0.1152  0.0963  0.2312
  122OSM    C1S12884   3.246   4.456   6.263 -0.2133  0.0381  0.3132
  122OSM    H1S12885   3.228   4.553   6.212  0.5614  0.8745  1.6056
  122OSM    H1T12886   3.357   4.458   6.273 -0.0558 -0.2129 -1.1782
  122OSM     NF12887   3.238   4.584   6.473  0.4433  0.4367 -0.5007
  122OSM    HNF12888   3.326   4.563   6.515 -0.5799 -4.2526 -0.4695
  122OSM    C2S12889   3.183   4.460   6.412  0.1701  0.2383 -0.3610
  122OSM    H2S12890   3.072   4.469   6.402  0.1290  3.1285  2.0090
  122OSM    C3S12891   3.209   4.338   6.498 -0.4777  0.1361 -0.3725
  122OSM    H3S12892   3.316   4.335   6.524 -0.7612 -1.9434  0.6976
  122OSM     O312893   3.177   4.217   6.425  0.0223  0.0979  0.0936
  122OSM    HO312894   3.160   4.248   6.336  4.0175  1.8595 -0.1621
  122OSM    C4S12895   3.133   4.348   6.621  0.9933 -0.4857 -0.6307
  122OSM    H4S12896   3.190   4.391   6.705  0.0400 -0.5297  0.0536
  122OSM    C5S12897   3.005   4.329   6.640 -0.0908 -0.0068 -0.0030
  122OSM    H5S12898   2.950   4.308   6.547 -0.9667  0.6471  0.3605
  122OSM    C6S12899   2.934   4.361   6.771 -0.4806  0.4609  0.0510
  122OSM    H6S12900   2.848   4.292   6.783  2.3011 -3.8490 -3.3410
  122OSM    H6T12901   2.882   4.459   6.761 -1.7835 -0.2240 -0.0799
  122OSM    C7S12902   3.011   4.343   6.897 -0.1176 -0.1000  0.1769
  122OSM    H7S12903   3.098   4.412   6.902 -0.0702 -0.2440  1.4955
  122OSM    H7T12904   3.068   4.248   6.907  1.2794  0.8840  1.7739
  122OSM    C8S12905   2.923   4.364   7.015  0.5250  0.3311  0.1929
  122OSM    H8S12906   2.827   4.309   7.009  1.5359 -1.5640  1.2716
  122OSM    H8T12907   2.904   4.474   7.017  2.0493  0.6159  0.1314
  122OSM    C9S12908   2.990   4.324   7.150 -0.4301 -0.6877  0.1246
  122OSM    H9S12909   3.094   4.364   7.152  0.8372 -3.8929  3.1159
  122OSM    H9T12910   3.004   4.214   7.161  1.9710 -0.4214  0.0044
  122OSM   C10S12911   2.916   4.384   7.266  0.6634 -0.3867 -0.2778
  122OSM   H10S12912   2.823   4.325   7.284  0.2359 -0.2083 -1.7720
  122OSM   H10T12913   2.896   4.492   7.251  0.3340 -0.4387 -0.2262
  122OSM   C11S12914   3.004   4.360   7.387 -0.2311  0.3717  0.1101
  122OSM   H11S12915   3.100   4.414   7.374 -0.3866  0.6698  0.1877
  122OSM   H11T12916   3.030   4.253   7.402  0.1282  0.7111  2.0706
  122OSM   C12S12917   2.944   4.431   7.509  0.6828 -0.2751 -0.4262
  122OSM   H12S12918   2.861   4.368   7.548 -0.1627  1.6397  0.9974
  122OSM   H12T12919   2.908   4.530   7.473 -1.5070 -0.7542  0.3653
  122OSM   C13S12920   3.042   4.449   7.627  0.2433  0.1390 -0.2528
  122OSM   H13S12921   3.130   4.506   7.588  0.1097 -0.2013 -1.0689
  122OSM   H13T12922   3.072   4.355   7.677  0.7123 -0.1914 -1.1326
  122OSM   C14S12923   2.983   4.530   7.743  0.1754 -0.2233 -0.0713
  122OSM   H14S12924   2.914   4.467   7.802 -1.6794  0.8860 -1.0272
  122OSM   H14T12925   2.917   4.605   7.695  0.0565 -0.0226  0.4048
  122OSM   C15S12926   3.093   4.583   7.836  0.2057 -0.0294  1.3323
  122OSM   H15S12927   3.154   4.659   7.782 -0.4958  0.0011  0.5728
  122OSM   H15T12928   3.162   4.499   7.857  0.4902 -0.4013 -0.9518
  122OSM   C16S12929   3.027   4.630   7.968 -0.1815 -0.0730  0.0962
  122OSM   H16S12930   3.100   4.670   8.042 -0.4928 -0.8076  0.8158
  122OSM   H16T12931   2.980   4.542   8.018  0.3323 -0.2241  0.3193
  122OSM   C17S12932   2.920   4.731   7.945  0.2969 -0.1078 -0.1231
  122OSM   H17S12933   2.849   4.683   7.874  0.8812  0.4476 -1.0934
  122OSM   H17T12934   2.967   4.812   7.885  1.6799 -1.3511 -0.7433
  122OSM   C18S12935   2.861   4.793   8.068  0.3367 -0.2835  0.2217
  122OSM   H18S12936   2.929   4.857   8.127 -0.5587  1.4748 -0.6083
  122OSM   H18T12937   2.813   4.708   8.121 -1.0446  0.6629  0.4922
  122OSM   H18U12938   2.781   4.866   8.043 -0.8882 -1.5366  0.4244
  122OSM    C1F12939   3.189   4.704   6.453  0.3869 -0.3826  0.4345
  122OSM     OF12940   3.085   4.723   6.391  0.7062  0.2489 -0.1612
  122OSM    C2F12941   3.268   4.818   6.503  0.6649 -0.7421 -0.1502
  122OSM    H2F12942   3.280   4.891   6.420  1.9760 -0.6466  0.1287
  122OSM    H2G12943   3.368   4.798   6.547  0.3019  0.4622  1.2703
  122OSM    C3F12944   3.198   4.894   6.619  0.2064  0.2261  0.3466
  122OSM    H3F12945   3.093   4.923   6.597  0.5200  1.5236  0.5444
  122OSM    H3G12946   3.260   4.984   6.638 -1.6871  1.7513 -0.4696
  122OSM    C4F12947   3.197   4.805   6.740  0.0593  0.0034  0.2384
  122OSM    H4F12948   3.304   4.790   6.763  0.2953  0.7302 -0.3791
  122OSM    H4G12949   3.170   4.698   6.727 -0.2313  0.0448  0.4831
  122OSM    C5F12950   3.125   4.858   6.865  0.5515  0.5210 -0.4803
  122OSM    H5F12951   3.019   4.886   6.844  0.5634  0.0727 -1.1522
  122OSM    H5G12952   3.179   4.947   6.903  0.3056 -0.3546  2.0256
  122OSM    C6F12953   3.127   4.750   6.981  0.1253  0.7369  0.1245
  122OSM    H6F12954   3.235   4.724   6.985 -0.4184 -1.8700 -1.3730
  122OSM    H6G12955   3.069   4.657   6.966  0.0464  1.0030 -1.2829
  122OSM    C7F12956   3.085   4.808   7.116 -0.4943  0.1516 -0.1736
  122OSM    H7F12957   2.976   4.826   7.128  0.0324  1.7169  2.5618
  122OSM    H7G12958   3.128   4.911   7.112 -0.1212 -0.0744 -3.9419
  122OSM    C8F12959   3.132   4.724   7.234 -0.2893  0.4278 -0.2179
  122OSM    H8F12960   3.239   4.740   7.261 -0.8381 -0.1846  2.4991
  122OSM    H8G12961   3.136   4.615   7.211  1.8937  0.0994  1.5345
  122OSM    C9F12962   3.058   4.743   7.359 -0.4818  0.3275 -0.0957
  122OSM    H9F12963   2.962   4.690   7.361 -0.7625  0.8814  2.0377
  122OSM   C10F12964   3.095   4.835   7.454  0.0335 -0.1392 -0.4178
  122OSM   H10F12965   3.034   4.845   7.545 -0.2527 -1.0560 -0.5050
  122OSM   C11F12966   3.212   4.934   7.443  0.1710 -0.3020 -0.2006
  122OSM   H11F12967   3.198   4.989   7.348  3.6258 -1.6952 -1.6056
  122OSM   H11G12968   3.308   4.876   7.437  0.2315 -0.7089  3.3403
  122OSM   C12F12969   3.231   5.031   7.561 -0.0866  0.1167  0.2425
  122OSM   H12F12970   3.138   5.092   7.570  0.4136  0.6748  1.7985
  122OSM   H12G12971   3.309   5.100   7.522 -0.8739  0.2840 -1.0922
  122OSM   C13F12972   3.272   4.972   7.698  0.1898 -0.1718 -0.4120
  122OSM   H13F12973   3.354   4.897   7.691 -1.4526 -2.0206 -0.3670
  122OSM   H13G12974   3.179   4.920   7.731  0.2410  1.0087  1.6476
  122OSM   C14F12975   3.319   5.083   7.799  0.3511 -0.1428 -0.0216
  122OSM   H14F12976   3.243   5.164   7.792  0.9555  0.3433 -1.1347
  122OSM   H14G12977   3.413   5.129   7.763  0.4894 -0.2793  0.1693
  122OSM   C15F12978   3.329   5.043   7.950 -0.1575 -0.4159 -0.1253
  122OSM   H15F12979   3.354   5.140   7.998  0.1119  0.9802 -2.9688
  122OSM   H15G12980   3.414   4.971   7.947 -1.7545 -2.2991 -1.0444
  122OSM   C16F12981   3.202   4.987   8.020  0.0126 -0.1530 -0.3095
  122OSM   H16F12982   3.161   4.920   7.942 -2.5206  0.7151  0.2096
  122OSM   H16G12983   3.135   5.071   8.050  0.2193 -0.2425  0.3902
  122OSM   C17F12984   3.228   4.917   8.154  0.0362 -0.0419 -0.5893
  122OSM   H17F12985   3.301   4.834   8.144 -0.2905 -0.9462  3.4997
  122OSM   H17G12986   3.131   4.875   8.190 -1.0249  3.5281  0.9867
  122OSM   C18F12987   3.277   5.021   8.262  0.2917  0.4390 -0.1755
  122OSM   H18F12988   3.326   4.963   8.344 -2.9140  0.5398  1.9248
  122OSM   H18G12989   3.191   5.080   8.301 -0.8155 -0.9269 -0.5218
  122OSM   H18H12990   3.354   5.091   8.224  1.7397 -1.9981 -1.8711
  123OSM      N12991   1.853   6.440   6.148 -0.7178  0.8041 -0.4297
  123OSM    C1512992   1.717   6.393   6.107  0.5985 -0.0494 -0.0062
  123OSM   H15A12993   1.691   6.443   6.015 -0.2075 -2.7852 -1.3184
  123OSM   H15B12994   1.642   6.428   6.176 -0.3939 -2.4471  0.1829
  123OSM   H15C12995   1.699   6.286   6.106 -1.5728  0.2923 -0.3685
  123OSM    C1412996   1.958   6.364   6.073 -0.4187  0.0997 -0.2563
  123OSM   H14A12997   1.958   6.380   5.966 -2.3205  1.6599 -0.0360
  123OSM   H14B12998   1.966   6.257   6.085 -0.7547 -0.0721 -1.5082
  123OSM   H14C12999   2.056   6.398   6.103  0.5941 -1.9553 -1.1190
  123OSM    C1313000   1.869   6.583   6.120 -0.1373 -0.1235  0.5557
  123OSM   H13A13001   1.840   6.605   6.018 -0.8203 -1.9214  0.3518
  123OSM   H13B13002   1.971   6.620   6.127 -0.3606  0.8955 -1.1642
  123OSM   H13C13003   1.807   6.643   6.184 -0.5707 -0.7866  0.7626
  123OSM    C1213004   1.879   6.418   6.295  0.3305  0.0199 -1.1625
  123OSM   H12A13005   1.982   6.445   6.315 -0.0582  0.4884  0.2703
  123OSM   H12B13006   1.861   6.314   6.320  2.0572  0.0878  0.5040
  123OSM    C1113007   1.797   6.499   6.405 -0.0654  0.7609  0.7989
  123OSM   H11A13008   1.812   6.604   6.375  2.2516  0.1956 -0.1197
  123OSM   H11B13009   1.841   6.479   6.506 -0.9242 -0.1695  0.9992
  123OSM      P13010   1.609   6.324   6.438  0.2051  0.0775  0.2174
  123OSM    O1313011   1.570   6.252   6.320  0.4127  0.1036  0.1413
  123OSM    O1413012   1.715   6.261   6.527  0.1686  0.4467 -0.2855
  123OSM    O1113013   1.480   6.351   6.531  0.2361 -0.4270 -0.0949
  123OSM    O1213014   1.656   6.470   6.399 -0.1896 -0.5746 -0.3492
  123OSM    C1S13015   1.497   6.447   6.634  0.3511  0.3035 -0.2646
  123OSM    H1S13016   1.514   6.551   6.599  0.3404 -0.2434 -1.9711
  123OSM    H1T13017   1.579   6.420   6.703  0.7079  1.6120 -0.1575
  123OSM     NF13018   1.391   6.545   6.833 -0.0851  0.2211  0.0404
  123OSM    HNF13019   1.434   6.511   6.917 -0.4298 -1.4265 -0.4526
  123OSM    C2S13020   1.366   6.450   6.723 -0.4224  0.7385 -0.4291
  123OSM    H2S13021   1.286   6.492   6.658  0.6744  0.0644 -2.2364
  123OSM    C3S13022   1.344   6.303   6.774 -0.0464  0.1068 -0.0008
  123OSM    H3S13023   1.437   6.260   6.816 -0.9170  0.3991  2.3388
  123OSM     O313024   1.299   6.215   6.676  0.9186  0.2133  0.1488
  123OSM    HO313025   1.331   6.264   6.600  2.4531  2.5608  2.2529
  123OSM    C4S13026   1.247   6.302   6.891  0.8446  0.1777  0.3762
  123OSM    H4S13027   1.142   6.328   6.874  1.6231  1.1360 -3.5017
  123OSM    C5S13028   1.295   6.273   7.016 -0.7700 -0.4855 -0.0614
  123OSM    H5S13029   1.395   6.235   7.043 -0.8829 -0.1383  0.8534
  123OSM    C6S13030   1.209   6.279   7.143 -0.0078 -0.4396  0.7045
  123OSM    H6S13031   1.144   6.191   7.160  0.0356 -0.7013 -0.5037
  123OSM    H6T13032   1.145   6.369   7.130 -0.6049 -0.9202  0.3553
  123OSM    C7S13033   1.290   6.292   7.270 -0.1030 -0.2078  0.6245
  123OSM    H7S13034   1.355   6.382   7.267 -1.6378  1.0110  2.8691
  123OSM    H7T13035   1.360   6.207   7.267  1.0309  0.7320 -0.1822
  123OSM    C8S13036   1.209   6.296   7.409 -0.2529  0.7677  0.0556
  123OSM    H8S13037   1.272   6.298   7.500  2.2426  1.4091 -1.6161
  123OSM    H8T13038   1.143   6.207   7.418  2.0365 -0.9108  0.7165
  123OSM    C9S13039   1.110   6.419   7.420  0.2173 -0.1219 -0.2145
  123OSM    H9S13040   1.009   6.380   7.394  0.5095 -1.2915  0.3703
  123OSM    H9T13041   1.154   6.498   7.355 -1.2261  0.5726 -0.3824
  123OSM   C10S13042   1.107   6.476   7.567 -0.1417  0.2727  0.3934
  123OSM   H10S13043   1.033   6.559   7.557 -1.7995 -0.9862  1.9720
  123OSM   H10T13044   1.207   6.519   7.589 -0.0930 -0.4789  1.6894
  123OSM   C11S13045   1.058   6.383   7.678  0.1456 -0.7684 -0.5628
  123OSM   H11S13046   1.120   6.291   7.670  0.2503 -0.6437 -1.2494
  123OSM   H11T13047   0.957   6.344   7.653 -0.7358  1.2434 -0.2434
  123OSM   C12S13048   1.051   6.439   7.822  0.0227 -0.0754 -0.4738
  123OSM   H12S13049   0.964   6.507   7.835 -0.3215 -0.9404  2.0664
  123OSM   H12T13050   1.148   6.487   7.847  1.0952 -2.0239 -0.7911
  123OSM   C13S13051   1.018   6.326   7.917 -0.1757 -0.4565  0.2022
  123OSM   H13S13052   1.096   6.250   7.895  0.0805 -0.5908  1.5564
  123OSM   H13T13053   0.924   6.289   7.872 -0.0937 -0.4688  0.0377
  123OSM   C14S13054   1.009   6.378   8.061 -0.3589 -0.0327 -0.1121
  123OSM   H14S13055   0.933   6.458   8.071 -1.7834 -1.4627  0.7207
  123OSM   H14T13056   1.111   6.415   8.087 -1.1488  0.4447  2.4670
  123OSM   C15S13057   0.966   6.272   8.160  0.1630 -0.5350 -0.3979
  123OSM   H15S13058   1.047   6.197   8.169  0.5389  0.1165  2.1113
  123OSM   H15T13059   0.870   6.231   8.121  0.9123 -1.7972 -0.9435
  123OSM   C16S13060   0.946   6.318   8.311  0.4209  0.5734  0.0199
  123OSM   H16S13061   0.860   6.387   8.313  0.8281  1.0551  1.1466
  123OSM   H16T13062   1.044   6.367   8.331  0.2615  1.1119 -0.4927
  123OSM   C17S13063   0.920   6.196   8.408 -0.2620  0.1538  0.5680
  123OSM   H17S13064   1.015   6.138   8.412  0.3152  0.9275 -1.2937
  123OSM   H17T13065   0.833   6.133   8.384 -0.1685 -0.1806  1.0918
  123OSM   C18S13066   0.893   6.248   8.549 -0.1634 -0.3993  0.0610
  123OSM   H18S13067   0.987   6.279   8.601 -0.4543  1.0054 -0.2360
  123OSM   H18T13068   0.861   6.159   8.609 -0.0301 -1.9330 -2.1048
  123OSM   H18U13069   0.813   6.324   8.543 -1.8304 -2.0990  0.2459
  123OSM    C1F13070   1.373   6.679   6.811 -0.1446  0.3750  0.1186
  123OSM     OF13071   1.322   6.725   6.705 -0.3039 -0.0553 -0.2213
  123OSM    C2F13072   1.422   6.766   6.921  0.2707  0.1355  0.5580
  123OSM    H2F13073   1.530   6.790   6.910  0.6305 -2.2101 -1.4484
  123OSM    H2G13074   1.405   6.720   7.021  0.1134  0.5479  0.7218
  123OSM    C3F13075   1.345   6.896   6.926  0.2960 -0.3589  0.1603
  123OSM    H3F13076   1.334   6.960   6.835 -1.1139 -1.2747 -0.3198
  123OSM    H3G13077   1.412   6.956   6.992  1.8523 -0.8681 -0.9203
  123OSM    C4F13078   1.196   6.880   6.980  0.1270  0.1935  0.8115
  123OSM    H4F13079   1.138   6.818   6.909 -1.0651  1.3943  0.7271
  123OSM    H4G13080   1.141   6.976   6.991  2.7838  1.7799  0.9049
  123OSM    C5F13081   1.188   6.813   7.116  0.0470 -0.2897 -0.5059
  123OSM    H5F13082   1.245   6.883   7.180 -1.0371  0.4609 -0.3507
  123OSM    H5G13083   1.232   6.711   7.124  1.7472  0.5839  1.8591
  123OSM    C6F13084   1.042   6.796   7.164 -0.0754 -0.1984  0.0789
  123OSM    H6F13085   1.012   6.692   7.137  1.1553 -0.1174 -1.6881
  123OSM    H6G13086   0.974   6.869   7.115  0.5871  0.8239  0.6761
  123OSM    C7F13087   1.025   6.795   7.315 -0.4630 -0.0351  0.3805
  123OSM    H7F13088   1.019   6.902   7.344 -0.9791  0.3768 -1.2066
  123OSM    H7G13089   1.118   6.767   7.368  0.0190 -1.8636 -1.3448
  123OSM    C8F13090   0.898   6.725   7.370  0.0722 -0.4104 -0.0234
  123OSM    H8F13091   0.896   6.721   7.481  0.1136  0.5923  0.0186
  123OSM    H8G13092   0.906   6.618   7.345  0.3439 -0.4020  0.0257
  123OSM    C9F13093   0.772   6.783   7.309 -0.7292 -0.5395  0.1636
  123OSM    H9F13094   0.782   6.798   7.200  1.0319  0.3588  0.4162
  123OSM   C10F13095   0.672   6.830   7.386 -0.6483  0.1590  0.1769
  123OSM   H10F13096   0.581   6.864   7.333 -0.2736  0.5089 -0.2486
  123OSM   C11F13097   0.668   6.815   7.535 -0.0130  0.2865  0.0182
  123OSM   H11F13098   0.590   6.878   7.582  1.3920  1.6569  0.5788
  123OSM   H11G13099   0.763   6.855   7.578 -0.1782 -0.6376  1.2589
  123OSM   C12F13100   0.638   6.672   7.579  0.8901 -0.0822  0.0649
  123OSM   H12F13101   0.705   6.594   7.536  0.0447  1.8019 -5.1515
  123OSM   H12G13102   0.539   6.651   7.533  1.9627  2.2662 -3.5637
  123OSM   C13F13103   0.639   6.658   7.731  0.0877 -0.4968 -0.0598
  123OSM   H13F13104   0.567   6.725   7.782 -0.9425 -0.7892 -1.0959
  123OSM   H13G13105   0.741   6.686   7.765 -0.4994  1.6573 -0.0481
  123OSM   C14F13106   0.616   6.510   7.779  0.5069  0.5500  0.2446
  123OSM   H14F13107   0.684   6.452   7.713  0.0665 -1.4023  1.4430
  123OSM   H14G13108   0.510   6.487   7.751  0.0595  3.3503 -0.4531
  123OSM   C15F13109   0.652   6.497   7.928  0.1977  0.4351  0.7632
  123OSM   H15F13110   0.614   6.579   7.993  1.3628  1.6081 -0.0057
  123OSM   H15G13111   0.761   6.500   7.944  0.4877 -0.7145 -0.8550
  123OSM   C16F13112   0.602   6.370   8.002  0.4411  0.0106  0.5511
  123OSM   H16F13113   0.639   6.370   8.107  0.7726  3.1976  0.4935
  123OSM   H16G13114   0.635   6.280   7.947 -2.8042  0.9749 -3.2221
  123OSM   C17F13115   0.455   6.357   8.000 -0.6028  0.2540 -0.1645
  123OSM   H17F13116   0.416   6.347   7.896  3.2175  0.1360 -1.6515
  123OSM   H17G13117   0.402   6.450   8.029 -0.8272  0.6186 -1.6830
  123OSM   C18F13118   0.402   6.248   8.099  0.9297  0.1634  0.2293
  123OSM   H18F13119   0.412   6.147   8.053 -0.0472 -0.0128  0.3840
  123OSM   H18G13120   0.295   6.259   8.126  0.7967 -0.8555  0.1513
  123OSM   H18H13121   0.459   6.244   8.194 -2.4996  0.4593  2.3816
  124OSM      N13122   1.317   2.861   6.235 -0.1286  0.2199 -0.3954
  124OSM    C1513123   1.225   2.753   6.277  0.8717  0.3309 -0.1557
  124OSM   H15A13124   1.220   2.735   6.384  2.7807  1.7304  0.1835
  124OSM   H15B13125   1.265   2.665   6.228 -0.2196 -0.0018 -0.4630
  124OSM   H15C13126   1.126   2.784   6.247 -1.4273 -2.4698  4.0285
  124OSM    C1413127   1.310   2.878   6.083 -0.1193 -0.0290  0.2670
  124OSM   H14A13128   1.220   2.924   6.045  1.6429  1.1441 -2.6137
  124OSM   H14B13129   1.333   2.790   6.025  1.4190  0.2984  0.3809
  124OSM   H14C13130   1.383   2.955   6.066  0.2327 -0.2412  0.7970
  124OSM    C1313131   1.269   2.993   6.301  0.6812 -0.0849 -0.0572
  124OSM   H13A13132   1.179   3.021   6.248  0.7471  0.7427  0.2581
  124OSM   H13B13133   1.338   3.074   6.288  1.2796 -0.1815  2.2360
  124OSM   H13C13134   1.257   2.979   6.408  0.5776  2.1897  0.2546
  124OSM    C1213135   1.454   2.817   6.287 -0.4798  0.0461 -0.7374
  124OSM   H12A13136   1.501   2.763   6.207 -2.5686 -0.2097 -1.8054
  124OSM   H12B13137   1.445   2.754   6.374 -0.1339  1.3514  0.2743
  124OSM    C1113138   1.557   2.928   6.316 -0.9325 -0.2390  0.6768
  124OSM   H11A13139   1.639   2.871   6.366  0.4840 -0.5036 -1.8468
  124OSM   H11B13140   1.525   3.010   6.384 -1.1806 -0.8201  1.2691
  124OSM      P13141   1.730   2.921   6.117 -0.1611  0.0865 -0.2935
  124OSM    O1313142   1.705   2.782   6.081  0.6061  0.3822 -0.5522
  124OSM    O1413143   1.777   3.001   6.004 -0.9568 -0.4483  0.4138
  124OSM    O1113144   1.835   2.920   6.233  0.2088  0.4556  0.2027
  124OSM    O1213145   1.597   2.977   6.190 -0.1204 -0.0370 -0.3778
  124OSM    C1S13146   1.870   3.042   6.302  0.3362 -0.1838 -0.2114
  124OSM    H1S13147   1.779   3.092   6.340 -1.0650 -1.5800 -1.6702
  124OSM    H1T13148   1.936   3.107   6.239 -1.2767  1.1013 -0.5946
  124OSM     NF13149   1.937   3.114   6.519  0.1717 -0.1128 -0.0868
  124OSM    HNF13150   2.010   3.180   6.507 -0.0837 -0.0427 -1.3214
  124OSM    C2S13151   1.937   2.999   6.432  0.4021 -0.1325 -0.1116
  124OSM    H2S13152   1.878   2.920   6.483  0.2980  0.5047  0.7509
  124OSM    C3S13153   2.076   2.930   6.400  0.8627  0.0794 -0.3221
  124OSM    H3S13154   2.126   3.006   6.337  0.1326  0.5854 -0.3079
  124OSM     O313155   2.068   2.813   6.319  0.0565 -0.0375 -0.1326
  124OSM    HO313156   1.985   2.830   6.273 -0.7181 -0.4605  1.0833
  124OSM    C4S13157   2.147   2.903   6.527  0.0873 -0.1299 -0.4083
  124OSM    H4S13158   2.077   2.877   6.608 -3.4940  1.6097 -2.8097
  124OSM    C5S13159   2.277   2.907   6.551  0.2546 -0.5735 -0.3683
  124OSM    H5S13160   2.344   2.950   6.476  0.9101 -1.3391 -0.2308
  124OSM    C6S13161   2.345   2.882   6.685 -0.5410  0.9176 -0.0578
  124OSM    H6S13162   2.435   2.822   6.662 -0.9127  0.2554  0.1948
  124OSM    H6T13163   2.285   2.814   6.750  1.1684 -1.8362 -1.2661
  124OSM    C7S13164   2.393   3.011   6.756 -1.2028  0.0500 -0.2278
  124OSM    H7S13165   2.314   3.087   6.773 -1.5996 -0.4594  0.2223
  124OSM    H7T13166   2.467   3.054   6.686  0.6146  0.7195  2.0311
  124OSM    C8S13167   2.479   2.993   6.885  0.0520 -0.2363 -0.4081
  124OSM    H8S13168   2.545   3.082   6.892  0.0791 -0.1092 -1.9889
  124OSM    H8T13169   2.551   2.910   6.870  0.9047  0.3311  0.5506
  124OSM    C9S13170   2.396   2.967   7.012 -0.8287 -0.3348 -0.0533
  124OSM    H9S13171   2.334   2.876   6.996  0.6557 -1.8190  2.2746
  124OSM    H9T13172   2.324   3.046   7.042 -1.4260  0.1171 -2.6327
  124OSM   C10S13173   2.479   2.945   7.140 -1.0379  0.5667  0.0127
  124OSM   H10S13174   2.571   2.887   7.115 -1.8785 -1.6704  1.9498
  124OSM   H10T13175   2.417   2.876   7.202 -2.7032  1.3175 -0.7959
  124OSM   C11S13176   2.506   3.062   7.232  0.3718 -0.4001  0.3599
  124OSM   H11S13177   2.428   3.141   7.231  0.4712 -0.3000  0.4760
  124OSM   H11T13178   2.588   3.118   7.182  0.0083  0.6400  0.9200
  124OSM   C12S13179   2.543   3.019   7.376  0.0917 -0.2818  0.4147
  124OSM   H12S13180   2.622   2.941   7.372  1.4787  1.2167 -2.6522
  124OSM   H12T13181   2.461   2.977   7.438  0.7420  2.6611  3.4533
  124OSM   C13S13182   2.604   3.129   7.467  0.8202  0.2732 -0.1421
  124OSM   H13S13183   2.560   3.229   7.445  0.5043  0.0622 -0.4712
  124OSM   H13T13184   2.714   3.136   7.453  0.7027  0.9649 -0.7541
  124OSM   C14S13185   2.590   3.111   7.614 -0.0793 -0.4404 -0.5700
  124OSM   H14S13186   2.652   3.188   7.665 -0.8099  0.6151 -1.2481
  124OSM   H14T13187   2.627   3.010   7.641  0.0771 -0.0290  0.7764
  124OSM   C15S13188   2.448   3.131   7.670  0.1877  0.0303 -0.4800
  124OSM   H15S13189   2.392   3.040   7.640 -0.6513  0.0472  1.0052
  124OSM   H15T13190   2.404   3.228   7.642 -1.7081 -0.2008  1.5615
  124OSM   C16S13191   2.454   3.126   7.824 -0.8948  0.0375 -0.0245
  124OSM   H16S13192   2.507   3.220   7.852 -0.0653  0.0646 -1.6551
  124OSM   H16T13193   2.511   3.039   7.863  0.8915  0.6750 -1.1430
  124OSM   C17S13194   2.312   3.117   7.891  0.6048  0.4494  0.4092
  124OSM   H17S13195   2.332   3.118   8.000  0.1392 -0.6878  0.5101
  124OSM   H17T13196   2.269   3.016   7.875 -0.4361  0.7172  1.4915
  124OSM   C18S13197   2.216   3.231   7.855  0.5360 -0.3342 -0.1654
  124OSM   H18S13198   2.264   3.330   7.873 -1.8793  1.6261 -3.9531
  124OSM   H18T13199   2.131   3.218   7.925 -0.1998 -0.0835 -1.0174
  124OSM   H18U13200   2.170   3.233   7.754  1.0843 -2.0329 -0.4770
  124OSM    C1F13201   1.828   3.145   6.580  0.7233  0.1708 -0.4168
  124OSM     OF13202   1.725   3.079   6.580  0.1764  0.1413 -0.0365
  124OSM    C2F13203   1.841   3.267   6.665  0.2067  0.3656 -0.0836
  124OSM    H2F13204   1.788   3.353   6.619  2.1534  0.7222 -1.7222
  124OSM    H2G13205   1.950   3.288   6.675  0.4028 -1.5338  2.2247
  124OSM    C3F13206   1.755   3.237   6.792  0.0504 -0.4475  0.1593
  124OSM    H3F13207   1.763   3.132   6.828 -1.4733 -1.5295 -2.5180
  124OSM    H3G13208   1.647   3.251   6.773  0.5597  2.6382 -0.6218
  124OSM    C4F13209   1.798   3.327   6.900  0.3230  0.4505 -0.0181
  124OSM    H4F13210   1.786   3.435   6.878  0.9115  0.7217  0.9623
  124OSM    H4G13211   1.906   3.308   6.920  0.2741  0.7148  0.5084
  124OSM    C5F13212   1.706   3.319   7.027 -0.6975  0.3065 -0.4163
  124OSM    H5F13213   1.704   3.220   7.077  1.6424  0.6413  0.4084
  124OSM    H5G13214   1.604   3.340   6.988 -0.4935 -0.3465 -1.3336
  124OSM    C6F13215   1.748   3.417   7.134 -0.1204 -0.3027  0.4997
  124OSM    H6F13216   1.737   3.514   7.081  0.7036 -0.7284 -0.4616
  124OSM    H6G13217   1.850   3.384   7.164  0.4418 -0.3638 -1.3961
  124OSM    C7F13218   1.664   3.410   7.257  0.0759  1.2766 -0.5945
  124OSM    H7F13219   1.726   3.466   7.331 -0.2224  1.2857 -0.3517
  124OSM    H7G13220   1.656   3.302   7.284  1.0555  0.8680 -1.9080
  124OSM    C8F13221   1.525   3.476   7.256 -0.4419 -0.0985 -0.0794
  124OSM    H8F13222   1.438   3.407   7.247 -1.6634  1.3141  0.5948
  124OSM    H8G13223   1.534   3.530   7.159 -0.3007  0.8976  0.4861
  124OSM    C9F13224   1.514   3.587   7.361 -0.3483  0.2476 -0.4222
  124OSM    H9F13225   1.560   3.681   7.329  2.8781 -0.5481  1.5935
  124OSM   C10F13226   1.453   3.577   7.479  0.0180  1.2271 -0.3654
  124OSM   H10F13227   1.458   3.657   7.555  0.0408 -0.2060  1.1935
  124OSM   C11F13228   1.374   3.456   7.530 -0.2021  0.3377 -0.4907
  124OSM   H11F13229   1.349   3.379   7.454  1.7585 -2.2269  1.3541
  124OSM   H11G13230   1.272   3.490   7.558  1.3687  1.5269  4.2338
  124OSM   C12F13231   1.431   3.395   7.659 -0.0694  0.4297 -0.3428
  124OSM   H12F13232   1.533   3.353   7.640 -1.1561 -1.8485 -1.3376
  124OSM   H12G13233   1.375   3.301   7.679  0.6232 -0.1917 -1.2424
  124OSM   C13F13234   1.429   3.495   7.775 -0.0476  0.0269  0.0165
  124OSM   H13F13235   1.340   3.561   7.778 -0.2173 -0.1856 -0.2615
  124OSM   H13G13236   1.517   3.563   7.771 -1.2415  1.6894  1.2052
  124OSM   C14F13237   1.416   3.423   7.907 -0.3648  0.5839 -0.3822
  124OSM   H14F13238   1.513   3.377   7.934 -0.7573  0.3022  0.5654
  124OSM   H14G13239   1.334   3.349   7.893  0.5571 -0.1510 -1.9833
  124OSM   C15F13240   1.380   3.531   8.013  0.6456  0.0301  0.6474
  124OSM   H15F13241   1.276   3.558   7.986  0.5889 -0.2742  0.5493
  124OSM   H15G13242   1.452   3.615   8.007 -2.2531  2.4114 -3.0301
  124OSM   C16F13243   1.388   3.482   8.155  0.2042 -0.5541  0.6947
  124OSM   H16F13244   1.351   3.378   8.166  1.4389 -1.0547  0.1124
  124OSM   H16G13245   1.327   3.539   8.228  2.9616  1.1861  1.7117
  124OSM   C17F13246   1.528   3.489   8.212  0.0006  0.2746 -1.0593
  124OSM   H17F13247   1.532   3.598   8.234  1.3543  0.1110 -0.4262
  124OSM   H17G13248   1.607   3.458   8.140  0.8596 -1.8857  0.7550
  124OSM   C18F13249   1.536   3.413   8.346  0.4037 -0.2270 -0.1054
  124OSM   H18F13250   1.641   3.378   8.357  0.8394  1.0108 -0.1851
  124OSM   H18G13251   1.461   3.332   8.353  0.4413 -0.2271  0.2904
  124OSM   H18H13252   1.506   3.486   8.424 -4.3660  0.2704 -2.2482
  125OSM      N13253   5.482   1.853   6.036  0.3373 -0.3860  0.1407
  125OSM    C1513254   5.608   1.768   6.015 -0.1726  0.0456  0.3754
  125OSM   H15A13255   5.657   1.774   5.919 -1.1875 -0.0959 -0.1690
  125OSM   H15B13256   5.589   1.664   6.037 -1.4089  0.0795 -0.4622
  125OSM   H15C13257   5.692   1.807   6.070 -1.2878  0.1202  2.0617
  125OSM    C1413258   5.513   1.996   6.001 -0.0932 -0.2588 -0.3891
  125OSM   H14A13259   5.534   2.002   5.896 -2.0732 -0.3662 -0.8146
  125OSM   H14B13260   5.598   2.032   6.058  1.7723 -2.4922 -1.6844
  125OSM   H14C13261   5.428   2.055   6.032  0.4248  1.4947 -2.2978
  125OSM    C1313262   5.374   1.806   5.938 -0.0871  0.5839 -0.0818
  125OSM   H13A13263   5.398   1.834   5.837 -2.0582  3.1160  0.0892
  125OSM   H13B13264   5.281   1.858   5.957  0.1302  1.4978 -1.4432
  125OSM   H13C13265   5.355   1.700   5.939  1.5168  0.2489 -1.5811
  125OSM    C1213266   5.442   1.836   6.179 -0.7490  0.0196  0.1093
  125OSM   H12A13267   5.527   1.859   6.242 -0.6099 -3.0418  1.1477
  125OSM   H12B13268   5.414   1.733   6.196  1.0445 -0.2494  1.5810
  125OSM    C1113269   5.320   1.919   6.217  0.5066 -0.0668  0.4949
  125OSM   H11A13270   5.316   2.023   6.180 -0.6716 -0.2184  0.1645
  125OSM   H11B13271   5.319   1.923   6.328  0.3474  1.1729  0.4502
  125OSM      P13272   5.067   1.903   6.174 -0.4129 -0.1884  0.0269
  125OSM    O1313273   5.057   2.002   6.061  0.4821 -0.2681 -0.4389
  125OSM    O1413274   4.967   1.792   6.174  0.0132 -0.2315  0.3409
  125OSM    O1113275   5.066   1.977   6.309 -0.1144 -0.3792 -0.0882
  125OSM    O1213276   5.210   1.841   6.175  0.0471 -0.5672  1.4717
  125OSM    C1S13277   5.025   1.903   6.429 -0.3506 -0.3307 -0.6033
  125OSM    H1S13278   5.095   1.820   6.454 -0.1400  0.6118  2.0856
  125OSM    H1T13279   4.923   1.859   6.424 -0.0635 -1.4144  2.2289
  125OSM     NF13280   4.961   1.919   6.667 -0.1725  0.3377  0.2205
  125OSM    HNF13281   4.896   1.969   6.724  0.2918  1.5430 -0.2906
  125OSM    C2S13282   5.028   1.995   6.559 -0.7413  0.1631 -0.1304
  125OSM    H2S13283   5.133   2.014   6.591 -0.6168  1.0086 -1.0119
  125OSM    C3S13284   4.960   2.137   6.537  0.3316 -1.2321  1.1078
  125OSM    H3S13285   4.851   2.128   6.556  0.1779  0.1630  0.9662
  125OSM     O313286   4.965   2.193   6.405 -0.4504  0.0897  1.0623
  125OSM    HO313287   5.013   2.121   6.365 -0.3015  1.4012 -1.2351
  125OSM    C4S13288   5.013   2.230   6.640  0.7228  0.2183 -0.3447
  125OSM    H4S13289   5.122   2.231   6.656  0.9628  0.6455 -1.9268
  125OSM    C5S13290   4.935   2.315   6.718 -0.1909  0.0105 -0.0718
  125OSM    H5S13291   4.832   2.331   6.680 -0.6182 -1.1323  0.5940
  125OSM    C6S13292   4.985   2.426   6.814 -0.6103  0.5681  0.1101
  125OSM    H6S13293   4.937   2.403   6.912 -0.5557  0.5417  0.1312
  125OSM    H6T13294   4.949   2.520   6.767 -0.5142 -1.3096 -3.8443
  125OSM    C7S13295   5.134   2.434   6.838 -0.1771  0.1698 -0.2970
  125OSM    H7S13296   5.186   2.449   6.741 -1.0910 -1.1738 -1.0114
  125OSM    H7T13297   5.174   2.338   6.876  1.1845 -0.3869 -2.9830
  125OSM    C8S13298   5.189   2.538   6.942  0.1217 -0.1646 -0.7227
  125OSM    H8S13299   5.138   2.637   6.932  1.2362  0.4574 -0.3092
  125OSM    H8T13300   5.297   2.555   6.924  0.1805 -0.8467 -1.0366
  125OSM    C9S13301   5.169   2.484   7.086  0.2684 -0.0945  0.4883
  125OSM    H9S13302   5.204   2.379   7.079  0.5367 -0.0463  1.0619
  125OSM    H9T13303   5.061   2.485   7.112 -0.0753  0.1279 -0.8886
  125OSM   C10S13304   5.256   2.552   7.196  0.6254 -0.1750 -0.0799
  125OSM   H10S13305   5.257   2.662   7.177  0.7327 -0.0205  0.8240
  125OSM   H10T13306   5.361   2.523   7.178  0.2006 -2.2668  0.6914
  125OSM   C11S13307   5.224   2.517   7.339  0.0417  0.0549 -0.3860
  125OSM   H11S13308   5.221   2.407   7.350 -0.6433  0.0462 -0.6323
  125OSM   H11T13309   5.116   2.538   7.355 -0.0957  0.0400 -1.2698
  125OSM   C12S13310   5.298   2.593   7.446 -0.0083 -0.5012 -0.5566
  125OSM   H12S13311   5.282   2.703   7.443  1.3432 -0.2539  0.3867
  125OSM   H12T13312   5.408   2.580   7.442  0.1596  0.6032  0.0868
  125OSM   C13S13313   5.283   2.550   7.592  0.0000  0.2577 -0.2663
  125OSM   H13S13314   5.303   2.441   7.602 -2.0929 -0.2905 -1.7962
  125OSM   H13T13315   5.174   2.565   7.609  0.3108 -0.0256  2.0853
  125OSM   C14S13316   5.353   2.624   7.699 -0.1565 -0.3636  0.4658
  125OSM   H14S13317   5.360   2.734   7.679  0.8236 -0.6911 -1.1567
  125OSM   H14T13318   5.460   2.593   7.700  0.2162  0.8366 -0.1947
  125OSM   C15S13319   5.296   2.612   7.838  0.1117  0.2512  0.2691
  125OSM   H15S13320   5.205   2.675   7.851 -1.2826 -1.5944 -0.2748
  125OSM   H15T13321   5.365   2.657   7.912 -1.0308 -0.1700  1.6180
  125OSM   C16S13322   5.250   2.472   7.887 -0.2889 -0.3323  0.1464
  125OSM   H16S13323   5.328   2.394   7.875  0.5878  0.8250 -1.8959
  125OSM   H16T13324   5.178   2.440   7.808 -1.3423  4.0720 -0.8012
  125OSM   C17S13325   5.181   2.465   8.026  0.1302  0.2548  1.2313
  125OSM   H17S13326   5.132   2.367   8.047  1.1953 -0.0575  2.3405
  125OSM   H17T13327   5.104   2.544   8.031 -0.6582 -0.4259  0.1301
  125OSM   C18S13328   5.282   2.478   8.142  0.2093  0.0822  0.0182
  125OSM   H18S13329   5.228   2.458   8.238  0.2314 -0.6000 -0.1072
  125OSM   H18T13330   5.347   2.568   8.150  1.4048 -0.8113  0.5544
  125OSM   H18U13331   5.359   2.399   8.131 -1.9291 -2.1001  0.0365
  125OSM    C1F13332   4.987   1.796   6.707 -0.1165  0.4583 -0.0560
  125OSM     OF13333   5.077   1.731   6.650  0.1508 -0.2839  0.5029
  125OSM    C2F13334   4.921   1.747   6.835 -0.4883  0.1928 -0.0926
  125OSM    H2F13335   4.811   1.762   6.836 -0.8108 -1.9518 -0.8080
  125OSM    H2G13336   4.979   1.800   6.914 -1.4966 -1.1041  1.5654
  125OSM    C3F13337   4.946   1.589   6.842 -0.1230 -0.4932  0.1693
  125OSM    H3F13338   5.057   1.578   6.833 -0.1362  1.0559 -2.3754
  125OSM    H3G13339   4.904   1.532   6.756  1.4591 -1.6282  0.1239
  125OSM    C4F13340   4.884   1.531   6.969 -0.4613 -0.0570 -0.1288
  125OSM    H4F13341   4.895   1.421   6.979 -3.5805 -0.2817  1.4093
  125OSM    H4G13342   4.774   1.549   6.964 -0.3501  1.2459  1.6048
  125OSM    C5F13343   4.945   1.598   7.096 -0.1636 -0.4020  0.3569
  125OSM    H5F13344   4.936   1.708   7.110  1.6995 -0.5813  3.3741
  125OSM    H5G13345   5.054   1.583   7.080 -0.5524 -2.1649 -0.8009
  125OSM    C6F13346   4.896   1.538   7.229  0.3498  0.4831 -1.1314
  125OSM    H6F13347   4.881   1.429   7.210 -0.5561  0.4812 -0.4123
  125OSM    H6G13348   4.798   1.582   7.260  0.2765 -0.0924 -0.5310
  125OSM    C7F13349   4.998   1.573   7.340 -0.1712  0.2298  0.1437
  125OSM    H7F13350   4.981   1.682   7.359 -0.2799 -0.0064  1.4661
  125OSM    H7G13351   5.099   1.546   7.303 -0.3796  1.1932 -1.1391
  125OSM    C8F13352   4.961   1.495   7.473  0.1716 -0.4579  0.1088
  125OSM    H8F13353   4.972   1.386   7.454  0.0453 -0.2807 -0.9731
  125OSM    H8G13354   4.856   1.513   7.506  1.1936  1.6311  2.3697
  125OSM    C9F13355   5.052   1.522   7.583 -0.0332  0.3621 -0.0709
  125OSM    H9F13356   5.158   1.501   7.562 -0.3545 -0.6467 -0.7122
  125OSM   C10F13357   5.021   1.580   7.702  0.6730  0.2970  0.4443
  125OSM   H10F13358   5.102   1.588   7.776  2.3228 -1.5674 -1.1148
  125OSM   C11F13359   4.882   1.623   7.752  0.3576 -1.1254 -0.0526
  125OSM   H11F13360   4.797   1.561   7.719  0.4787 -2.1044  1.4076
  125OSM   H11G13361   4.865   1.723   7.707  1.8449 -0.8505 -0.0345
  125OSM   C12F13362   4.884   1.626   7.907  0.8631  0.4017 -0.0461
  125OSM   H12F13363   4.970   1.692   7.935 -0.6198  2.4432 -0.1768
  125OSM   H12G13364   4.896   1.522   7.944  0.9730  0.0377 -1.0959
  125OSM   C13F13365   4.750   1.683   7.966 -0.6142  0.2301 -0.0932
  125OSM   H13F13366   4.671   1.616   7.925  0.3423 -0.3025 -1.0831
  125OSM   H13G13367   4.721   1.783   7.927 -3.1139 -0.5440 -0.3354
  125OSM   C14F13368   4.742   1.670   8.123 -0.2081 -0.5731 -0.2980
  125OSM   H14F13369   4.825   1.731   8.164 -1.4586  2.0008 -1.5179
  125OSM   H14G13370   4.747   1.563   8.152 -1.5258 -0.5342  0.1199
  125OSM   C15F13371   4.600   1.712   8.172  0.1342 -0.1278  0.0887
  125OSM   H15F13372   4.519   1.657   8.121 -0.5385  0.4294  0.5473
  125OSM   H15G13373   4.585   1.822   8.160  0.4429  0.3739  3.6987
  125OSM   C16F13374   4.571   1.690   8.321  0.5768  0.2165  0.2921
  125OSM   H16F13375   4.472   1.733   8.345  0.2468 -0.3977  0.0411
  125OSM   H16G13376   4.651   1.741   8.379  1.3856 -2.0878  1.2421
  125OSM   C17F13377   4.585   1.547   8.365  0.3174  0.8289 -0.3625
  125OSM   H17F13378   4.663   1.486   8.314  0.4658 -1.6451  2.7074
  125OSM   H17G13379   4.488   1.504   8.331  0.9273 -0.0077 -1.0427
  125OSM   C18F13380   4.599   1.544   8.522  0.2313 -0.3775 -0.1347
  125OSM   H18F13381   4.702   1.579   8.544  0.0591  1.1556 -1.5983
  125OSM   H18G13382   4.587   1.445   8.570 -1.5502  0.9404  2.2157
  125OSM   H18H13383   4.521   1.605   8.572 -0.0247 -1.7537  1.1662
  126OSM      N13384   2.581   6.082   6.439  0.2369  0.0856 -0.8936
  126OSM    C1513385   2.614   6.226   6.423  0.1106 -0.1733  0.0194
  126OSM   H15A13386   2.698   6.256   6.485 -0.2547  0.7061  0.1005
  126OSM   H15B13387   2.529   6.279   6.463 -0.0640  0.0699 -0.6746
  126OSM   H15C13388   2.639   6.246   6.320 -2.2644 -1.7244 -0.8778
  126OSM    C1413389   2.467   6.054   6.345  0.2762 -0.3383 -0.3122
  126OSM   H14A13390   2.472   6.112   6.254  0.4147  2.3927  1.3467
  126OSM   H14B13391   2.374   6.081   6.392  0.3204 -1.9623  0.7569
  126OSM   H14C13392   2.461   5.948   6.326  1.7897 -0.4901 -0.0570
  126OSM    C1313393   2.700   5.994   6.389 -0.1504 -1.0663  0.6742
  126OSM   H13A13394   2.692   5.895   6.431 -1.7799 -0.6268  1.4440
  126OSM   H13B13395   2.790   6.035   6.432  0.5975 -1.5072 -0.4401
  126OSM   H13C13396   2.711   5.990   6.281 -1.7231  1.2709  0.3750
  126OSM    C1213397   2.554   6.051   6.589  0.0227 -0.5885  0.3014
  126OSM   H12A13398   2.651   6.048   6.636 -0.1965 -0.3555  0.7691
  126OSM   H12B13399   2.504   5.955   6.592  0.3570 -0.7372  1.3242
  126OSM    C1113400   2.463   6.148   6.668  0.5760  0.8207  0.3864
  126OSM   H11A13401   2.516   6.246   6.672  1.2412  0.4326  1.1170
  126OSM   H11B13402   2.447   6.125   6.775 -1.0648 -0.2282 -0.0685
  126OSM      P13403   2.248   6.281   6.610  0.2865 -0.3607 -0.1936
  126OSM    O1313404   2.299   6.384   6.518  0.3517  0.0822 -0.2801
  126OSM    O1413405   2.116   6.223   6.575 -0.9711 -0.2714  0.3845
  126OSM    O1113406   2.255   6.335   6.759 -0.0007  0.0129 -0.2641
  126OSM    O1213407   2.341   6.157   6.606  0.9734  0.9688 -0.1700
  126OSM    C1S13408   2.176   6.268   6.859  0.4068  0.6713  0.0487
  126OSM    H1S13409   2.181   6.157   6.851 -0.2262  0.5398  1.3374
  126OSM    H1T13410   2.071   6.304   6.860  0.2936  0.3401  0.3539
  126OSM     NF13411   2.153   6.249   7.114 -0.8913  0.8081 -0.0654
  126OSM    HNF13412   2.100   6.307   7.176  0.6447  0.6193  1.4755
  126OSM    C2S13413   2.220   6.311   7.006 -0.2561 -0.2141  0.4779
  126OSM    H2S13414   2.330   6.306   7.012 -0.1913 -0.7453 -0.8236
  126OSM    C3S13415   2.198   6.467   7.016  0.7227  0.5518  0.2464
  126OSM    H3S13416   2.089   6.490   7.014  0.5763 -0.1998 -0.8070
  126OSM     O313417   2.249   6.542   6.906  0.2225  0.0248  0.4701
  126OSM    HO313418   2.266   6.470   6.845 -2.1304 -0.2600  0.1043
  126OSM    C4S13419   2.264   6.521   7.143 -0.1876 -0.9540  0.3836
  126OSM    H4S13420   2.367   6.482   7.156  1.1244  1.4178 -2.4223
  126OSM    C5S13421   2.199   6.597   7.234  0.4320  0.0496 -0.2099
  126OSM    H5S13422   2.095   6.625   7.211 -0.3071 -1.5622  1.0796
  126OSM    C6S13423   2.246   6.657   7.368  0.3982  0.1844  0.9790
  126OSM    H6S13424   2.153   6.691   7.417 -0.6773  2.7155 -2.5814
  126OSM    H6T13425   2.293   6.756   7.349  1.1474 -0.6972 -2.1506
  126OSM    C7S13426   2.326   6.560   7.451  0.4429  0.7932 -0.2573
  126OSM    H7S13427   2.426   6.553   7.404  0.3261 -1.9243 -0.1958
  126OSM    H7T13428   2.292   6.455   7.448  1.0086  0.6523 -2.5027
  126OSM    C8S13429   2.338   6.620   7.593  0.1532 -0.8663 -0.3682
  126OSM    H8S13430   2.239   6.628   7.644 -0.1813  1.1668 -1.2716
  126OSM    H8T13431   2.369   6.725   7.572  1.1045 -0.4397  2.8238
  126OSM    C9S13432   2.426   6.548   7.696 -0.3259 -0.0410  0.6669
  126OSM    H9S13433   2.525   6.513   7.658 -1.4553 -0.2187 -2.2263
  126OSM    H9T13434   2.378   6.451   7.725  0.3466 -0.6711 -0.2997
  126OSM   C10S13435   2.461   6.632   7.819  0.1142 -0.4975  0.5031
  126OSM   H10S13436   2.362   6.667   7.855  1.2667 -1.3868  4.8782
  126OSM   H10T13437   2.517   6.724   7.792  0.4939 -0.2762  2.0189
  126OSM   C11S13438   2.538   6.559   7.929  0.2099 -0.1589 -0.8895
  126OSM   H11S13439   2.621   6.498   7.887  0.0392 -1.7123  0.9642
  126OSM   H11T13440   2.466   6.486   7.972  0.4398 -0.6592 -1.3600
  126OSM   C12S13441   2.588   6.650   8.044 -0.7460 -0.1199 -0.2867
  126OSM   H12S13442   2.504   6.710   8.085  0.3084  2.6988 -2.0672
  126OSM   H12T13443   2.653   6.730   8.000  0.2088  0.0142  1.3156
  126OSM   C13S13444   2.675   6.576   8.149  0.1473  0.1231 -0.0629
  126OSM   H13S13445   2.766   6.638   8.160 -0.1307  0.5412 -0.0856
  126OSM   H13T13446   2.707   6.484   8.095 -1.7349 -1.0299  0.7305
  126OSM   C14S13447   2.596   6.538   8.274 -0.6530 -0.0503 -1.1151
  126OSM   H14S13448   2.516   6.465   8.248 -0.1105 -1.3979  0.8981
  126OSM   H14T13449   2.553   6.631   8.318 -1.2836 -1.1260  0.5574
  126OSM   C15S13450   2.687   6.484   8.394 -0.5412  0.0899 -0.7032
  126OSM   H15S13451   2.740   6.567   8.446 -2.5672  0.5595  0.6682
  126OSM   H15T13452   2.758   6.416   8.341 -1.2586 -0.7719 -0.5729
  126OSM   C16S13453   2.612   6.402   8.499  0.0681  0.0371  0.3449
  126OSM   H16S13454   2.552   6.324   8.448  0.4801 -0.5112  0.6927
  126OSM   H16T13455   2.543   6.469   8.556 -3.1552 -2.1604 -0.7844
  126OSM   C17S13456   2.710   6.330   8.590 -0.4386  0.8629  0.6004
  126OSM   H17S13457   2.762   6.409   8.649  0.1800  1.0433 -0.1623
  126OSM   H17T13458   2.784   6.287   8.519 -0.9334 -0.1410  0.6910
  126OSM   C18S13459   2.642   6.225   8.682  0.0969  0.0240 -0.0911
  126OSM   H18S13460   2.576   6.171   8.613 -2.7682  1.0012  1.8032
  126OSM   H18T13461   2.570   6.279   8.747 -1.7761 -0.9547 -1.3270
  126OSM   H18U13462   2.713   6.161   8.740  0.2783 -0.2518 -0.6164
  126OSM    C1F13463   2.151   6.120   7.137 -0.4186  0.0568 -0.3768
  126OSM     OF13464   2.221   6.050   7.071  0.1033 -0.5567  0.0455
  126OSM    C2F13465   2.061   6.062   7.248 -0.1205 -0.3137  0.6898
  126OSM    H2F13466   1.955   6.090   7.228  0.0113 -1.6664 -2.2458
  126OSM    H2G13467   2.078   6.118   7.342  0.7172 -1.9761  1.5649
  126OSM    C3F13468   2.083   5.909   7.268 -0.2313 -0.0149 -0.2101
  126OSM    H3F13469   2.192   5.894   7.280  0.0691  2.0854 -0.1751
  126OSM    H3G13470   2.062   5.846   7.179  2.9386  0.5411 -1.4052
  126OSM    C4F13471   2.006   5.865   7.396  0.2031 -0.0771 -0.3920
  126OSM    H4F13472   2.017   5.755   7.412  1.3694 -0.2819 -2.3947
  126OSM    H4G13473   1.898   5.884   7.385 -0.2484 -2.7586 -0.9996
  126OSM    C5F13474   2.043   5.926   7.538 -0.5656  0.3624  0.0263
  126OSM    H5F13475   2.022   6.035   7.533 -0.9138  0.1928 -2.9231
  126OSM    H5G13476   2.154   5.923   7.544 -0.4140 -0.4129 -2.5560
  126OSM    C6F13477   1.988   5.861   7.663 -0.6958 -0.1316  0.3869
  126OSM    H6F13478   2.065   5.795   7.706 -1.6487 -3.2155 -2.3968
  126OSM    H6G13479   1.909   5.785   7.643  1.8462 -1.6696 -4.6514
  126OSM    C7F13480   1.933   5.974   7.752  0.1208  0.2075  0.0164
  126OSM    H7F13481   1.871   6.051   7.702  2.8437  0.4887 -3.1240
  126OSM    H7G13482   2.014   6.046   7.776  1.1178 -0.8758 -0.0519
  126OSM    C8F13483   1.867   5.907   7.873  0.1337 -0.6523 -0.8482
  126OSM    H8F13484   1.951   5.849   7.917 -0.1544  0.4463  1.2702
  126OSM    H8G13485   1.790   5.836   7.838 -0.7818 -0.4253  0.6439
  126OSM    C9F13486   1.811   6.002   7.975  0.8884 -0.2004 -0.1994
  126OSM    H9F13487   1.744   6.083   7.942  2.0036 -0.0227 -2.0979
  126OSM   C10F13488   1.822   5.998   8.112 -0.0907  0.0531  0.0945
  126OSM   H10F13489   1.773   6.083   8.162 -0.0767 -0.3199  0.7455
  126OSM   C11F13490   1.905   5.901   8.191 -0.0296  0.4802  0.0848
  126OSM   H11F13491   1.974   5.849   8.121  0.8820 -0.5583  1.7233
  126OSM   H11G13492   1.834   5.824   8.228  0.5999  0.7840  1.9684
  126OSM   C12F13493   1.976   5.975   8.310 -0.6233 -0.2829  0.0569
  126OSM   H12F13494   1.975   5.912   8.402 -0.5092 -2.4771 -1.4188
  126OSM   H12G13495   1.929   6.070   8.343 -3.2337 -2.6060  3.4266
  126OSM   C13F13496   2.114   6.026   8.276 -0.4712 -0.0529  0.9706
  126OSM   H13F13497   2.091   6.118   8.218  0.3667 -0.7220 -0.4467
  126OSM   H13G13498   2.163   5.946   8.216 -0.7717  0.0856  0.5314
  126OSM   C14F13499   2.197   6.067   8.397 -0.7427  0.2258  0.3734
  126OSM   H14F13500   2.302   6.071   8.361 -0.9288  0.8552 -0.0975
  126OSM   H14G13501   2.199   5.987   8.474 -0.7047  0.2620  0.4083
  126OSM   C15F13502   2.174   6.200   8.465 -0.5328 -0.3175 -0.7993
  126OSM   H15F13503   2.071   6.194   8.507 -0.4141  1.6453 -0.1554
  126OSM   H15G13504   2.181   6.286   8.395 -1.6320  1.3629  1.0776
  126OSM   C16F13505   2.266   6.228   8.586 -0.2576 -0.5718 -0.2922
  126OSM   H16F13506   2.364   6.242   8.536  1.2429 -1.4281  2.2688
  126OSM   H16G13507   2.271   6.140   8.654 -1.4130 -1.1165 -0.9124
  126OSM   C17F13508   2.208   6.349   8.665  0.8333  0.0259  1.0267
  126OSM   H17F13509   2.104   6.320   8.692  0.0048 -0.9663 -2.9620
  126OSM   H17G13510   2.200   6.433   8.593 -3.3504  1.2797  2.7622
  126OSM   C18F13511   2.279   6.399   8.797  0.0320  0.3876 -0.1531
  126OSM   H18F13512   2.226   6.486   8.842 -1.2072  0.2425 -1.2789
  126OSM   H18G13513   2.378   6.438   8.767 -0.4045  0.6790 -1.2379
  126OSM   H18H13514   2.286   6.316   8.870 -0.1245 -0.5083 -1.1420
  127OSM      N13515   0.336   0.873   6.302  0.5864 -0.0734  0.1101
  127OSM    C1513516   0.334   0.726   6.281 -0.5912 -0.5288 -0.0348
  127OSM   H15A13517   0.417   0.686   6.336  0.9129  2.9632  0.4043
  127OSM   H15B13518   0.347   0.713   6.174 -1.3022  0.0111 -0.1962
  127OSM   H15C13519   0.241   0.677   6.306 -1.8600  1.8011 -0.0171
  127OSM    C1413520   0.215   0.933   6.241 -0.2129 -0.0227  0.6968
  127OSM   H14A13521   0.129   0.889   6.289 -0.7777  0.4131  0.1022
  127OSM   H14B13522   0.198   0.908   6.138  0.6239 -0.9058  0.7673
  127OSM   H14C13523   0.212   1.041   6.245 -2.0954 -0.0318  0.3424
  127OSM    C1313524   0.338   0.909   6.446 -0.2573 -0.2424 -0.5601
  127OSM   H13A13525   0.429   0.875   6.492 -0.7976  1.5104  1.8880
  127OSM   H13B13526   0.262   0.859   6.505 -1.0749  0.6491 -0.8422
  127OSM   H13C13527   0.321   1.013   6.466 -1.4957 -0.3023 -1.2178
  127OSM    C1213528   0.460   0.930   6.239 -0.1384 -0.6146  0.2353
  127OSM   H12A13529   0.450   1.037   6.240 -1.5231 -0.7127  3.1028
  127OSM   H12B13530   0.459   0.916   6.132 -0.3434  1.7534 -0.0967
  127OSM    C1113531   0.604   0.897   6.289  0.2481  0.3312 -0.1806
  127OSM   H11A13532   0.617   0.950   6.386 -0.8177  1.6967 -0.7515
  127OSM   H11B13533   0.666   0.951   6.214 -0.6156 -0.4342 -1.4633
  127OSM      P13534   0.716   0.666   6.372 -0.1650 -0.4477  0.4881
  127OSM    O1313535   0.676   0.528   6.345 -0.0645  0.2061  0.6969
  127OSM    O1413536   0.852   0.710   6.329 -0.5325  0.3708  0.4282
  127OSM    O1113537   0.681   0.700   6.521  0.3036 -0.0567 -0.5811
  127OSM    O1213538   0.621   0.758   6.289 -0.2843  0.4308 -0.5502
  127OSM    C1S13539   0.587   0.627   6.592  0.3546  0.0752 -0.7182
  127OSM    H1S13540   0.592   0.518   6.574  0.9628  0.5340 -3.6090
  127OSM    H1T13541   0.486   0.657   6.555  0.1352  0.8987  0.5227
  127OSM     NF13542   0.505   0.592   6.817 -0.7048  0.0521 -0.0283
  127OSM    HNF13543   0.435   0.638   6.872  0.3411  0.1505  1.2324
  127OSM    C2S13544   0.602   0.667   6.736  0.3033 -0.2870 -0.0613
  127OSM    H2S13545   0.706   0.635   6.759  0.3568 -0.7876 -0.9608
  127OSM    C3S13546   0.592   0.818   6.757 -0.1290  0.0423  0.0031
  127OSM    H3S13547   0.487   0.842   6.730 -0.5807 -0.1061  1.5953
  127OSM     O313548   0.670   0.894   6.667 -0.1837 -0.1744  0.7312
  127OSM    HO313549   0.697   0.834   6.597 -3.5053 -1.0918  0.1558
  127OSM    C4S13550   0.619   0.846   6.899  0.0091 -0.6889 -0.0162
  127OSM    H4S13551   0.528   0.841   6.962 -0.0286 -0.5302 -0.0579
  127OSM    C5S13552   0.739   0.886   6.953  0.2968  0.7746  0.4569
  127OSM    H5S13553   0.826   0.900   6.887  1.2306 -0.2800  1.4629
  127OSM    C6S13554   0.748   0.909   7.106 -0.2973  0.6606  0.2072
  127OSM    H6S13555   0.766   1.014   7.136 -0.3468  0.7867 -0.2099
  127OSM    H6T13556   0.842   0.865   7.145 -0.9064 -0.7663  0.1360
  127OSM    C7S13557   0.631   0.861   7.190  0.2145 -0.3937  0.8718
  127OSM    H7S13558   0.611   0.753   7.174  0.7611 -0.6117  1.6151
  127OSM    H7T13559   0.540   0.911   7.153  0.9675 -0.4191 -1.1043
  127OSM    C8S13560   0.653   0.878   7.340  0.0676 -0.3882 -0.1837
  127OSM    H8S13561   0.558   0.868   7.397 -0.6062 -3.1574 -1.6826
  127OSM    H8T13562   0.684   0.984   7.350 -1.8303  0.3973 -1.9901
  127OSM    C9S13563   0.756   0.788   7.413 -0.7844 -0.1465 -0.3517
  127OSM    H9S13564   0.858   0.804   7.373  0.3002 -1.5438  1.7671
  127OSM    H9T13565   0.736   0.680   7.401  2.3137 -0.8822  0.6735
  127OSM   C10S13566   0.755   0.808   7.565  0.1983 -0.0626  0.0865
  127OSM   H10S13567   0.651   0.829   7.599 -0.7085 -2.4202 -1.0682
  127OSM   H10T13568   0.811   0.899   7.593 -1.4945  1.5576 -1.5826
  127OSM   C11S13569   0.805   0.686   7.651 -0.1732  0.6495  0.0638
  127OSM   H11S13570   0.901   0.643   7.615 -0.4461 -1.3491  1.6563
  127OSM   H11T13571   0.734   0.601   7.647  1.6003 -0.7973 -2.1678
  127OSM   C12S13572   0.825   0.726   7.795 -0.0562  0.0412 -0.2806
  127OSM   H12S13573   0.894   0.811   7.814 -0.8011  0.8362 -1.0477
  127OSM   H12T13574   0.872   0.640   7.847 -1.7659  0.2158  1.6272
  127OSM   C13S13575   0.692   0.746   7.875 -0.7282 -0.0919 -0.5699
  127OSM   H13S13576   0.606   0.722   7.809  0.0788 -0.0177 -1.6611
  127OSM   H13T13577   0.687   0.857   7.888 -1.1194 -0.3156  1.3910
  127OSM   C14S13578   0.695   0.672   8.004 -0.3221  0.0428  1.0422
  127OSM   H14S13579   0.782   0.710   8.062 -0.6238  1.5947  0.4905
  127OSM   H14T13580   0.700   0.563   7.985  1.8136 -0.0691  2.0885
  127OSM   C15S13581   0.577   0.689   8.105  0.2408  0.5099 -0.3729
  127OSM   H15S13582   0.483   0.646   8.065 -0.2338 -1.3644  2.6104
  127OSM   H15T13583   0.557   0.798   8.116 -1.8835  0.1996 -1.0193
  127OSM   C16S13584   0.611   0.630   8.239 -0.5795  0.1351 -0.8958
  127OSM   H16S13585   0.617   0.718   8.306 -1.2304 -0.8324  0.4485
  127OSM   H16T13586   0.717   0.599   8.234 -0.1689  1.1703  1.1320
  127OSM   C17S13587   0.531   0.515   8.284 -0.4499 -0.4161  0.1837
  127OSM   H17S13588   0.530   0.434   8.207 -0.0028  0.5677 -0.8728
  127OSM   H17T13589   0.427   0.550   8.300  0.1743  0.2186  3.1064
  127OSM   C18S13590   0.570   0.455   8.415 -0.0735 -0.3617  0.2908
  127OSM   H18S13591   0.586   0.540   8.485 -0.1300 -0.6869  0.7013
  127OSM   H18T13592   0.667   0.404   8.395  0.1567 -0.4031  1.4719
  127OSM   H18U13593   0.492   0.388   8.456 -0.1492 -2.0108 -2.4494
  127OSM    C1F13594   0.505   0.461   6.832 -0.6073 -0.0642 -0.5160
  127OSM     OF13595   0.605   0.396   6.801  0.1330 -0.1039 -0.4966
  127OSM    C2F13596   0.378   0.399   6.883 -0.4563  1.2557 -1.0785
  127OSM    H2F13597   0.318   0.375   6.793 -0.2963  1.6711 -1.2999
  127OSM    H2G13598   0.317   0.474   6.939 -2.4602  0.1998 -1.7960
  127OSM    C3F13599   0.410   0.276   6.967  0.5421 -0.3499 -0.1726
  127OSM    H3F13600   0.495   0.304   7.032  1.3016  3.3609 -2.5883
  127OSM    H3G13601   0.433   0.191   6.900 -0.9384 -2.2193  1.6235
  127OSM    C4F13602   0.292   0.223   7.063  0.1043  0.7061  0.0414
  127OSM    H4F13603   0.209   0.185   7.000 -0.8609  2.9579 -0.0529
  127OSM    H4G13604   0.262   0.310   7.124  0.3033  1.8368 -1.4556
  127OSM    C5F13605   0.350   0.119   7.165  0.3418  0.2270  0.3284
  127OSM    H5F13606   0.435   0.159   7.224  1.1662 -2.3539  0.9577
  127OSM    H5G13607   0.382   0.029   7.109 -0.3453  0.7804 -0.9715
  127OSM    C6F13608   0.237   0.078   7.272  0.5898  0.0997 -0.6210
  127OSM    H6F13609   0.154   0.020   7.227 -1.0139  0.1421  2.1790
  127OSM    H6G13610   0.200   0.179   7.304 -2.6386 -1.0030 -0.6367
  127OSM    C7F13611   0.294   0.010   7.387 -0.1841  0.8819 -0.3164
  127OSM    H7F13612   0.391   0.061   7.401 -0.3716  0.7796  1.4862
  127OSM    H7G13613   0.319  -0.095   7.360  0.6392  1.0872 -0.3532
  127OSM    C8F13614   0.211   0.021   7.513  0.2871  0.3117 -0.1041
  127OSM    H8F13615   0.114  -0.032   7.498  0.6727 -1.0927  2.1639
  127OSM    H8G13616   0.174   0.123   7.535 -0.6468 -0.1527  0.5084
  127OSM    C9F13617   0.295  -0.033   7.623  0.0369 -0.0367 -1.6341
  127OSM    H9F13618   0.377   0.032   7.658 -0.6828  1.2526 -2.2817
  127OSM   C10F13619   0.280  -0.154   7.677  1.0029 -0.3296 -0.3798
  127OSM   H10F13620   0.350  -0.183   7.756 -0.6768  3.3578  2.6137
  127OSM   C11F13621   0.180  -0.261   7.637  0.1562 -0.1822 -0.6096
  127OSM   H11F13622   0.224  -0.301   7.543  2.4720  1.5803 -0.2936
  127OSM   H11G13623   0.073  -0.229   7.631  0.4484  0.8802 -0.2390
  127OSM   C12F13624   0.189  -0.387   7.729  0.0043 -0.2671  1.1802
  127OSM   H12F13625   0.156  -0.361   7.832 -0.3686 -1.1793  1.2952
  127OSM   H12G13626   0.297  -0.414   7.733  0.3406  1.1311  2.2132
  127OSM   C13F13627   0.103  -0.507   7.685 -1.1604 -0.0978 -0.7442
  127OSM   H13F13628   0.141  -0.546   7.588  4.4289  0.3743  1.0753
  127OSM   H13G13629  -0.004  -0.477   7.678 -0.8588  1.3986  0.9512
  127OSM   C14F13630   0.101  -0.629   7.788 -0.1284 -0.0367 -0.0908
  127OSM   H14F13631   0.208  -0.651   7.809 -0.0207 -0.1546 -0.7504
  127OSM   H14G13632   0.048  -0.718   7.746  0.7823 -0.2367 -0.8416
  127OSM   C15F13633   0.032  -0.601   7.923  0.9351  0.1704 -0.0599
  127OSM   H15F13634  -0.068  -0.569   7.887  0.3971 -2.3286 -0.9048
  127OSM   H15G13635   0.083  -0.518   7.976  2.9226 -0.3748 -1.0528
  127OSM   C16F13636   0.022  -0.719   8.020 -0.3157  0.2564  0.0822
  127OSM   H16F13637   0.118  -0.745   8.069  0.2234  1.1524 -0.4914
  127OSM   H16G13638  -0.021  -0.802   7.961  0.7733 -0.1364 -0.1669
  127OSM   C17F13639  -0.075  -0.699   8.143  0.2126  0.1677  0.4150
  127OSM   H17F13640  -0.173  -0.660   8.108 -0.1814 -0.5336  0.7090
  127OSM   H17G13641  -0.032  -0.627   8.216  1.9231 -1.6365  1.2401
  127OSM   C18F13642  -0.105  -0.834   8.205 -0.0186 -0.1676 -0.2089
  127OSM   H18F13643  -0.177  -0.894   8.145  0.3880  0.0140 -0.8802
  127OSM   H18G13644  -0.143  -0.832   8.309  1.3110 -3.6018  0.4135
  127OSM   H18H13645  -0.011  -0.893   8.199 -0.4910 -0.8022 -1.6423
  128OSM      N13646   0.883   3.708   6.357  0.2980  0.9061  0.2199
  128OSM    C1513647   0.829   3.591   6.426  0.4826 -1.0396  0.2250
  128OSM   H15A13648   0.838   3.499   6.371 -2.7219 -1.0004 -0.4611
  128OSM   H15B13649   0.723   3.604   6.446 -0.1064 -1.3914 -2.4601
  128OSM   H15C13650   0.877   3.582   6.523 -0.6750 -0.5476  0.8598
  128OSM    C1413651   1.033   3.706   6.354 -0.4581  0.3238 -0.9041
  128OSM   H14A13652   1.071   3.796   6.308  0.6633  0.5228  0.3614
  128OSM   H14B13653   1.071   3.624   6.294  1.4288 -1.9545  3.1746
  128OSM   H14C13654   1.087   3.704   6.448 -1.2620  4.7076 -0.2641
  128OSM    C1313655   0.834   3.702   6.215 -0.4281 -0.4937 -0.5272
  128OSM   H13A13656   0.727   3.700   6.206 -0.5132  1.2951  0.0368
  128OSM   H13B13657   0.857   3.609   6.165  1.7591 -1.2584  1.8094
  128OSM   H13C13658   0.869   3.789   6.162  2.9693 -0.6148  1.3560
  128OSM    C1213659   0.836   3.835   6.428 -0.5262 -0.1929 -0.5914
  128OSM   H12A13660   0.858   3.923   6.369  0.1344 -0.7624 -1.2089
  128OSM   H12B13661   0.894   3.832   6.519 -3.3136 -1.9097  1.1968
  128OSM    C1113662   0.689   3.857   6.469 -0.2330 -0.0154 -0.0612
  128OSM   H11A13663   0.679   3.942   6.540 -1.7865  0.0882 -0.4052
  128OSM   H11B13664   0.671   3.771   6.536  1.8154  0.5277  1.2669
  128OSM      P13665   0.605   3.983   6.254  0.3148 -0.2308 -0.6890
  128OSM    O1313666   0.745   4.012   6.225  0.7439  0.3812 -0.6924
  128OSM    O1413667   0.517   3.950   6.139 -0.4338 -0.5239  0.0031
  128OSM    O1113668   0.546   4.102   6.326  0.0960 -0.2107  0.1220
  128OSM    O1213669   0.594   3.869   6.360 -0.4779 -0.2147  0.0308
  128OSM    C1S13670   0.470   4.076   6.439 -0.7914  0.3886 -0.6242
  128OSM    H1S13671   0.529   4.070   6.533 -0.1608 -0.0412 -1.0487
  128OSM    H1T13672   0.394   3.996   6.428  1.1596 -1.6915  0.4887
  128OSM     NF13673   0.347   4.181   6.618  0.2034 -0.0076 -0.1475
  128OSM    HNF13674   0.252   4.162   6.643 -0.5918 -0.0286 -2.9926
  128OSM    C2S13675   0.384   4.202   6.474 -1.3357  0.1722  0.3687
  128OSM    H2S13676   0.452   4.289   6.463 -1.8117  0.5931  0.7767
  128OSM    C3S13677   0.256   4.219   6.376 -0.4735 -0.2389 -0.4586
  128OSM    H3S13678   0.183   4.139   6.404  0.3109 -0.5880  0.6416
  128OSM     O313679   0.288   4.198   6.240  0.1962  0.4747  0.0620
  128OSM    HO313680   0.368   4.145   6.235 -1.1589 -2.0381  2.8654
  128OSM    C4S13681   0.178   4.343   6.401 -0.6724 -0.3644 -0.3705
  128OSM    H4S13682   0.117   4.342   6.492  1.0953  0.7666  0.8518
  128OSM    C5S13683   0.163   4.456   6.329 -0.0109 -0.1742  0.0315
  128OSM    H5S13684   0.201   4.463   6.226 -1.4155  0.3063 -0.4700
  128OSM    C6S13685   0.089   4.584   6.375  0.3211  0.7062 -0.2262
  128OSM    H6S13686  -0.007   4.590   6.320 -0.3074  0.9601  0.8829
  128OSM    H6T13687   0.147   4.674   6.349 -0.9549  2.0104  1.3265
  128OSM    C7S13688   0.071   4.602   6.532  0.4217 -0.3177  0.4575
  128OSM    H7S13689   0.174   4.596   6.575  1.0079 -0.8951 -0.9978
  128OSM    H7T13690   0.010   4.520   6.575  0.1102 -0.9807 -1.2147
  128OSM    C8S13691  -0.003   4.739   6.560 -0.3154 -0.3811 -0.5096
  128OSM    H8S13692  -0.100   4.722   6.509  0.5493 -1.5714 -1.7796
  128OSM    H8T13693   0.041   4.827   6.508  0.2127 -0.2083  0.2103
  128OSM    C9S13694  -0.044   4.764   6.709  0.1340 -0.1098  0.1381
  128OSM    H9S13695  -0.064   4.658   6.738 -0.9091  0.4808  1.6438
  128OSM    H9T13696  -0.144   4.809   6.729  1.3070  1.3340  3.0961
  128OSM   C10S13697   0.061   4.829   6.797 -0.1059  0.9510  0.4865
  128OSM   H10S13698   0.044   4.937   6.779 -1.1494  0.6748 -0.1992
  128OSM   H10T13699   0.168   4.821   6.767  0.7334  2.4839  2.9575
  128OSM   C11S13700   0.036   4.794   6.945 -0.3993  0.1863  0.7211
  128OSM   H11S13701   0.051   4.684   6.960  1.7304  0.5218  1.2311
  128OSM   H11T13702  -0.070   4.816   6.972  0.5074  2.2147  2.7914
  128OSM   C12S13703   0.137   4.869   7.032  0.0492  0.2792  0.5263
  128OSM   H12S13704   0.124   4.979   7.029  0.6571  0.3089 -1.2568
  128OSM   H12T13705   0.244   4.866   7.002  0.2766  0.1796  1.3143
  128OSM   C13S13706   0.128   4.830   7.183 -0.1468  0.1870  0.7908
  128OSM   H13S13707   0.151   4.725   7.211  0.5790  0.0588 -0.2466
  128OSM   H13T13708   0.019   4.843   7.198 -0.1044  0.3687  0.9442
  128OSM   C14S13709   0.215   4.914   7.275 -0.3454  0.7285 -0.0615
  128OSM   H14S13710   0.217   5.023   7.253 -2.3015  0.7359 -0.2109
  128OSM   H14T13711   0.321   4.885   7.255 -0.6818  0.0829 -0.9082
  128OSM   C15S13712   0.189   4.893   7.423  0.2155 -0.3611 -0.4690
  128OSM   H15S13713   0.082   4.906   7.451 -0.1038 -1.1490 -1.3249
  128OSM   H15T13714   0.254   4.974   7.463  0.6796  0.4618 -2.8441
  128OSM   C16S13715   0.242   4.766   7.480  0.1790 -0.0696 -0.4993
  128OSM   H16S13716   0.353   4.772   7.485  0.1631  2.3935 -2.1335
  128OSM   H16T13717   0.198   4.675   7.433  0.3894 -1.6868  2.3576
  128OSM   C17S13718   0.201   4.746   7.636  0.1034  0.5689 -0.3279
  128OSM   H17S13719   0.222   4.642   7.668  0.7544  0.1971 -1.9184
  128OSM   H17T13720   0.096   4.773   7.661  0.5868 -0.0020  2.4966
  128OSM   C18S13721   0.283   4.843   7.722 -0.3850  0.5365 -0.4559
  128OSM   H18S13722   0.249   4.841   7.828 -0.7229  1.6338 -0.5374
  128OSM   H18T13723   0.268   4.947   7.687 -0.1744  0.0578 -1.9747
  128OSM   H18U13724   0.393   4.829   7.711 -0.1028  2.2667  0.0754
  128OSM    C1F13725   0.427   4.185   6.730 -0.3412  0.3817  0.4171
  128OSM     OF13726   0.537   4.241   6.705 -0.0988  0.4142  0.0365
  128OSM    C2F13727   0.376   4.129   6.847  0.0529 -0.4093 -0.0402
  128OSM    H2F13728   0.315   4.040   6.819 -0.2154 -0.1851 -0.1673
  128OSM    H2G13729   0.311   4.205   6.895  0.8716  0.0086  0.4257
  128OSM    C3F13730   0.480   4.093   6.949  0.0307  0.3523 -0.6683
  128OSM    H3F13731   0.546   4.177   6.978  0.2032  0.3496 -1.0537
  128OSM    H3G13732   0.551   4.021   6.902  0.6897  0.0403  0.7720
  128OSM    C4F13733   0.419   4.023   7.074 -0.2726 -0.0571  0.4687
  128OSM    H4F13734   0.378   3.927   7.035 -0.2905 -0.7658  2.1850
  128OSM    H4G13735   0.332   4.077   7.116  0.1337  2.5222 -1.8291
  128OSM    C5F13736   0.528   3.988   7.181  0.0062 -0.1427  0.7847
  128OSM    H5F13737   0.559   4.087   7.221 -0.2095  1.1062 -2.0404
  128OSM    H5G13738   0.607   3.926   7.133 -0.0226 -0.1326  0.7240
  128OSM    C6F13739   0.450   3.903   7.279  0.3654  0.0451 -0.3336
  128OSM    H6F13740   0.407   3.818   7.221 -2.7304  2.0978 -1.1370
  128OSM    H6G13741   0.364   3.961   7.320  0.2334 -1.1152  1.0716
  128OSM    C7F13742   0.540   3.850   7.395  0.0006  0.5698 -0.0816
  128OSM    H7F13743   0.589   3.943   7.430  1.2104  0.7179 -2.0686
  128OSM    H7G13744   0.631   3.795   7.363 -0.0138  1.3682 -1.5370
  128OSM    C8F13745   0.478   3.777   7.512 -0.5525  0.5061 -0.0651
  128OSM    H8F13746   0.452   3.673   7.483 -0.0653  0.1237  0.8578
  128OSM    H8G13747   0.378   3.821   7.530 -0.2809  0.3975  1.8673
  128OSM    C9F13748   0.568   3.779   7.629  0.2858  0.7111 -0.4039
  128OSM    H9F13749   0.653   3.710   7.621 -0.5118 -0.2367 -0.8884
  128OSM   C10F13750   0.545   3.850   7.743 -0.0860 -0.7656  0.0314
  128OSM   H10F13751   0.624   3.859   7.819  1.2907  0.8010 -1.5294
  128OSM   C11F13752   0.431   3.942   7.772 -0.5086  0.0711  0.3476
  128OSM   H11F13753   0.363   3.955   7.684  0.5486 -3.0014 -0.9931
  128OSM   H11G13754   0.490   4.035   7.784  1.2684 -1.0416  0.3252
  128OSM   C12F13755   0.355   3.924   7.907 -0.5159 -0.2301  0.2274
  128OSM   H12F13756   0.308   3.823   7.905 -0.4319 -0.2586 -0.2700
  128OSM   H12G13757   0.285   4.011   7.906  0.1101  0.2594 -1.0458
  128OSM   C13F13758   0.439   3.934   8.040  0.6128 -0.1307 -0.1243
  128OSM   H13F13759   0.496   3.840   8.057 -1.0495 -1.1574 -0.1208
  128OSM   H13G13760   0.357   3.937   8.115 -0.7481  1.2742 -1.6267
  128OSM   C14F13761   0.523   4.064   8.053  0.8335 -0.4009  0.1051
  128OSM   H14F13762   0.449   4.146   8.067 -0.1676 -1.4642  1.2735
  128OSM   H14G13763   0.577   4.085   7.958  0.0312  3.0652  0.3425
  128OSM   C15F13764   0.615   4.068   8.177  0.5869  0.8672  0.6701
  128OSM   H15F13765   0.661   3.967   8.187  1.7669  1.4936  1.7207
  128OSM   H15G13766   0.547   4.087   8.262  0.1175  0.2993  0.4278
  128OSM   C16F13767   0.713   4.181   8.163 -0.3460  0.1029  0.3329
  128OSM   H16F13768   0.651   4.273   8.152 -0.9799 -0.1141  1.9304
  128OSM   H16G13769   0.766   4.175   8.066 -1.5768  2.3580 -0.5246
  128OSM   C17F13770   0.817   4.200   8.280 -0.3657  0.2646  0.4228
  128OSM   H17F13771   0.761   4.196   8.376 -0.8212 -0.6879  0.1258
  128OSM   H17G13772   0.861   4.302   8.278  2.4054 -0.8483  1.8343
  128OSM   C18F13773   0.922   4.086   8.273 -0.2156  0.1625 -0.2758
  128OSM   H18F13774   0.961   4.083   8.169  1.5129 -1.7687  0.3845
  128OSM   H18G13775   0.888   3.986   8.306  1.2393 -0.4165 -0.5044
  128OSM   H18H13776   1.003   4.122   8.340  1.3370 -1.4912 -1.2321
  129OSM      N13777   5.603   6.328   5.950  0.2386 -0.1120  0.1991
  129OSM    C1513778   5.578   6.206   5.879 -0.4788  0.3389 -0.0108
  129OSM   H15A13779   5.670   6.150   5.879  1.4299  3.3973  0.1716
  129OSM   H15B13780   5.556   6.220   5.774  1.6251 -2.3102 -0.8439
  129OSM   H15C13781   5.502   6.149   5.930 -0.3901 -0.0351 -0.2928
  129OSM    C1413782   5.688   6.423   5.875 -0.9808 -0.7667  0.2157
  129OSM   H14A13783   5.784   6.375   5.864 -1.2632 -0.8269 -2.0913
  129OSM   H14B13784   5.700   6.517   5.927 -0.5395 -0.5390 -0.2979
  129OSM   H14C13785   5.647   6.439   5.777  0.3601 -0.9657 -0.3890
  129OSM    C1313786   5.467   6.393   5.967  0.5463 -0.0785 -0.5026
  129OSM   H13A13787   5.475   6.482   6.027  1.9059 -1.1008  0.8611
  129OSM   H13B13788   5.395   6.322   6.004 -0.5174  0.4330 -1.5249
  129OSM   H13C13789   5.436   6.421   5.867  1.3931 -0.8346 -0.9798
  129OSM    C1213790   5.661   6.297   6.098  0.3806  0.1327 -0.7731
  129OSM   H12A13791   5.635   6.377   6.165  0.8928 -0.5675  0.2760
  129OSM   H12B13792   5.769   6.304   6.092  0.4505 -0.8231 -0.8268
  129OSM    C1113793   5.617   6.172   6.175 -0.2270  0.7732 -0.4334
  129OSM   H11A13794   5.637   6.192   6.283  2.2081 -0.3646 -0.6578
  129OSM   H11B13795   5.677   6.082   6.149  0.2885  0.3786  1.9914
  129OSM      P13796   5.406   6.016   6.156  0.0369  0.1922  0.5598
  129OSM    O1313797   5.259   6.046   6.140  0.0229 -0.0526 -0.6095
  129OSM    O1413798   5.467   5.932   6.048 -0.1381  0.1759 -1.2087
  129OSM    O1113799   5.448   5.960   6.297  0.5111 -0.0130  0.1556
  129OSM    O1213800   5.483   6.159   6.158  0.2793  0.1288 -0.3124
  129OSM    C1S13801   5.385   5.844   6.357 -0.9845 -0.1506  0.3240
  129OSM    H1S13802   5.425   5.749   6.316 -0.7003  0.2431 -0.3193
  129OSM    H1T13803   5.277   5.835   6.331 -0.3640 -2.3312 -1.7461
  129OSM     NF13804   5.352   5.729   6.581  0.4126 -0.0922  0.1083
  129OSM    HNF13805   5.263   5.737   6.625 -0.3906 -0.7448 -1.3710
  129OSM    C2S13806   5.399   5.849   6.511  0.7565 -0.0179 -0.2218
  129OSM    H2S13807   5.509   5.857   6.529  1.3352 -2.8796 -2.1012
  129OSM    C3S13808   5.341   5.983   6.577 -0.8280  0.1776 -0.4342
  129OSM    H3S13809   5.232   5.965   6.592 -0.8920 -0.1955 -1.3462
  129OSM     O313810   5.358   6.105   6.503  0.1304  0.4489  0.2517
  129OSM    HO313811   5.390   6.073   6.418 -0.6284  0.4924 -0.0508
  129OSM    C4S13812   5.388   6.008   6.718  0.1622  0.1326 -0.2446
  129OSM    H4S13813   5.457   6.093   6.736  0.6210 -0.1744 -0.5438
  129OSM    C5S13814   5.351   5.930   6.823 -0.3874 -0.1312  0.2063
  129OSM    H5S13815   5.279   5.847   6.814  1.0861 -1.6807  2.2372
  129OSM    C6S13816   5.406   5.934   6.969  0.6755 -0.4091  0.3093
  129OSM    H6S13817   5.454   5.843   7.012 -0.7327 -0.5454  1.6405
  129OSM    H6T13818   5.315   5.949   7.032  0.9550 -0.9478  0.8434
  129OSM    C7S13819   5.495   6.046   7.009 -0.5327  0.1602 -0.4105
  129OSM    H7S13820   5.450   6.144   6.984  1.1882  1.7999  2.5966
  129OSM    H7T13821   5.588   6.040   6.948  0.6828  1.1087  1.2904
  129OSM    C8S13822   5.544   6.044   7.154  0.0459  0.3009  0.6127
  129OSM    H8S13823   5.648   6.083   7.157  0.8407 -1.7407  0.1502
  129OSM    H8T13824   5.548   5.944   7.201 -1.7831 -0.9141 -1.7063
  129OSM    C9S13825   5.461   6.142   7.238 -0.7234 -0.5734 -0.8871
  129OSM    H9S13826   5.354   6.116   7.239 -1.1241  1.0078 -0.0259
  129OSM    H9T13827   5.467   6.239   7.185  0.3749 -1.2116 -1.9484
  129OSM   C10S13828   5.510   6.163   7.382 -0.0974  0.1755  0.1693
  129OSM   H10S13829   5.467   6.258   7.419 -1.8564 -1.6415  3.0073
  129OSM   H10T13830   5.620   6.176   7.376 -0.3197  2.1119 -0.0088
  129OSM   C11S13831   5.481   6.044   7.475  0.3323  0.6162  0.4609
  129OSM   H11S13832   5.543   5.956   7.448 -0.8155  0.4103 -1.5590
  129OSM   H11T13833   5.372   6.019   7.475  0.7063 -1.0650 -0.0677
  129OSM   C12S13834   5.520   6.087   7.618 -0.5763  0.0198 -0.8454
  129OSM   H12S13835   5.467   6.184   7.631 -3.6577 -1.8360  1.0268
  129OSM   H12T13836   5.629   6.107   7.610 -0.7147  1.2563  0.2572
  129OSM   C13S13837   5.495   5.988   7.732  0.0245 -0.2211  0.1251
  129OSM   H13S13838   5.579   6.000   7.803  1.7728 -2.0316 -1.5651
  129OSM   H13T13839   5.509   5.884   7.694  0.4072  0.2255 -0.9746
  129OSM   C14S13840   5.350   6.003   7.794  0.3782 -0.3965 -0.6354
  129OSM   H14S13841   5.305   5.904   7.818  2.1233 -0.8286  0.9884
  129OSM   H14T13842   5.288   6.050   7.715 -0.9066 -3.1270 -1.3054
  129OSM   C15S13843   5.354   6.070   7.937 -0.1886 -0.8726 -0.1083
  129OSM   H15S13844   5.414   6.163   7.923 -0.4863 -0.8558 -1.3595
  129OSM   H15T13845   5.406   6.009   8.013 -1.2672  0.3011  1.6103
  129OSM   C16S13846   5.217   6.099   7.997 -0.1479 -0.2302 -0.1406
  129OSM   H16S13847   5.157   6.007   8.014 -0.8463  0.4291  1.0509
  129OSM   H16T13848   5.164   6.173   7.933  1.9196  2.1312  0.8226
  129OSM   C17S13849   5.214   6.179   8.129 -0.4820 -0.4760 -0.1715
  129OSM   H17S13850   5.264   6.123   8.211 -0.7793  0.1396  0.4329
  129OSM   H17T13851   5.112   6.196   8.169 -0.4359 -0.2895 -0.1311
  129OSM   C18S13852   5.279   6.322   8.105  0.5580 -0.0222  0.2686
  129OSM   H18S13853   5.233   6.365   8.013  1.6583 -1.3495 -0.9191
  129OSM   H18T13854   5.387   6.322   8.081  0.4489 -0.1915 -0.2332
  129OSM   H18U13855   5.263   6.399   8.183  0.8009 -0.9900  1.2712
  129OSM    C1F13856   5.414   5.615   6.567 -0.6435  0.3769 -0.4381
  129OSM     OF13857   5.526   5.612   6.506  0.6803  0.3667 -0.0214
  129OSM    C2F13858   5.353   5.493   6.617  0.7496  0.4037  0.3313
  129OSM    H2F13859   5.373   5.412   6.543  0.4141  0.5148  0.1149
  129OSM    H2G13860   5.242   5.492   6.623  0.7558 -0.6187  0.4699
  129OSM    C3F13861   5.412   5.442   6.751 -0.5988 -0.5134  0.1836
  129OSM    H3F13862   5.523   5.450   6.742 -0.4297 -1.1065  1.6821
  129OSM    H3G13863   5.403   5.333   6.769  0.3783 -0.2119  2.6792
  129OSM    C4F13864   5.365   5.516   6.879  0.4191  0.7485  0.1847
  129OSM    H4F13865   5.398   5.622   6.879  1.5147  0.4217 -0.7742
  129OSM    H4G13866   5.396   5.457   6.968  0.0579  0.0657 -0.1348
  129OSM    C5F13867   5.210   5.536   6.903  0.8067 -0.0319  0.4970
  129OSM    H5F13868   5.165   5.439   6.934  2.0085 -0.3962  1.1148
  129OSM    H5G13869   5.170   5.561   6.802  2.9362  1.7539  0.0728
  129OSM    C6F13870   5.193   5.643   7.006  0.1783  0.3449  0.6411
  129OSM    H6F13871   5.127   5.725   6.969 -2.3393 -0.5937  2.9536
  129OSM    H6G13872   5.284   5.707   7.008  0.5818 -0.2184  0.2571
  129OSM    C7F13873   5.132   5.579   7.133  0.6450 -0.6236 -0.1390
  129OSM    H7F13874   5.193   5.489   7.153 -0.4822 -1.1718  0.8818
  129OSM    H7G13875   5.030   5.537   7.123 -0.5267  1.6046  1.9946
  129OSM    C8F13876   5.154   5.677   7.255 -0.5195 -0.1076 -0.0782
  129OSM    H8F13877   5.260   5.709   7.249  0.1489 -2.2463  0.0847
  129OSM    H8G13878   5.133   5.620   7.348  0.3844 -0.5768 -0.1607
  129OSM    C9F13879   5.059   5.793   7.229  1.0574 -0.6868 -0.1501
  129OSM    H9F13880   5.094   5.866   7.156  0.4824 -2.6998 -2.5035
  129OSM   C10F13881   4.940   5.822   7.287  0.8840  0.1867 -0.2282
  129OSM   H10F13882   4.891   5.919   7.272 -0.4615 -0.4696 -0.1467
  129OSM   C11F13883   4.862   5.734   7.385  0.3141  0.6986 -0.1128
  129OSM   H11F13884   4.877   5.626   7.362  0.4062  0.7547 -0.3206
  129OSM   H11G13885   4.754   5.750   7.364  0.8138  1.1304 -2.6051
  129OSM   C12F13886   4.899   5.749   7.538 -0.3462  0.1308  0.2379
  129OSM   H12F13887   5.009   5.745   7.548 -0.2175  0.6964 -0.8382
  129OSM   H12G13888   4.851   5.666   7.594  1.7389  0.1698  2.1391
  129OSM   C13F13889   4.845   5.882   7.599  0.0868  0.7932  0.2430
  129OSM   H13F13890   4.739   5.871   7.567 -0.1110 -0.4779  1.3052
  129OSM   H13G13891   4.884   5.973   7.548 -1.0422  1.4104  0.4689
  129OSM   C14F13892   4.864   5.881   7.743 -0.4953 -0.1106 -0.0519
  129OSM   H14F13893   4.974   5.881   7.754 -0.5915 -0.2234  0.9953
  129OSM   H14G13894   4.809   5.794   7.785 -3.2894 -0.0616 -3.3818
  129OSM   C15F13895   4.811   6.010   7.812  0.4494 -0.1402  0.3114
  129OSM   H15F13896   4.702   6.016   7.790  0.3428 -3.8776 -0.5207
  129OSM   H15G13897   4.869   6.098   7.777 -2.6950  1.0318 -2.2014
  129OSM   C16F13898   4.832   5.991   7.968 -0.0705 -0.2102 -0.1021
  129OSM   H16F13899   4.935   6.028   7.983 -0.0838  1.0991 -2.9095
  129OSM   H16G13900   4.814   5.884   7.988 -1.0957  0.1926  1.2581
  129OSM   C17F13901   4.736   6.094   8.038  0.4966  0.4412  0.8021
  129OSM   H17F13902   4.720   6.075   8.146 -1.5430 -3.4700 -0.1092
  129OSM   H17G13903   4.635   6.081   7.993  0.5771 -1.9640  1.2405
  129OSM   C18F13904   4.785   6.237   8.016  0.1087  0.1435  0.3694
  129OSM   H18F13905   4.893   6.237   8.043  0.3694  0.2668 -0.6663
  129OSM   H18G13906   4.728   6.314   8.071 -1.0709 -0.5672  0.1611
  129OSM   H18H13907   4.786   6.255   7.907  2.6898  1.1260  0.5157
  130OSM      N13908   6.050   3.066   5.806 -0.1076  0.3220 -0.3135
  130OSM    C1513909   6.166   3.053   5.712 -0.0099  0.4511 -0.5068
  130OSM   H15A13910   6.260   3.090   5.750 -0.9354  2.8136 -0.4253
  130OSM   H15B13911   6.140   3.100   5.618 -0.6975  1.6303  0.2528
  130OSM   H15C13912   6.173   2.951   5.679 -1.9126  0.2439 -0.3597
  130OSM    C1413913   6.047   3.206   5.842 -0.3204  0.8791 -0.7366
  130OSM   H14A13914   5.951   3.237   5.881  0.1355 -0.3331  1.4352
  130OSM   H14B13915   6.049   3.261   5.749 -0.5245 -0.0529 -1.3023
  130OSM   H14C13916   6.133   3.244   5.893 -0.0329  0.8232 -1.1793
  130OSM    C1313917   5.930   3.019   5.738 -0.2126 -0.4912 -0.0573
  130OSM   H13A13918   5.839   3.039   5.794  0.7130  1.5462  0.7758
  130OSM   H13B13919   5.931   2.915   5.710  1.2784 -0.8152  1.1158
  130OSM   H13C13920   5.911   3.080   5.651 -4.7506 -0.2673  0.9268
  130OSM    C1213921   6.078   2.978   5.935  0.1503 -0.2836  0.2600
  130OSM   H12A13922   6.158   3.022   5.994 -0.7432  1.9860 -0.1773
  130OSM   H12B13923   6.112   2.877   5.915  2.8636  0.8830 -1.2196
  130OSM    C1113924   5.958   2.960   6.028  0.4348  0.1874  0.1821
  130OSM   H11A13925   5.873   2.926   5.966  0.2855  1.1252 -0.1398
  130OSM   H11B13926   5.932   3.064   6.059  0.3846  0.2489 -0.0639
  130OSM      P13927   6.066   2.896   6.260  0.0495 -0.1157  0.2096
  130OSM    O1313928   6.043   2.783   6.356  0.3734  0.3793 -0.5856
  130OSM    O1413929   6.200   2.930   6.212 -0.0189 -0.1021 -0.3262
  130OSM    O1113930   5.993   3.025   6.318 -0.0567  0.2763 -0.7953
  130OSM    O1213931   5.984   2.867   6.130  0.1921  0.3038 -0.0123
  130OSM    C1S13932   5.878   3.019   6.403  0.1785  0.2237 -0.3957
  130OSM    H1S13933   5.825   2.922   6.390 -0.6039  0.5242  0.5138
  130OSM    H1T13934   5.816   3.106   6.374 -1.4011 -0.7253  0.0612
  130OSM     NF13935   5.781   3.017   6.633  0.3830 -0.0024  0.0068
  130OSM    HNF13936   5.725   3.099   6.640  0.1202 -0.1769 -0.0374
  130OSM    C2S13937   5.907   3.033   6.555 -0.1370  0.0196 -0.5732
  130OSM    H2S13938   5.974   2.947   6.574 -0.3385  0.2783  1.4258
  130OSM    C3S13939   5.987   3.163   6.585 -0.0860  0.5971  0.0096
  130OSM    H3S13940   5.938   3.245   6.529 -1.6690  0.3071  0.9425
  130OSM     O313941   6.119   3.156   6.543 -0.1722  0.1246  0.2649
  130OSM    HO313942   6.116   3.093   6.471  0.5295 -0.1972  0.5206
  130OSM    C4S13943   5.988   3.191   6.729 -0.0328  0.0826 -0.7998
  130OSM    H4S13944   5.895   3.242   6.758  2.2245  2.3232  2.8012
  130OSM    C5S13945   6.081   3.152   6.822 -0.1510  0.0721  0.5838
  130OSM    H5S13946   6.164   3.088   6.788  0.3329  1.6750 -1.3996
  130OSM    C6S13947   6.090   3.177   6.966  0.2693 -0.0416 -0.4092
  130OSM    H6S13948   6.007   3.250   6.978  1.8612  1.7723 -0.2316
  130OSM    H6T13949   6.183   3.225   7.003 -0.5538  0.8855  0.4910
  130OSM    C7S13950   6.072   3.044   7.033  0.0508  0.2806 -0.2072
  130OSM    H7S13951   6.155   2.972   7.014 -0.6486 -0.5488 -0.1305
  130OSM    H7T13952   5.976   2.996   7.004 -0.0094  1.8143 -2.6260
  130OSM    C8S13953   6.092   3.058   7.185 -0.2418 -0.0856  0.2435
  130OSM    H8S13954   6.006   3.122   7.216 -0.4231  1.3684 -3.0740
  130OSM    H8T13955   6.184   3.117   7.206  0.8747 -0.4611 -3.3567
  130OSM    C9S13956   6.093   2.922   7.250  0.2378  0.5210 -0.0535
  130OSM    H9S13957   6.188   2.867   7.236 -0.8363 -1.5128  0.4458
  130OSM    H9T13958   6.017   2.865   7.192  1.1712 -1.8486  1.0137
  130OSM   C10S13959   6.040   2.899   7.388 -0.7752  0.0892  0.7624
  130OSM   H10S13960   6.016   2.791   7.396 -0.2111 -0.2412 -1.6099
  130OSM   H10T13961   5.944   2.954   7.399 -0.6048  0.7082 -0.7074
  130OSM   C11S13962   6.142   2.945   7.494 -0.2731  0.8493 -0.3830
  130OSM   H11S13963   6.163   3.054   7.482  2.9367  0.4667  1.4141
  130OSM   H11T13964   6.236   2.889   7.479 -0.6437  0.0659  0.1938
  130OSM   C12S13965   6.084   2.921   7.632 -0.1130  0.1813 -0.2158
  130OSM   H12S13966   5.975   2.942   7.642  0.1817  1.7932 -0.2738
  130OSM   H12T13967   6.132   2.990   7.704 -1.0094  2.0065 -1.3384
  130OSM   C13S13968   6.111   2.781   7.678 -0.2793  0.0167  0.5567
  130OSM   H13S13969   6.220   2.760   7.677 -0.5096 -1.2269  0.5931
  130OSM   H13T13970   6.064   2.714   7.602 -1.2181  0.6043  0.6139
  130OSM   C14S13971   6.051   2.741   7.814 -0.2761  0.0253 -0.0182
  130OSM   H14S13972   6.057   2.632   7.834 -0.8140  0.3429  2.0645
  130OSM   H14T13973   5.942   2.755   7.803 -0.1790  0.3856 -0.5228
  130OSM   C15S13974   6.125   2.805   7.930 -0.0990  0.1620  0.3808
  130OSM   H15S13975   6.110   2.915   7.935  1.3536  0.4416 -0.8702
  130OSM   H15T13976   6.234   2.785   7.924  0.2481  2.1599 -0.3431
  130OSM   C16S13977   6.058   2.751   8.059  0.1194 -0.4014  0.5955
  130OSM   H16S13978   6.041   2.641   8.056 -0.0077 -0.4442  2.2885
  130OSM   H16T13979   5.955   2.792   8.059 -0.2254 -1.2259 -0.7574
  130OSM   C17S13980   6.127   2.790   8.187 -0.3406  0.8829  0.0191
  130OSM   H17S13981   6.216   2.729   8.211  1.4024  3.4653  0.2707
  130OSM   H17T13982   6.053   2.753   8.262 -0.7614  1.1395 -0.2658
  130OSM   C18S13983   6.149   2.941   8.208 -0.1373 -0.1567  1.0852
  130OSM   H18S13984   6.199   2.963   8.305  0.4155 -0.1143  0.7961
  130OSM   H18T13985   6.054   2.998   8.205 -0.5181 -0.7139  2.1814
  130OSM   H18U13986   6.223   2.982   8.135 -1.8552 -1.2109 -1.3044
  130OSM    C1F13987   5.726   2.895   6.638  0.0217 -0.5415  0.4806
  130OSM     OF13988   5.784   2.797   6.606 -0.2106  0.0789  0.0972
  130OSM    C2F13989   5.583   2.895   6.686  0.0743  0.3658  0.0791
  130OSM    H2F13990   5.524   2.833   6.615  2.2196  1.3218 -2.6562
  130OSM    H2G13991   5.540   2.996   6.668  2.1497  1.6959  2.1742
  130OSM    C3F13992   5.588   2.841   6.832 -0.2404 -0.0143  0.4899
  130OSM    H3F13993   5.654   2.753   6.847  0.3609 -0.5331 -4.4512
  130OSM    H3G13994   5.484   2.809   6.855 -1.0738  0.8510 -1.9506
  130OSM    C4F13995   5.634   2.945   6.931  0.4835 -0.2408  0.1689
  130OSM    H4F13996   5.595   3.038   6.884 -0.0872 -1.6550 -2.2118
  130OSM    H4G13997   5.745   2.949   6.931  0.4970  0.3431  2.7745
  130OSM    C5F13998   5.576   2.929   7.072 -0.3777  0.1173 -0.5722
  130OSM    H5F13999   5.597   2.826   7.110  1.9404  0.8473  0.1727
  130OSM    H5G14000   5.466   2.943   7.060 -0.8497 -2.2948  0.5587
  130OSM    C6F14001   5.641   3.029   7.175 -0.4497  0.1995 -0.7365
  130OSM    H6F14002   5.653   3.134   7.140 -1.1139  1.2081  1.9286
  130OSM    H6G14003   5.745   2.995   7.192 -0.3573  0.1168 -1.4360
  130OSM    C7F14004   5.562   3.029   7.306  0.1120  0.2612 -0.4665
  130OSM    H7F14005   5.473   3.090   7.279 -0.4767 -0.1218  0.5825
  130OSM    H7G14006   5.629   3.088   7.371 -0.0149  2.8953 -2.6357
  130OSM    C8F14007   5.511   2.899   7.376 -0.2737 -0.0679  0.0391
  130OSM    H8F14008   5.447   2.845   7.303  0.3683  0.0969 -0.6449
  130OSM    H8G14009   5.446   2.919   7.464 -0.8667 -2.0921  0.0885
  130OSM    C9F14010   5.625   2.819   7.421  0.4045 -0.9061  0.1765
  130OSM    H9F14011   5.655   2.735   7.357  2.3881  0.6066 -0.9250
  130OSM   C10F14012   5.701   2.841   7.530 -0.0110 -0.7314  0.1966
  130OSM   H10F14013   5.776   2.769   7.565  0.8715  0.2090  0.2932
  130OSM   C11F14014   5.679   2.954   7.624 -0.1487 -0.6378  0.0905
  130OSM   H11F14015   5.604   3.026   7.586  0.3910  0.5894  1.2612
  130OSM   H11G14016   5.773   3.014   7.632 -0.8591  0.4227  0.6345
  130OSM   C12F14017   5.651   2.913   7.765 -0.3938 -0.5155 -0.4208
  130OSM   H12F14018   5.741   2.870   7.814 -0.1038 -0.6855 -1.0908
  130OSM   H12G14019   5.575   2.834   7.780 -1.5260  0.6354 -0.0741
  130OSM   C13F14020   5.616   3.031   7.854  0.5366 -0.0190  0.7212
  130OSM   H13F14021   5.531   3.085   7.808 -0.3101  0.0739  2.3467
  130OSM   H13G14022   5.704   3.099   7.851  1.5731 -1.4401 -2.1014
  130OSM   C14F14023   5.585   2.992   8.002 -0.6802  0.3446 -0.3979
  130OSM   H14F14024   5.481   2.953   8.009 -0.2654 -0.5505  1.1256
  130OSM   H14G14025   5.587   3.088   8.057  1.4079 -0.8930  1.8292
  130OSM   C15F14026   5.683   2.894   8.071 -0.0115  0.1102  0.6160
  130OSM   H15F14027   5.786   2.935   8.058  0.2230 -0.4444  0.7119
  130OSM   H15G14028   5.687   2.790   8.032  1.5063 -0.0084  1.0583
  130OSM   C16F14029   5.664   2.873   8.220  0.2256 -0.3439  0.1470
  130OSM   H16F14030   5.702   2.966   8.267 -0.3366  0.5566 -1.1563
  130OSM   H16G14031   5.723   2.786   8.256  0.8009 -0.0338 -0.0359
  130OSM   C17F14032   5.513   2.866   8.264 -0.3313 -0.6540 -0.1835
  130OSM   H17F14033   5.457   2.781   8.219  2.0965 -1.8416 -1.0834
  130OSM   H17G14034   5.463   2.957   8.225 -1.5037 -1.0352  0.4022
  130OSM   C18F14035   5.495   2.871   8.419  0.3584  0.4651 -0.3979
  130OSM   H18F14036   5.519   2.968   8.467  1.1012 -0.7981  1.8543
  130OSM   H18G14037   5.565   2.804   8.472 -1.1264  0.0242  1.0507
  130OSM   H18H14038   5.389   2.845   8.438 -0.0104  0.2246 -2.6001
  131OSM      N14039   5.515   1.074   5.951  0.3715  0.1503 -0.1972
  131OSM    C1514040   5.442   1.084   5.822 -0.1213 -0.5436 -0.2262
  131OSM   H15A14041   5.476   1.162   5.756 -0.4390 -0.4107 -0.2368
  131OSM   H15B14042   5.341   1.113   5.847  0.1035 -0.2714  0.3503
  131OSM   H15C14043   5.428   0.989   5.771 -0.6090  0.4123 -1.9240
  131OSM    C1414044   5.658   1.084   5.925 -0.3034  0.2469 -0.2627
  131OSM   H14A14045   5.691   0.983   5.901 -2.5244 -1.2649  2.7310
  131OSM   H14B14046   5.713   1.120   6.011  0.4290 -0.6384 -0.3429
  131OSM   H14C14047   5.670   1.154   5.844  0.2692  1.7784  1.1332
  131OSM    C1314048   5.484   1.186   6.038  0.0209 -0.1276 -0.0176
  131OSM   H13A14049   5.503   1.280   5.988 -2.8040  1.8099  2.3474
  131OSM   H13B14050   5.544   1.172   6.127 -0.1144 -0.4367  0.0251
  131OSM   H13C14051   5.380   1.192   6.067 -0.4484  1.7406 -1.9993
  131OSM    C1214052   5.476   0.948   6.025  0.3017  0.2902 -0.0717
  131OSM   H12A14053   5.370   0.956   6.046  0.3649 -1.3244  0.9509
  131OSM   H12B14054   5.518   0.946   6.124  2.3117  0.2038 -0.9021
  131OSM    C1114055   5.505   0.813   5.956 -0.2908  0.6333  0.3218
  131OSM   H11A14056   5.449   0.813   5.860  1.5494  0.3744 -0.7802
  131OSM   H11B14057   5.462   0.732   6.019 -0.9875  3.4037  3.5442
  131OSM      P14058   5.736   0.683   5.989 -0.1677  0.3265 -0.1898
  131OSM    O1314059   5.664   0.555   5.987  0.3525 -0.0523 -0.1540
  131OSM    O1414060   5.867   0.681   5.925  0.0837  0.1165 -0.9883
  131OSM    O1114061   5.752   0.723   6.145 -0.8266  0.2423 -0.1694
  131OSM    O1214062   5.644   0.790   5.929 -0.2064 -0.4073  0.1968
  131OSM    C1S14063   5.854   0.803   6.191  0.1169 -0.5044  0.4741
  131OSM    H1S14064   5.840   0.908   6.158  0.5229 -1.2479 -2.1858
  131OSM    H1T14065   5.949   0.766   6.148 -1.1874 -0.7069 -2.2952
  131OSM     NF14066   5.982   0.865   6.395  0.6452 -0.5754 -0.0643
  131OSM    HNF14067   6.050   0.802   6.431  0.4883 -1.5415 -1.4584
  131OSM    C2S14068   5.855   0.808   6.348 -0.6465  0.8293 -0.2463
  131OSM    H2S14069   5.769   0.873   6.377 -0.8748  1.2131 -1.7094
  131OSM    C3S14070   5.825   0.663   6.415  0.3454 -0.3976 -0.1196
  131OSM    H3S14071   5.902   0.584   6.404 -0.8370 -1.4218 -1.2413
  131OSM     O314072   5.704   0.596   6.377  0.0094 -0.1472 -0.1973
  131OSM    HO314073   5.670   0.642   6.300 -3.2276  1.8391  2.3535
  131OSM    C4S14074   5.806   0.692   6.564 -0.7230  0.0053  0.5775
  131OSM    H4S14075   5.707   0.728   6.596 -0.1171  1.9144  0.3590
  131OSM    C5S14076   5.901   0.666   6.664 -0.2190 -0.5676  0.2563
  131OSM    H5S14077   6.006   0.640   6.646  0.4366  3.1713 -1.7191
  131OSM    C6S14078   5.859   0.688   6.815  0.5699 -0.2547  0.2223
  131OSM    H6S14079   5.753   0.720   6.824  0.5133  0.0738 -1.4986
  131OSM    H6T14080   5.911   0.775   6.859 -0.5489 -0.4501  1.9651
  131OSM    C7S14081   5.882   0.568   6.910  0.2683  0.0556 -0.5096
  131OSM    H7S14082   5.978   0.515   6.892 -0.4095 -0.8120 -1.6890
  131OSM    H7T14083   5.795   0.500   6.895 -0.6469  1.4556 -1.7590
  131OSM    C8S14084   5.881   0.614   7.057 -0.4745 -1.0173  0.2337
  131OSM    H8S14085   5.796   0.681   7.079  0.5446 -0.1819  1.6949
  131OSM    H8T14086   5.971   0.677   7.074  0.6496 -2.4109 -0.4000
  131OSM    C9S14087   5.872   0.499   7.156 -0.0311  0.6711  1.0177
  131OSM    H9S14088   5.966   0.439   7.152 -0.0619  0.7695 -1.9924
  131OSM    H9T14089   5.788   0.431   7.128 -0.0172  0.5556  1.2488
  131OSM   C10S14090   5.856   0.550   7.305 -0.0660 -0.2498 -0.3848
  131OSM   H10S14091   5.784   0.634   7.308  2.1855  1.7566 -0.8964
  131OSM   H10T14092   5.959   0.590   7.317  0.1140 -1.0675  0.9801
  131OSM   C11S14093   5.824   0.432   7.397  0.4640  0.0052 -0.1051
  131OSM   H11S14094   5.882   0.337   7.387 -1.1360 -1.2379  1.8186
  131OSM   H11T14095   5.722   0.401   7.365  0.0187 -0.5275  1.7428
  131OSM   C12S14096   5.827   0.477   7.543 -0.2122  0.1034 -0.2400
  131OSM   H12S14097   5.775   0.396   7.599  1.7169  0.3198  1.9424
  131OSM   H12T14098   5.761   0.566   7.539  0.2203  0.3922 -1.4110
  131OSM   C13S14099   5.962   0.518   7.607  0.4947  0.0058  0.1704
  131OSM   H13S14100   5.988   0.612   7.554 -1.1935  1.1308  1.2728
  131OSM   H13T14101   6.034   0.434   7.598 -1.7192 -1.9809  0.4301
  131OSM   C14S14102   5.949   0.543   7.756  0.1084  0.1371  0.8179
  131OSM   H14S14103   5.905   0.449   7.794 -2.3303  0.6234 -0.6696
  131OSM   H14T14104   5.872   0.622   7.768 -0.9693 -0.6195 -0.9909
  131OSM   C15S14105   6.084   0.581   7.829  0.2461  0.7440  0.5568
  131OSM   H15S14106   6.131   0.670   7.783 -0.4181  0.8430  0.0597
  131OSM   H15T14107   6.155   0.500   7.798  0.8598  1.5644 -0.2061
  131OSM   C16S14108   6.066   0.601   7.982 -0.1711  0.5405  0.2768
  131OSM   H16S14109   6.009   0.695   7.999 -0.0589  0.4291  1.3552
  131OSM   H16T14110   6.168   0.603   8.026 -0.9171 -1.7296  2.1995
  131OSM   C17S14111   5.994   0.488   8.048  0.0836  0.0419  1.0466
  131OSM   H17S14112   6.034   0.393   8.006 -1.4653  0.4167 -1.3837
  131OSM   H17T14113   5.885   0.482   8.028 -0.1083  2.7533  1.0945
  131OSM   C18S14114   6.022   0.490   8.196  0.8240  0.5272  0.0281
  131OSM   H18S14115   5.972   0.416   8.262  2.0162 -0.8444 -0.5829
  131OSM   H18T14116   6.005   0.594   8.232 -0.7133  0.9303 -1.7652
  131OSM   H18U14117   6.129   0.466   8.213  0.7354  0.3297  0.3047
  131OSM    C1F14118   6.023   0.994   6.372  0.2994  0.1789  0.0397
  131OSM     OF14119   5.947   1.063   6.307  0.7791  0.2311  0.3600
  131OSM    C2F14120   6.166   1.028   6.402  0.3869  0.3389 -0.0981
  131OSM    H2F14121   6.197   1.121   6.350 -0.1802  1.9315  2.3037
  131OSM    H2G14122   6.227   0.944   6.362  0.2033  0.0639  0.2005
  131OSM    C3F14123   6.195   1.046   6.551  0.0252  0.2384 -0.0488
  131OSM    H3F14124   6.167   0.962   6.618 -2.5743  0.9477 -0.2011
  131OSM    H3G14125   6.140   1.135   6.588 -0.7111 -0.4912  0.6121
  131OSM    C4F14126   6.345   1.062   6.587  0.4813 -0.2688  0.7413
  131OSM    H4F14127   6.390   1.136   6.518  2.4552 -0.3158  1.9183
  131OSM    H4G14128   6.397   0.969   6.555  0.8853  0.0958  0.3254
  131OSM    C5F14129   6.370   1.095   6.733 -0.8028  0.1234  0.0831
  131OSM    H5F14130   6.480   1.098   6.748 -1.0053  2.2427  1.3820
  131OSM    H5G14131   6.310   1.021   6.788  1.2530  0.0219  2.2631
  131OSM    C6F14132   6.333   1.245   6.768 -0.9942  0.0475  0.6793
  131OSM    H6F14133   6.243   1.276   6.710  1.4181  1.2263 -2.6351
  131OSM    H6G14134   6.421   1.306   6.738 -0.8030 -0.1537  0.8272
  131OSM    C7F14135   6.314   1.270   6.920 -0.3354 -0.2567 -0.2610
  131OSM    H7F14136   6.399   1.208   6.956  1.1529  1.4152 -0.8244
  131OSM    H7G14137   6.215   1.228   6.946  0.3479 -1.7198  0.0710
  131OSM    C8F14138   6.313   1.414   6.972 -0.3537 -0.2432 -0.4253
  131OSM    H8F14139   6.281   1.410   7.079  1.7435 -1.8654  0.1738
  131OSM    H8G14140   6.233   1.474   6.923  1.3654  4.0528  1.7036
  131OSM    C9F14141   6.443   1.492   6.952 -0.6186  0.3972  0.4106
  131OSM    H9F14142   6.454   1.552   6.860 -0.1260 -4.3595 -2.8433
  131OSM   C10F14143   6.549   1.492   7.029  0.5084 -0.2300  0.6669
  131OSM   H10F14144   6.636   1.549   6.993  2.4855 -1.9241  2.5901
  131OSM   C11F14145   6.578   1.418   7.156  0.7874  0.1153  0.5769
  131OSM   H11F14146   6.657   1.342   7.142  0.5339  0.3880 -2.5059
  131OSM   H11G14147   6.489   1.368   7.199 -1.0521  1.1616 -1.9458
  131OSM   C12F14148   6.622   1.524   7.252  0.2732 -0.2494 -0.3573
  131OSM   H12F14149   6.553   1.610   7.266  0.8346  0.3504 -1.2217
  131OSM   H12G14150   6.718   1.564   7.214  0.8306 -1.1142  0.1447
  131OSM   C13F14151   6.655   1.490   7.396 -0.5453  0.1960  0.9291
  131OSM   H13F14152   6.557   1.464   7.441 -1.7077  2.4424 -0.2368
  131OSM   H13G14153   6.686   1.587   7.440 -1.6953  0.7921  0.4424
  131OSM   C14F14154   6.767   1.390   7.419  0.3782 -0.2706 -0.4676
  131OSM   H14F14155   6.862   1.443   7.397  0.0919  0.8393  0.8983
  131OSM   H14G14156   6.756   1.313   7.340 -0.4744  2.2831 -2.9323
  131OSM   C15F14157   6.771   1.323   7.564  0.7410 -0.5258  0.1050
  131OSM   H15F14158   6.833   1.231   7.557  0.9057 -0.4077  0.0041
  131OSM   H15G14159   6.668   1.294   7.593  0.4182 -0.3105 -0.8053
  131OSM   C16F14160   6.842   1.416   7.663  0.0707 -0.4892 -0.4800
  131OSM   H16F14161   6.814   1.385   7.765 -1.5146 -0.4890 -0.9034
  131OSM   H16G14162   6.791   1.514   7.652 -2.0530 -1.4314  0.6252
  131OSM   C17F14163   6.996   1.433   7.650  0.7555 -0.3512 -0.1827
  131OSM   H17F14164   7.026   1.539   7.635  0.9519 -0.4175 -0.2663
  131OSM   H17G14165   7.021   1.377   7.558 -0.1603 -1.4656  0.2396
  131OSM   C18F14166   7.090   1.371   7.756 -0.7428 -0.5217  0.1657
  131OSM   H18F14167   7.075   1.262   7.748  2.0553 -0.9292  0.0091
  131OSM   H18G14168   7.073   1.407   7.860 -0.7762 -0.2643  0.0718
  131OSM   H18H14169   7.195   1.397   7.732  0.6256 -0.9328  5.1575
  132OSM      N14170   1.266   4.601   6.019  0.0409  0.5589 -0.1318
  132OSM    C1514171   1.168   4.490   6.044  0.2291  0.2364 -0.0183
  132OSM   H15A14172   1.104   4.516   6.127 -0.4894 -0.6314 -0.3028
  132OSM   H15B14173   1.216   4.400   6.079 -0.5055  0.5159  1.7987
  132OSM   H15C14174   1.100   4.481   5.962 -1.0055  3.7503  0.5156
  132OSM    C1414175   1.346   4.618   6.140  0.3423  0.6044  0.4963
  132OSM   H14A14176   1.279   4.624   6.225  1.4357 -0.8120  1.4921
  132OSM   H14B14177   1.415   4.701   6.145  1.2047 -0.1439  1.3832
  132OSM   H14C14178   1.412   4.537   6.168  0.8699  1.3791  1.5789
  132OSM    C1314179   1.353   4.554   5.903  0.6190  0.3117  1.0653
  132OSM   H13A14180   1.416   4.471   5.933  0.2930  0.3661  1.9403
  132OSM   H13B14181   1.406   4.635   5.857  0.1950 -1.1652 -2.1398
  132OSM   H13C14182   1.293   4.507   5.827 -0.8363  1.4406  1.4857
  132OSM    C1214183   1.202   4.729   5.977 -0.2466  0.6520  0.4500
  132OSM   H12A14184   1.169   4.718   5.874  0.1015  0.4914  0.3556
  132OSM   H12B14185   1.278   4.804   5.986  0.9393 -0.7482  2.7344
  132OSM    C1114186   1.081   4.776   6.058  0.2940  0.4561 -0.0521
  132OSM   H11A14187   0.995   4.712   6.031  0.3051 -0.0755  1.1190
  132OSM   H11B14188   1.052   4.875   6.016 -1.2816  1.2645  2.8097
  132OSM      P14189   1.170   4.931   6.254  0.0507 -0.3335  0.0253
  132OSM    O1314190   1.305   4.951   6.192 -0.1340  0.4245  0.3578
  132OSM    O1414191   1.073   5.046   6.240 -0.3097 -0.1560  0.7006
  132OSM    O1114192   1.190   4.903   6.406  0.1536 -0.1333 -0.6004
  132OSM    O1214193   1.102   4.793   6.201  0.8010  0.5350 -0.8737
  132OSM    C1S14194   1.134   4.789   6.470  0.5519 -0.1042 -0.5408
  132OSM    H1S14195   1.185   4.696   6.436  2.0345  1.0395 -1.5260
  132OSM    H1T14196   1.025   4.772   6.464  0.1966  1.7937  0.3273
  132OSM     NF14197   1.162   4.679   6.694 -0.0684  0.7952  0.4281
  132OSM    HNF14198   1.069   4.652   6.719  0.6285 -3.1416 -0.9505
  132OSM    C2S14199   1.160   4.803   6.625  0.5021  0.2359  0.3997
  132OSM    H2S14200   1.263   4.844   6.634  0.6433  0.1731 -0.7853
  132OSM    C3S14201   1.063   4.914   6.680 -0.5628  0.4515 -0.7599
  132OSM    H3S14202   0.962   4.869   6.671 -0.1386 -0.6257 -0.1454
  132OSM     O314203   1.057   5.037   6.610 -0.3255  0.7783 -0.1952
  132OSM    HO314204   1.094   5.009   6.526 -1.0838 -0.7675 -0.0487
  132OSM    C4S14205   1.105   4.937   6.824  0.9990 -0.1668 -0.5201
  132OSM    H4S14206   1.063   4.862   6.893 -0.9908  1.0010 -0.4050
  132OSM    C5S14207   1.197   5.018   6.875  0.0755  0.6572  0.5128
  132OSM    H5S14208   1.258   5.084   6.812 -0.9777  0.2566 -0.9307
  132OSM    C6S14209   1.237   5.029   7.023 -0.2620  0.6693 -0.0622
  132OSM    H6S14210   1.305   5.116   7.029  0.9593 -0.2076 -1.0776
  132OSM    H6T14211   1.292   4.939   7.057 -2.6877 -1.1014 -0.6978
  132OSM    C7S14212   1.117   5.057   7.121 -0.2730  0.7382  0.1548
  132OSM    H7S14213   1.085   4.957   7.158 -3.9969  0.4657 -3.3793
  132OSM    H7T14214   1.031   5.107   7.071  0.9197  1.0197 -1.6631
  132OSM    C8S14215   1.170   5.132   7.248 -0.0924  0.5009  0.0031
  132OSM    H8S14216   1.122   5.230   7.233 -3.1815 -0.9263  0.1540
  132OSM    H8T14217   1.278   5.156   7.252 -0.5167  2.3539  0.4563
  132OSM    C9S14218   1.123   5.061   7.377 -0.5597 -0.5425  0.2077
  132OSM    H9S14219   1.157   4.955   7.374  0.1422 -0.2790 -2.3082
  132OSM    H9T14220   1.014   5.042   7.378 -1.0843  2.3338  1.1878
  132OSM   C10S14221   1.152   5.132   7.513 -0.1106  0.3324 -0.0786
  132OSM   H10S14222   1.084   5.221   7.512 -0.1950  0.3085 -3.5481
  132OSM   H10T14223   1.257   5.165   7.518 -0.3205  0.7037  2.1503
  132OSM   C11S14224   1.136   5.031   7.632  0.1666  0.1503  0.1875
  132OSM   H11S14225   1.218   4.956   7.630  0.0269  0.0102 -2.0137
  132OSM   H11T14226   1.034   4.988   7.625  0.0597  0.3735  0.3752
  132OSM   C12S14227   1.152   5.095   7.770  0.8026 -0.2802  0.9185
  132OSM   H12S14228   1.089   5.185   7.788 -1.2288 -1.2812 -0.9548
  132OSM   H12T14229   1.260   5.120   7.778  1.0096 -0.6047 -0.7760
  132OSM   C13S14230   1.123   5.011   7.894 -0.2238  0.1976  0.7852
  132OSM   H13S14231   1.187   4.921   7.893 -1.1290 -0.4570  0.6323
  132OSM   H13T14232   1.022   4.964   7.887  0.4396 -0.9906 -1.0365
  132OSM   C14S14233   1.142   5.083   8.033  0.7690 -0.3507  0.2264
  132OSM   H14S14234   1.161   5.003   8.108  0.2245  0.0292  0.7630
  132OSM   H14T14235   1.046   5.136   8.050 -0.2016 -1.7311 -0.7880
  132OSM   C15S14236   1.263   5.174   8.039  0.0176 -0.3221 -0.0885
  132OSM   H15S14237   1.262   5.255   7.963 -1.6355 -2.8993 -2.9191
  132OSM   H15T14238   1.363   5.127   8.041  0.1455 -0.0661  3.6527
  132OSM   C16S14239   1.269   5.254   8.177  0.3015 -0.1444  0.4679
  132OSM   H16S14240   1.175   5.310   8.199 -0.1990  0.0772 -2.0443
  132OSM   H16T14241   1.342   5.335   8.154  1.3622 -1.3006 -0.2519
  132OSM   C17S14242   1.316   5.177   8.298 -0.0573  0.2921  0.7366
  132OSM   H17S14243   1.355   5.249   8.374  0.2502 -0.4476  1.2809
  132OSM   H17T14244   1.402   5.116   8.265  1.4502  2.3803  0.6488
  132OSM   C18S14245   1.211   5.100   8.369  0.0207  0.1896  0.0049
  132OSM   H18S14246   1.242   5.064   8.470 -0.6142  1.5768  0.7140
  132OSM   H18T14247   1.194   5.002   8.319  0.3998  1.2978 -2.3563
  132OSM   H18U14248   1.115   5.153   8.385  0.0696  0.6145 -1.0700
  132OSM    C1F14249   1.255   4.583   6.683  0.1655  0.2546  0.5098
  132OSM     OF14250   1.348   4.592   6.601 -0.1337 -0.0017 -0.8496
  132OSM    C2F14251   1.230   4.451   6.759  0.4487  0.1324 -0.1077
  132OSM    H2F14252   1.232   4.369   6.684 -2.0411 -0.0283 -0.0087
  132OSM    H2G14253   1.128   4.455   6.800 -0.0972 -1.4499 -1.2598
  132OSM    C3F14254   1.338   4.437   6.874  0.5761  0.0588  0.2239
  132OSM    H3F14255   1.437   4.455   6.826  1.2340 -0.9057  1.1981
  132OSM    H3G14256   1.344   4.330   6.902  0.1224 -0.0187  0.0248
  132OSM    C4F14257   1.315   4.528   6.995  0.3980  0.8997 -0.6706
  132OSM    H4F14258   1.316   4.630   6.951 -0.4086  1.6900  1.1125
  132OSM    H4G14259   1.401   4.532   7.065 -0.8346 -0.6175  0.9706
  132OSM    C5F14260   1.178   4.506   7.062  0.7731 -0.3770 -0.3295
  132OSM    H5F14261   1.145   4.400   7.056  1.4288 -0.6587  0.8682
  132OSM    H5G14262   1.107   4.561   6.997  1.2603 -0.0036 -0.5569
  132OSM    C6F14263   1.169   4.550   7.204 -0.3179 -0.8491  0.3415
  132OSM    H6F14264   1.060   4.545   7.225 -0.5767 -1.5571 -1.1034
  132OSM    H6G14265   1.203   4.655   7.212  4.2152 -2.0211 -1.3563
  132OSM    C7F14266   1.238   4.466   7.305  0.1295  0.0098 -0.1700
  132OSM    H7F14267   1.349   4.466   7.301  0.1537 -1.8826 -0.2476
  132OSM    H7G14268   1.211   4.360   7.286 -1.0913  0.0136  1.4468
  132OSM    C8F14269   1.197   4.492   7.456  0.0618  0.0790  0.2959
  132OSM    H8F14270   1.086   4.499   7.454  0.1090  0.9229  0.5584
  132OSM    H8G14271   1.231   4.595   7.479 -0.1236  0.6406 -1.8578
  132OSM    C9F14272   1.237   4.383   7.552 -0.1892  0.2319 -0.2913
  132OSM    H9F14273   1.264   4.288   7.504  2.1581  1.7993 -2.1954
  132OSM   C10F14274   1.251   4.406   7.685  0.2955 -0.8328  0.0122
  132OSM   H10F14275   1.300   4.327   7.743 -0.7879 -1.6020 -0.1084
  132OSM   C11F14276   1.221   4.531   7.761 -0.3680 -0.5566  0.1122
  132OSM   H11F14277   1.156   4.602   7.705  1.0188  0.4063 -0.3104
  132OSM   H11G14278   1.311   4.591   7.791 -1.1132  1.3687 -1.3726
  132OSM   C12F14279   1.152   4.499   7.900 -0.2198  0.2254  0.4265
  132OSM   H12F14280   1.048   4.463   7.887  0.2962 -0.6104 -1.5428
  132OSM   H12G14281   1.141   4.593   7.959  2.2148  1.1186 -0.5114
  132OSM   C13F14282   1.231   4.402   7.987 -0.0378  0.5894 -0.0506
  132OSM   H13F14283   1.338   4.428   7.993  0.1466 -0.4136  1.1039
  132OSM   H13G14284   1.237   4.304   7.933 -0.0575  1.3655 -1.4924
  132OSM   C14F14285   1.172   4.370   8.122  0.3541  0.3516  0.0505
  132OSM   H14F14286   1.232   4.288   8.166 -2.7049 -1.7831  0.4409
  132OSM   H14G14287   1.070   4.326   8.112 -0.1592  2.0705 -2.6235
  132OSM   C15F14288   1.171   4.489   8.225  0.3520  0.2759 -0.4589
  132OSM   H15F14289   1.141   4.448   8.324 -0.3111  3.5601  0.7997
  132OSM   H15G14290   1.103   4.570   8.188 -0.3005  0.6663  1.5295
  132OSM   C16F14291   1.314   4.538   8.261 -0.0346  0.3501 -0.1653
  132OSM   H16F14292   1.365   4.590   8.177 -0.1935  0.9455  0.1059
  132OSM   H16G14293   1.376   4.450   8.289  0.0500  0.3705 -0.2839
  132OSM   C17F14294   1.313   4.627   8.388  0.1004 -0.3993  0.5756
  132OSM   H17F14295   1.416   4.659   8.413 -0.4999  2.0356  0.0450
  132OSM   H17G14296   1.273   4.572   8.476  1.5530  0.6167  1.9080
  132OSM   C18F14297   1.216   4.744   8.376  0.5216  0.4944 -0.3185
  132OSM   H18F14298   1.220   4.791   8.275 -0.1931  0.7463 -0.2319
  132OSM   H18G14299   1.235   4.823   8.451  1.7257 -2.1452  2.2332
  132OSM   H18H14300   1.112   4.704   8.377  1.3145 -1.6706 -1.3265
  133SAPE     N14301   3.387   2.125  10.678  0.2594  0.0373 -0.6879
  133SAPE   HN114302   3.327   2.210  10.679 -0.4173 -0.4463  0.8256
  133SAPE   HN214303   3.476   2.141  10.627  0.7301  2.9943  0.9073
  133SAPE   HN314304   3.332   2.065  10.613  1.6310 -0.4834 -1.3860
  133SAPE   C1214305   3.415   2.053  10.810  0.1435  0.5035 -0.4048
  133SAPE  H12A14306   3.319   2.060  10.866  0.5016  1.5236  0.1093
  133SAPE  H12B14307   3.491   2.107  10.871 -1.2260  0.7061  1.1804
  133SAPE   C1114308   3.453   1.913  10.774 -0.1801 -0.5539  0.2778
  133SAPE  H11A14309   3.374   1.863  10.713 -1.7575  0.9436  1.0311
  133SAPE  H11B14310   3.453   1.867  10.875  0.0201  0.9808  0.9966
  133SAPE     P14311   3.650   1.771  10.688 -0.3183  0.9048 -0.1006
  133SAPE   O1314312   3.786   1.803  10.637  0.3698  0.1754 -0.5107
  133SAPE   O1414313   3.648   1.692  10.814  0.2545  0.1751 -0.4616
  133SAPE   O1214314   3.577   1.915  10.714 -0.2719 -0.1355  0.8206
  133SAPE   O1114315   3.568   1.675  10.580 -0.2239  0.2347  0.2806
  133SAPE    C114316   3.489   1.738  10.476 -0.3913  0.0153  0.7331
  133SAPE    HA14317   3.441   1.660  10.414 -3.0379  2.2278 -0.1124
  133SAPE    HB14318   3.406   1.790  10.528 -0.4550  2.9082 -2.0833
  133SAPE    C214319   3.579   1.823  10.376  0.4006  0.0584  0.2115
  133SAPE    HS14320   3.635   1.906  10.424  0.4172  0.3686 -0.3341
  133SAPE   O2114321   3.487   1.871  10.272 -0.2943 -0.6383 -0.0962
  133SAPE   C2114322   3.403   1.962  10.318 -0.3082 -0.8608  0.1455
  133SAPE   O2214323   3.402   2.019  10.426  0.0728 -0.1271 -0.2244
  133SAPE   C2214324   3.309   2.001  10.206 -0.2601  0.0601 -0.7266
  133SAPE   H2R14325   3.246   1.911  10.188  1.6076 -1.6656  1.0588
  133SAPE   H2S14326   3.233   2.074  10.241 -1.2221 -2.0708  1.7264
  133SAPE    C314327   3.688   1.742  10.311  0.0069 -0.1794 -0.2150
  133SAPE    HX14328   3.637   1.664  10.251  0.5123 -0.8486  0.2154
  133SAPE    HY14329   3.743   1.688  10.391 -0.9651 -0.3485  0.3403
  133SAPE   O3114330   3.782   1.821  10.233  0.1897 -0.2658 -0.5675
  133SAPE   C3114331   3.757   1.834  10.103 -0.5756  0.4119  0.4743
  133SAPE   O3214332   3.687   1.760  10.039  0.1790  0.1963  0.4354
  133SAPE   C3214333   3.832   1.947  10.048 -0.7031  0.3700 -0.4863
  133SAPE   H2X14334   3.940   1.920  10.054 -0.9090  0.0425  1.8518
  133SAPE   H2Y14335   3.806   2.040  10.101  2.9248  1.4641 -0.4788
  133SAPE   C2314336   3.377   2.037  10.073 -0.5124 -0.2454 -0.0646
  133SAPE   H3R14337   3.305   2.077   9.999  1.4031  0.0410 -1.8190
  133SAPE   H3S14338   3.420   1.952  10.017  0.3130 -0.6103  1.0936
  133SAPE   C2414339   3.488   2.147  10.073 -0.0171  0.6930 -0.1204
  133SAPE   H4R14340   3.532   2.158   9.972 -2.5374  0.3843 -1.3106
  133SAPE   H4S14341   3.571   2.112  10.138 -1.2498 -0.8090  0.6949
  133SAPE   C2514342   3.446   2.274  10.138  0.7525 -0.1621 -0.0403
  133SAPE   H5R14343   3.440   2.276  10.248  2.3499  4.1978  0.0728
  133SAPE   C2614344   3.430   2.388  10.083  0.7169 -0.6360  0.7100
  133SAPE   H6R14345   3.413   2.475  10.149  0.5810  2.6851 -3.4811
  133SAPE   C2714346   3.443   2.425   9.932 -0.1181 -0.5166  0.2390
  133SAPE   H7R14347   3.339   2.422   9.893 -0.5994  0.2047  1.4580
  133SAPE   H7S14348   3.513   2.358   9.877  0.4357 -0.4708  0.8849
  133SAPE   C2814349   3.484   2.573   9.921  0.2730  0.0277 -0.9292
  133SAPE   H8R14350   3.478   2.626  10.017  0.7276 -1.0530 -0.2957
  133SAPE   C2914351   3.525   2.639   9.810 -0.1808  0.2569 -0.6457
  133SAPE   H9R14352   3.555   2.744   9.826 -1.2722  0.3303  1.0785
  133SAPE  C21014353   3.536   2.578   9.672  0.9192  0.3966 -0.1522
  133SAPE  H10R14354   3.524   2.643   9.583 -0.6697  0.1826 -0.1224
  133SAPE  H10S14355   3.463   2.495   9.661  1.3409 -0.1948  1.2881
  133SAPE  C21114356   3.678   2.517   9.653 -1.0113 -0.4299  0.0095
  133SAPE  H11R14357   3.694   2.409   9.643  1.3811 -0.1092  0.0413
  133SAPE  C21214358   3.791   2.591   9.648 -0.0172 -0.8033 -0.7042
  133SAPE  H12R14359   3.889   2.541   9.646 -0.0587 -1.1396  2.8128
  133SAPE  C21314360   3.806   2.742   9.653 -0.6814  0.3767 -0.4294
  133SAPE  H13R14361   3.707   2.790   9.673 -1.5006 -0.2549 -2.7080
  133SAPE  H13S14362   3.823   2.775   9.548  1.2441 -0.2080 -0.3156
  133SAPE  C21414363   3.912   2.791   9.743 -0.5105  0.0596  0.0346
  133SAPE  H14R14364   3.876   2.819   9.843 -1.0586  0.6753 -0.3325
  133SAPE  C21514365   4.037   2.834   9.706  0.4952  0.3837  0.5851
  133SAPE  H15R14366   4.100   2.879   9.783 -0.0913 -2.0264  2.5419
  133SAPE  C21614367   4.087   2.831   9.562 -0.0227 -0.1980  0.4959
  133SAPE  H16R14368   4.032   2.768   9.489 -2.8894  1.7251  0.9279
  133SAPE  H16S14369   4.192   2.795   9.561 -0.0611 -0.3525  1.3474
  133SAPE  C21714370   4.099   2.986   9.513  0.3135 -0.0817 -0.0605
  133SAPE  H17R14371   4.169   3.044   9.577 -1.5305  1.8631  0.2184
  133SAPE  H17S14372   4.001   3.036   9.525  0.8663  1.1794 -0.7385
  133SAPE  C21814373   4.162   2.990   9.374 -0.0299  0.4509 -0.4547
  133SAPE  H18R14374   4.123   2.911   9.307 -1.4263  0.6403  0.1198
  133SAPE  H18S14375   4.272   2.973   9.380 -0.2448 -1.5142 -1.5647
  133SAPE  C21914376   4.137   3.126   9.314 -0.1510  0.0897 -0.6599
  133SAPE  H19R14377   4.164   3.216   9.374 -0.2851  0.0138 -0.4858
  133SAPE  H19S14378   4.026   3.131   9.314 -0.1023  1.3699 -1.2201
  133SAPE  C22014379   4.188   3.135   9.173  0.5153 -0.2504 -0.2389
  133SAPE  H20R14380   4.137   3.223   9.127 -1.1728 -2.4553 -2.7129
  133SAPE  H20S14381   4.156   3.047   9.115 -0.4407 -1.5164  2.1305
  133SAPE  H20T14382   4.298   3.143   9.159  0.6408 -0.4222  0.6280
  133SAPE   C3314383   3.798   1.958   9.899  0.1908  0.2615 -0.1356
  133SAPE   H3X14384   3.689   1.950   9.881 -0.1450 -1.3909  2.4311
  133SAPE   H3Y14385   3.830   1.864   9.850  2.0879  0.4717  0.6621
  133SAPE   C3414386   3.854   2.087   9.836  0.1526  0.6393  0.5106
  133SAPE   H4X14387   3.963   2.076   9.817  0.4799 -1.4377  3.3366
  133SAPE   H4Y14388   3.853   2.174   9.905 -0.2289  0.6788  0.4539
  133SAPE   C3514389   3.799   2.133   9.696  1.1817 -0.4390  0.3270
  133SAPE   H5X14390   3.854   2.227   9.672 -0.7963  0.9261  0.9801
  133SAPE   H5Y14391   3.694   2.164   9.718  1.5872  0.9145  0.3770
  133SAPE   C3614392   3.782   2.032   9.584  0.2010  0.7039 -0.1446
  133SAPE   H6X14393   3.716   1.949   9.619 -0.3340  0.0118 -2.6255
  133SAPE   H6Y14394   3.883   1.996   9.557 -0.4541  0.3905 -2.3116
  133SAPE   C3714395   3.714   2.101   9.456 -0.1039 -0.1351  0.2557
  133SAPE   H7X14396   3.617   2.137   9.497 -0.5608 -0.2785 -0.6901
  133SAPE   H7Y14397   3.681   2.023   9.384 -1.0627 -0.9855  1.5865
  133SAPE   C3814398   3.798   2.209   9.390 -0.0832  0.5570  0.1207
  133SAPE   H8X14399   3.891   2.162   9.352 -0.6860 -0.2944 -0.3273
  133SAPE   H8Y14400   3.824   2.283   9.469  0.2694 -0.0864  0.6059
  133SAPE   C3914401   3.722   2.289   9.286  0.4290 -0.0404 -0.5017
  133SAPE   H9X14402   3.778   2.379   9.255 -1.2477  1.7360  1.4838
  133SAPE   H9Y14403   3.622   2.312   9.331  0.1474  0.1342 -1.2206
  133SAPE  C31014404   3.699   2.209   9.148 -0.3335  0.0983 -0.6746
  133SAPE  H10X14405   3.644   2.118   9.181 -0.8684  1.0116  1.0152
  133SAPE  H10Y14406   3.798   2.179   9.108  0.2659  1.6551 -0.3821
  133SAPE  C31114407   3.608   2.275   9.041 -0.2767 -0.5788 -0.0789
  133SAPE  H11X14408   3.665   2.359   8.993  1.0038 -1.0048  0.6773
  133SAPE  H11Y14409   3.522   2.326   9.089  0.1531 -1.9465  2.1741
  133SAPE  C31214410   3.560   2.175   8.943  0.2713 -0.3984  0.0883
  133SAPE  H12X14411   3.491   2.109   9.000 -2.2397  1.0624 -1.2057
  133SAPE  H12Y14412   3.637   2.114   8.890  0.1735 -1.1012  0.7342
  133SAPE  C31314413   3.476   2.242   8.833  0.4034  0.5804  0.3690
  133SAPE  H13X14414   3.531   2.331   8.795  0.4420  0.8784  1.1176
  133SAPE  H13Y14415   3.384   2.286   8.877  0.0933  1.0785 -0.7377
  133SAPE  C31414416   3.436   2.149   8.714 -0.3863 -0.2941 -0.6414
  133SAPE  H14X14417   3.383   2.063   8.761 -0.2472 -0.8461 -1.4890
  133SAPE  H14Y14418   3.534   2.117   8.673  1.5442  1.8902  2.0640
  133SAPE  C31514419   3.349   2.217   8.616 -0.3819  0.0908  0.8836
  133SAPE  H15X14420   3.391   2.317   8.591 -2.1529  0.2948 -1.3870
  133SAPE  H15Y14421   3.250   2.230   8.665 -0.7976  0.6096 -0.0727
  133SAPE  C31614422   3.319   2.134   8.491  0.2115  0.3632  0.2706
  133SAPE  H16X14423   3.239   2.058   8.505  1.2274 -0.7722  0.0304
  133SAPE  H16Y14424   3.406   2.086   8.441 -0.7056  1.8994 -2.9082
  133SAPE  C31714425   3.262   2.216   8.374 -0.3520 -0.5850  0.3857
  133SAPE  H17X14426   3.225   2.167   8.282  1.3743 -3.2416  1.0331
  133SAPE  H17Y14427   3.343   2.279   8.331  0.5813 -1.2286  1.1739
  133SAPE  C31814428   3.151   2.311   8.418  0.7219  0.6133 -0.0623
  133SAPE  H18X14429   3.090   2.249   8.488  1.1170 -2.0327 -1.9937
  133SAPE  H18Y14430   3.090   2.346   8.332  0.5828 -0.1543 -0.2786
  133SAPE  H18Z14431   3.189   2.399   8.474  1.7721 -0.7423  1.4396
  134SAPE     N14432   5.847   2.927  10.683  0.5339  0.3357  0.3387
  134SAPE   HN114433   5.815   2.987  10.761 -1.0248  0.5737 -0.4577
  134SAPE   HN214434   5.951   2.927  10.687  0.4657 -0.6696  2.3779
  134SAPE   HN314435   5.820   2.963  10.589  0.7397 -0.9540 -0.2261
  134SAPE   C1214436   5.800   2.789  10.709 -0.3360  0.6576  0.4641
  134SAPE  H12A14437   5.699   2.771  10.668 -0.3044  0.4771  0.4655
  134SAPE  H12B14438   5.796   2.768  10.818  0.8934  0.8875  0.5647
  134SAPE   C1114439   5.905   2.689  10.648 -0.2513  0.4473  0.1304
  134SAPE  H11A14440   6.005   2.724  10.681  0.3822 -1.8134  0.6999
  134SAPE  H11B14441   5.902   2.684  10.537  0.8157  0.1263  0.1018
  134SAPE     P14442   5.843   2.440  10.604 -0.0570  0.1646  0.2852
  134SAPE   O1314443   5.810   2.321  10.686 -0.2633 -0.4294  0.2974
  134SAPE   O1414444   5.728   2.483  10.520  0.2138  0.4475 -0.9238
  134SAPE   O1214445   5.884   2.562  10.693  0.1113  0.3113 -0.6407
  134SAPE   O1114446   5.964   2.408  10.511  0.3891  0.6896 -0.2337
  134SAPE    C114447   6.104   2.415  10.556  0.5720  0.5365 -0.3811
  134SAPE    HA14448   6.121   2.510  10.610 -2.4259  1.2028 -0.4880
  134SAPE    HB14449   6.120   2.335  10.632 -0.0865  1.1458  0.4228
  134SAPE    C214450   6.211   2.410  10.441  0.0851  0.1751 -0.3793
  134SAPE    HS14451   6.312   2.423  10.486  0.0734  0.6962 -0.4963
  134SAPE   O2114452   6.184   2.522  10.361  0.2889 -0.4623 -0.1865
  134SAPE   C2114453   6.233   2.644  10.397 -0.4277  0.3206 -0.2303
  134SAPE   O2214454   6.298   2.666  10.500  0.2646  0.7475 -0.4821
  134SAPE   C2214455   6.197   2.737  10.278 -0.2050  0.0321  0.9842
  134SAPE   H2R14456   6.087   2.734  10.262 -0.2663 -0.2371  1.4400
  134SAPE   H2S14457   6.216   2.844  10.301 -0.0621  0.4530 -1.0417
  134SAPE    C314458   6.213   2.273  10.369 -0.0842 -0.2843  0.9448
  134SAPE    HX14459   6.119   2.239  10.319  0.8771 -0.1569 -0.9989
  134SAPE    HY14460   6.240   2.202  10.450  0.0375 -2.1889 -0.7351
  134SAPE   O3114461   6.319   2.273  10.270 -0.1111 -0.5308 -1.0779
  134SAPE   C3114462   6.281   2.324  10.151  0.0190  0.3432  0.5192
  134SAPE   O3214463   6.171   2.346  10.118  0.9555  0.3085 -0.6685
  134SAPE   C3214464   6.400   2.356  10.069  0.2203 -0.3789 -0.6731
  134SAPE   H2X14465   6.482   2.283  10.083 -1.4722 -2.4148 -1.2373
  134SAPE   H2Y14466   6.441   2.455  10.098 -0.8736  0.5878 -2.3341
  134SAPE   C2314467   6.269   2.704  10.143 -0.1013  0.3690 -0.3706
  134SAPE   H3R14468   6.233   2.605  10.108 -2.2463  0.3810  1.6944
  134SAPE   H3S14469   6.377   2.691  10.167 -0.1656  0.1452 -0.2070
  134SAPE   C2414470   6.257   2.819  10.041 -0.1810 -0.1587 -0.2716
  134SAPE   H4R14471   6.278   2.912  10.098 -3.1956  1.2134 -1.3279
  134SAPE   H4S14472   6.152   2.836  10.011 -0.6231 -1.6239  0.3923
  134SAPE   C2514473   6.341   2.816   9.917 -0.1373  0.2937 -0.3616
  134SAPE   H5R14474   6.450   2.810   9.935 -0.5041  1.4543  2.4726
  134SAPE   C2614475   6.296   2.805   9.789 -0.3534  0.1463 -0.3730
  134SAPE   H6R14476   6.368   2.817   9.706 -1.3730  3.2641 -0.8790
  134SAPE   C2714477   6.149   2.789   9.748 -0.2481  0.1561  0.4343
  134SAPE   H7R14478   6.107   2.885   9.710 -0.3646 -0.7429 -1.7517
  134SAPE   H7S14479   6.073   2.762   9.824 -1.3021  0.0280 -0.6511
  134SAPE   C2814480   6.135   2.672   9.652 -0.0969  0.6176 -0.8660
  134SAPE   H8R14481   6.097   2.575   9.689 -0.1184  0.1575 -2.0941
  134SAPE   C2914482   6.170   2.676   9.519 -0.2833  0.4761 -0.1417
  134SAPE   H9R14483   6.177   2.583   9.461 -0.8914  1.4776 -1.8413
  134SAPE  C21014484   6.235   2.791   9.442  0.3122  0.7130  0.6119
  134SAPE  H10R14485   6.315   2.741   9.383 -0.7308 -0.4511  0.1652
  134SAPE  H10S14486   6.276   2.867   9.512 -0.6374  1.6580  0.1542
  134SAPE  C21114487   6.139   2.870   9.362 -0.4737 -0.4908  0.4184
  134SAPE  H11R14488   6.047   2.896   9.416 -1.2694 -0.0805 -1.1070
  134SAPE  C21214489   6.158   2.920   9.242 -1.1697 -0.0609  0.3156
  134SAPE  H12R14490   6.076   2.959   9.179 -1.9404  0.0419  1.3815
  134SAPE  C21314491   6.283   2.906   9.159 -1.0181  0.5500  0.5904
  134SAPE  H13R14492   6.368   2.904   9.230 -0.7684 -0.7753  0.2661
  134SAPE  H13S14493   6.306   2.989   9.088  0.3775  0.2023  0.6265
  134SAPE  C21414494   6.287   2.781   9.071  0.1571  0.2122  0.2985
  134SAPE  H14R14495   6.291   2.691   9.135 -0.0065 -1.0517 -1.4567
  134SAPE  C21514496   6.288   2.782   8.935 -0.4791 -0.6530 -0.4183
  134SAPE  H15R14497   6.301   2.686   8.882 -0.7705 -0.6118 -0.5640
  134SAPE  C21614498   6.285   2.903   8.856  0.5394 -0.3529 -0.2517
  134SAPE  H16R14499   6.358   2.980   8.888  0.7862 -0.1616 -1.2552
  134SAPE  H16S14500   6.186   2.951   8.875  0.1774 -0.7702 -1.0723
  134SAPE  C21714501   6.312   2.884   8.703  0.6663  0.1187  1.0826
  134SAPE  H17R14502   6.299   2.979   8.648  1.7049 -1.2391 -1.6160
  134SAPE  H17S14503   6.237   2.811   8.666  1.2304 -0.0808  0.3239
  134SAPE  C21814504   6.451   2.819   8.672  0.0876 -0.2280 -0.1524
  134SAPE  H18R14505   6.470   2.721   8.720  1.5835  0.3238  0.4121
  134SAPE  H18S14506   6.521   2.886   8.726 -1.7470  0.9628  0.8018
  134SAPE  C21914507   6.486   2.826   8.530  0.8632  0.3356  0.6469
  134SAPE  H19R14508   6.594   2.803   8.524  0.7051 -0.1689 -0.3630
  134SAPE  H19S14509   6.456   2.921   8.481  0.4481  0.7707  1.7304
  134SAPE  C22014510   6.418   2.712   8.451  0.1597  0.2336  0.0674
  134SAPE  H20R14511   6.442   2.703   8.343  0.2052  1.6579 -0.0494
  134SAPE  H20S14512   6.311   2.739   8.458 -0.2551 -0.7155 -2.1447
  134SAPE  H20T14513   6.428   2.618   8.510 -0.2962  0.2151  0.1120
  134SAPE   C3314514   6.362   2.382   9.922 -0.5141 -0.0111  0.0229
  134SAPE   H3X14515   6.285   2.461   9.907 -1.3330 -0.6784  0.6351
  134SAPE   H3Y14516   6.317   2.285   9.891 -0.5354  0.2356 -0.7148
  134SAPE   C3414517   6.488   2.428   9.837 -0.1420  0.8468  0.7297
  134SAPE   H4X14518   6.575   2.363   9.862 -1.0569  0.2576  2.4714
  134SAPE   H4Y14519   6.529   2.524   9.874  1.2289  1.0473 -1.2072
  134SAPE   C3514520   6.455   2.449   9.683  0.4393  0.9082  0.9459
  134SAPE   H5X14521   6.533   2.519   9.646  0.6635  0.1129 -0.1225
  134SAPE   H5Y14522   6.358   2.501   9.669 -0.5725 -0.4154  2.8319
  134SAPE   C3614523   6.439   2.314   9.607  0.2020  0.6166  0.3191
  134SAPE   H6X14524   6.387   2.237   9.668 -1.9781  2.0155  0.2516
  134SAPE   H6Y14525   6.540   2.276   9.580 -0.3014 -1.7694  1.6692
  134SAPE   C3714526   6.369   2.324   9.471 -0.8682  0.0317 -0.2667
  134SAPE   H7X14527   6.263   2.350   9.490 -0.4921  0.8576  0.7591
  134SAPE   H7Y14528   6.370   2.225   9.421  0.4515 -0.3120  0.3951
  134SAPE   C3814529   6.443   2.417   9.379  0.2589  0.0021  0.8799
  134SAPE   H8X14530   6.551   2.393   9.371  0.2969  0.4557 -0.1456
  134SAPE   H8Y14531   6.439   2.528   9.386 -0.2226  0.1235 -0.8510
  134SAPE   C3914532   6.396   2.386   9.238  0.2042  0.4911  0.6975
  134SAPE   H9X14533   6.286   2.401   9.230  0.0682 -1.1014 -0.7571
  134SAPE   H9Y14534   6.402   2.283   9.198 -1.6632  1.7937 -3.1788
  134SAPE  C31014535   6.448   2.491   9.136 -0.1342  0.0620 -0.0529
  134SAPE  H10X14536   6.462   2.588   9.188 -1.6440  0.4361 -0.3265
  134SAPE  H10Y14537   6.366   2.500   9.062 -1.9234 -0.0410  1.8884
  134SAPE  C31114538   6.584   2.455   9.064 -0.2731  0.2128 -0.5908
  134SAPE  H11X14539   6.564   2.358   9.014  0.6373  0.1393 -0.8221
  134SAPE  H11Y14540   6.657   2.434   9.145  0.6622  0.8537 -1.2553
  134SAPE  C31214541   6.634   2.547   8.955  0.1606 -0.4940 -0.7247
  134SAPE  H12X14542   6.659   2.635   9.017 -0.6091 -1.3757  0.8479
  134SAPE  H12Y14543   6.552   2.591   8.894 -1.1341  0.6648  1.7991
  134SAPE  C31314544   6.749   2.495   8.870 -0.0203 -0.6476  0.2285
  134SAPE  H13X14545   6.712   2.403   8.820 -0.4807 -1.2715  1.6910
  134SAPE  H13Y14546   6.837   2.485   8.936 -0.9869  3.2071  2.3124
  134SAPE  C31414547   6.787   2.587   8.756 -0.1633 -0.3462 -0.7343
  134SAPE  H14X14548   6.797   2.691   8.792  2.0554 -0.1908 -1.7109
  134SAPE  H14Y14549   6.701   2.587   8.684 -1.8571 -0.2714  1.2524
  134SAPE  C31514550   6.922   2.550   8.692  0.0779  0.0152 -0.3637
  134SAPE  H15X14551   6.917   2.464   8.623  0.4153 -1.5045  1.4394
  134SAPE  H15Y14552   6.994   2.522   8.773 -0.1673 -2.9962 -1.1395
  134SAPE  C31614553   6.988   2.662   8.614 -0.3870 -0.4452  0.1283
  134SAPE  H16X14554   7.095   2.635   8.608 -0.6988 -1.5743 -0.5907
  134SAPE  H16Y14555   6.973   2.762   8.661  0.9858 -0.1650 -0.0249
  134SAPE  C31714556   6.921   2.668   8.473 -0.0639  0.3175  0.1947
  134SAPE  H17X14557   6.817   2.699   8.496  0.5677  3.0153 -0.3842
  134SAPE  H17Y14558   6.931   2.571   8.422  0.4410 -0.0163  0.9145
  134SAPE  C31814559   6.983   2.779   8.388  0.2003 -0.4053 -0.3375
  134SAPE  H18X14560   6.920   2.803   8.300  2.7623 -0.9489 -2.3715
  134SAPE  H18Y14561   7.085   2.751   8.355 -0.0740 -1.4954 -0.2800
  134SAPE  H18Z14562   6.987   2.873   8.448  3.0298  0.3273 -1.6200
  135SAPE     N14563   6.174   0.193  11.027 -0.3200  0.1190  0.1187
  135SAPE   HN114564   6.175   0.101  10.978  0.9123  0.2927 -0.2045
  135SAPE   HN214565   6.257   0.198  11.090  1.7171  1.5258 -2.5683
  135SAPE   HN314566   6.096   0.197  11.094  0.2138  0.1599  0.7406
  135SAPE   C1214567   6.188   0.309  10.934  0.5068 -0.1147 -0.1769
  135SAPE  H12A14568   6.280   0.291  10.875  0.6217  0.2107 -0.1012
  135SAPE  H12B14569   6.218   0.395  10.997  0.9291  0.0921 -0.6587
  135SAPE   C1114570   6.057   0.330  10.854 -0.4357 -0.0344  0.9565
  135SAPE  H11A14571   6.063   0.429  10.804 -0.5685 -1.0987 -1.1816
  135SAPE  H11B14572   5.970   0.343  10.922 -2.1709  0.1803 -1.2605
  135SAPE     P14573   6.025   0.217  10.612  0.3114  0.5179 -0.2020
  135SAPE   O1314574   6.164   0.210  10.561 -0.0105  0.7793 -0.8115
  135SAPE   O1414575   5.938   0.102  10.577 -0.1249  0.0568  0.2625
  135SAPE   O1214576   6.031   0.215  10.769  0.0152  0.9264  0.1969
  135SAPE   O1114577   5.959   0.344  10.567 -0.1486  0.1318  0.1977
  135SAPE    C114578   5.836   0.394  10.601  0.4526 -0.0140 -0.4311
  135SAPE    HA14579   5.771   0.320  10.653 -1.1313  2.2745  0.9133
  135SAPE    HB14580   5.857   0.481  10.667  1.2177  0.1225 -0.8499
  135SAPE    C214581   5.756   0.445  10.477 -0.3633 -0.8733  0.2884
  135SAPE    HS14582   5.649   0.469  10.497 -0.0055  2.0685 -0.9587
  135SAPE   O2114583   5.756   0.356  10.366 -0.1698  0.1185 -0.7850
  135SAPE   C2114584   5.705   0.239  10.403  0.3659  0.0384 -1.2382
  135SAPE   O2214585   5.625   0.217  10.490 -0.2011 -0.0470 -0.7743
  135SAPE   C2214586   5.755   0.133  10.308  0.1975 -0.1305 -0.7476
  135SAPE   H2R14587   5.832   0.176  10.240  0.1388 -1.1952 -1.4964
  135SAPE   H2S14588   5.807   0.065  10.379  0.7243 -0.5517 -1.5317
  135SAPE    C314589   5.824   0.576  10.421  0.1457 -0.3617 -0.1575
  135SAPE    HX14590   5.929   0.553  10.396  0.0329  1.2061 -2.2290
  135SAPE    HY14591   5.849   0.656  10.495  0.7667  0.0114 -0.7730
  135SAPE   O3114592   5.767   0.626  10.299 -0.1978  0.0658  0.1202
  135SAPE   C3114593   5.653   0.698  10.306 -1.4370  0.2901  0.1398
  135SAPE   O3214594   5.606   0.735  10.412 -0.5474  0.2134 -0.2865
  135SAPE   C3214595   5.599   0.717  10.163 -0.4877  0.3283  0.2072
  135SAPE   H2X14596   5.680   0.740  10.091  0.6190 -1.1532  0.9642
  135SAPE   H2Y14597   5.548   0.816  10.153 -0.1155  0.3560 -1.6801
  135SAPE   C2314598   5.655   0.058  10.225  0.2336 -0.7301 -0.0567
  135SAPE   H3R14599   5.607  -0.020  10.288 -2.2546  0.2860 -0.6404
  135SAPE   H3S14600   5.713   0.006  10.146  0.9322  1.0339 -0.7252
  135SAPE   C2414601   5.549   0.139  10.158 -0.0043 -0.4405  0.3321
  135SAPE   H4R14602   5.492   0.206  10.226 -0.0002  0.8508 -0.9225
  135SAPE   H4S14603   5.477   0.064  10.119  0.2129 -0.7065  0.4372
  135SAPE   C2514604   5.603   0.224  10.047  0.4780  0.4317  0.3661
  135SAPE   H5R14605   5.682   0.296  10.075 -0.9641  1.9145  0.6671
  135SAPE   C2614606   5.570   0.213   9.920 -0.0664  1.1958  0.0976
  135SAPE   H6R14607   5.616   0.285   9.850  0.8770 -0.1931 -0.7273
  135SAPE   C2714608   5.477   0.113   9.855 -0.0765  0.6995 -0.6130
  135SAPE   H7R14609   5.499   0.011   9.896  0.6091  0.4607 -1.5613
  135SAPE   H7S14610   5.511   0.093   9.751 -0.0116  0.2754 -0.5147
  135SAPE   C2814611   5.332   0.151   9.885  0.9747  0.3424 -0.3053
  135SAPE   H8R14612   5.303   0.143   9.991 -1.2061  0.6212 -0.8359
  135SAPE   C2914613   5.247   0.198   9.799  0.0712 -1.0383  0.1430
  135SAPE   H9R14614   5.147   0.227   9.836  1.0793  0.8150  1.4436
  135SAPE  C21014615   5.270   0.219   9.649 -0.2839  0.3174  1.0051
  135SAPE  H10R14616   5.279   0.117   9.607 -0.5173  1.1868 -1.1963
  135SAPE  H10S14617   5.374   0.254   9.631 -1.0710  2.5413  0.5993
  135SAPE  C21114618   5.168   0.301   9.574 -0.2771  0.6774  0.0833
  135SAPE  H11R14619   5.133   0.392   9.624  2.5614  0.4387  2.7047
  135SAPE  C21214620   5.119   0.279   9.451  0.6635 -0.5761  0.1181
  135SAPE  H12R14621   5.046   0.348   9.407  0.2547  0.0091  1.7070
  135SAPE  C21314622   5.158   0.165   9.361 -0.2937  0.1963 -0.4529
  135SAPE  H13R14623   5.069   0.133   9.303  0.5109  0.1725 -1.7082
  135SAPE  H13S14624   5.176   0.063   9.402  0.3052 -0.0913 -1.4199
  135SAPE  C21414625   5.278   0.201   9.274 -0.7979 -1.0996  0.0908
  135SAPE  H14R14626   5.374   0.174   9.321  0.2522  0.1895 -1.2593
  135SAPE  C21514627   5.288   0.255   9.153 -0.2285  0.1437  0.0065
  135SAPE  H15R14628   5.394   0.254   9.123 -0.6787 -0.7491 -1.6094
  135SAPE  C21614629   5.187   0.299   9.048  0.1124  0.0315 -0.0938
  135SAPE  H16R14630   5.210   0.401   9.010  0.2651 -0.2471 -0.7463
  135SAPE  H16S14631   5.086   0.305   9.096  0.3853  0.5528  0.4288
  135SAPE  C21714632   5.190   0.207   8.923  0.5550 -0.3934 -0.4522
  135SAPE  H17R14633   5.172   0.099   8.945  2.0061 -0.3977  0.7361
  135SAPE  H17S14634   5.291   0.213   8.878  0.9717 -2.2834  0.1782
  135SAPE  C21814635   5.093   0.259   8.812 -0.5481 -0.6875  0.5487
  135SAPE  H18R14636   5.000   0.287   8.865 -1.4463  0.3950 -1.5187
  135SAPE  H18S14637   5.081   0.181   8.734  1.3210 -1.1506  0.6885
  135SAPE  C21914638   5.147   0.394   8.752  0.9128 -0.3801 -0.7844
  135SAPE  H19R14639   5.170   0.464   8.835  0.0630 -0.6715 -0.2902
  135SAPE  H19S14640   5.064   0.430   8.687 -0.3884  0.9478  1.5574
  135SAPE  C22014641   5.267   0.378   8.665  0.7802 -0.2180 -0.3937
  135SAPE  H20R14642   5.351   0.342   8.728  0.1892  0.2641  0.6849
  135SAPE  H20S14643   5.280   0.480   8.623  0.7338 -0.1881 -0.3337
  135SAPE  H20T14644   5.242   0.313   8.578 -0.3279  1.8256 -1.6330
  135SAPE   C3314645   5.516   0.597  10.115 -0.2832 -0.2504  0.8874
  135SAPE   H3X14646   5.422   0.591  10.175 -0.1576  3.0251  1.4932
  135SAPE   H3Y14647   5.577   0.508  10.141 -1.2202 -1.4525 -0.9036
  135SAPE   C3414648   5.491   0.595   9.959  0.9285 -0.2807 -0.1547
  135SAPE   H4X14649   5.428   0.683   9.934  0.0712 -0.3755  1.6109
  135SAPE   H4Y14650   5.435   0.500   9.946  0.0772  0.1580  0.2560
  135SAPE   C3514651   5.615   0.600   9.873  0.0907 -0.8467 -0.5294
  135SAPE   H5X14652   5.686   0.528   9.919  1.9663  0.3886 -1.4159
  135SAPE   H5Y14653   5.661   0.701   9.881 -0.4207 -0.7897  2.3592
  135SAPE   C3614654   5.593   0.569   9.728  0.0101 -0.4978  0.3654
  135SAPE   H6X14655   5.519   0.638   9.682 -1.1946  0.1605  3.2134
  135SAPE   H6Y14656   5.542   0.471   9.731 -1.0925  0.0833  0.8937
  135SAPE   C3714657   5.721   0.582   9.653  0.0747  0.3528  0.3999
  135SAPE   H7X14658   5.780   0.488   9.657 -0.4279  0.0968  2.3561
  135SAPE   H7Y14659   5.788   0.659   9.698 -0.0106  0.6516  0.0176
  135SAPE   C3814660   5.699   0.606   9.501  0.1771 -0.5708  0.2216
  135SAPE   H8X14661   5.790   0.656   9.459 -0.6605 -1.1522 -2.3460
  135SAPE   H8Y14662   5.602   0.657   9.485 -0.4681 -1.6085  0.8507
  135SAPE   C3914663   5.691   0.484   9.418 -0.6574  0.5026 -0.4493
  135SAPE   H9X14664   5.608   0.424   9.463 -0.9964  1.3044 -0.0059
  135SAPE   H9Y14665   5.783   0.422   9.426 -1.3493 -0.4321  0.4588
  135SAPE  C31014666   5.636   0.512   9.279 -0.0630 -0.4669  0.2511
  135SAPE  H10X14667   5.555   0.588   9.280 -2.4005 -2.9001 -0.3529
  135SAPE  H10Y14668   5.592   0.432   9.215 -1.0622 -0.1885  0.5883
  135SAPE  C31114669   5.745   0.555   9.194 -0.0757  0.4892  0.2178
  135SAPE  H11X14670   5.816   0.473   9.173  0.8480  1.5502 -0.8966
  135SAPE  H11Y14671   5.802   0.636   9.245  2.5469 -2.6076  2.4236
  135SAPE  C31214672   5.697   0.598   9.053  0.6111  0.6540 -0.4143
  135SAPE  H12X14673   5.600   0.653   9.054 -0.4285 -1.1579  0.2169
  135SAPE  H12Y14674   5.678   0.514   8.983  1.6399 -1.1862  1.4599
  135SAPE  C31314675   5.787   0.705   8.984  0.4967  0.2884 -0.7630
  135SAPE  H13X14676   5.824   0.775   9.062  1.1071 -1.8192  0.8848
  135SAPE  H13Y14677   5.730   0.763   8.908  1.2271 -0.4153 -1.8613
  135SAPE  C31414678   5.919   0.653   8.908  0.3736  0.1533 -0.3604
  135SAPE  H14X14679   5.988   0.611   8.984 -0.4710  0.0435  0.3555
  135SAPE  H14Y14680   5.962   0.746   8.865  3.3188  0.1578  2.4247
  135SAPE  C31514681   5.897   0.550   8.798  0.3178 -0.2019  0.2850
  135SAPE  H15X14682   5.851   0.588   8.705  2.2137 -0.6147 -0.8572
  135SAPE  H15Y14683   5.840   0.462   8.836  0.0969  0.2956  1.1062
  135SAPE  C31614684   6.030   0.485   8.749  0.0327 -0.2978  0.6001
  135SAPE  H16X14685   6.069   0.408   8.819 -0.9338 -0.6391  0.7658
  135SAPE  H16Y14686   6.099   0.572   8.757 -1.7622  1.1645  0.4196
  135SAPE  C31714687   6.011   0.427   8.614  0.0622  0.4080 -0.6819
  135SAPE  H17X14688   5.984   0.509   8.544  0.1016  1.1581  0.1748
  135SAPE  H17Y14689   5.924   0.360   8.603  0.3288  0.5496 -4.2431
  135SAPE  C31814690   6.129   0.335   8.578  0.7858  0.3975  0.2705
  135SAPE  H18X14691   6.138   0.252   8.650  1.6016  0.8225  0.6733
  135SAPE  H18Y14692   6.218   0.401   8.585 -0.1558  1.6156  1.0538
  135SAPE  H18Z14693   6.105   0.306   8.473 -0.4205  1.2201  0.3027
  136SAPE     N14694   0.747   1.452  10.752 -0.6515  0.2056 -0.3525
  136SAPE   HN114695   0.740   1.418  10.654 -0.4691  0.5023 -0.4694
  136SAPE   HN214696   0.658   1.499  10.776 -1.8956 -1.3271 -1.8935
  136SAPE   HN314697   0.823   1.524  10.757  1.9825 -2.5872  1.4569
  136SAPE   C1214698   0.775   1.332  10.843  1.0843 -0.7009 -0.2180
  136SAPE  H12A14699   0.685   1.267  10.829 -1.3326  2.3158  0.6629
  136SAPE  H12B14700   0.769   1.368  10.948  0.7787 -2.7039  0.4672
  136SAPE   C1114701   0.908   1.276  10.798  0.3923 -0.2818  0.7326
  136SAPE  H11A14702   0.981   1.359  10.789  1.3709 -1.3020 -0.9750
  136SAPE  H11B14703   0.902   1.234  10.695  1.7813 -0.3415  0.6697
  136SAPE     P14704   0.959   1.032  10.863  0.0858 -0.3847 -0.2335
  136SAPE   O1314705   1.056   0.971  10.954 -0.8078  0.3255  0.4180
  136SAPE   O1414706   0.817   0.992  10.870 -0.6011  0.3212  0.7585
  136SAPE   O1214707   0.958   1.190  10.891  0.1136  0.1331  0.2331
  136SAPE   O1114708   1.015   1.019  10.710  0.1418  0.3986 -0.1931
  136SAPE    C114709   1.142   1.067  10.664 -0.3468  0.8075  0.2065
  136SAPE    HA14710   1.166   1.175  10.669  1.8857  0.3585 -0.5533
  136SAPE    HB14711   1.226   1.030  10.726 -1.6821  0.7523  2.0134
  136SAPE    C214712   1.185   1.021  10.522 -0.4719 -0.3564  0.0526
  136SAPE    HS14713   1.207   0.912  10.524  0.6047 -0.1563 -0.8799
  136SAPE   O2114714   1.301   1.095  10.470 -0.0478  0.3583 -0.1147
  136SAPE   C2114715   1.417   1.046  10.502 -0.3819  0.1071 -0.5481
  136SAPE   O2214716   1.441   0.947  10.572 -0.0901 -0.0686 -0.0740
  136SAPE   C2214717   1.532   1.103  10.422  0.0250 -0.4079  0.3033
  136SAPE   H2R14718   1.544   1.208  10.455  1.4853  0.1284 -1.8488
  136SAPE   H2S14719   1.625   1.048  10.447  0.0675 -0.5764 -0.2145
  136SAPE    C314720   1.073   1.043  10.418 -0.2057  0.3244  0.3625
  136SAPE    HX14721   1.040   1.141  10.458  0.7503 -0.1811  2.4216
  136SAPE    HY14722   0.992   0.970  10.436  0.4915 -0.6643 -0.4448
  136SAPE   O3114723   1.121   1.058  10.278  0.1365 -0.2484 -0.1648
  136SAPE   C3114724   1.100   0.951  10.197  0.4491  0.9097  0.1618
  136SAPE   O3214725   1.065   0.840  10.242  0.3510 -0.0569 -0.2419
  136SAPE   C3214726   1.128   0.991  10.050  0.0808 -0.0588 -0.1291
  136SAPE   H2X14727   1.225   1.046  10.042  0.4850 -0.8077 -0.4371
  136SAPE   H2Y14728   1.044   1.060  10.027  1.7177  1.9864 -0.1348
  136SAPE   C2314729   1.511   1.105  10.269  0.1815 -0.4851  0.4745
  136SAPE   H3R14730   1.604   1.134  10.216 -0.2767  0.1990  0.0442
  136SAPE   H3S14731   1.435   1.183  10.245  0.6743  0.4854  1.9498
  136SAPE   C2414732   1.464   0.970  10.207 -0.3114 -0.5833 -0.0530
  136SAPE   H4R14733   1.448   0.982  10.098  2.6761  2.7490 -0.2360
  136SAPE   H4S14734   1.373   0.940  10.262  0.0234 -2.3018 -0.4233
  136SAPE   C2514735   1.561   0.857  10.237  0.1666  1.3020 -0.1971
  136SAPE   H5R14736   1.553   0.819  10.340  1.8283 -0.2689 -0.6376
  136SAPE   C2614737   1.671   0.831  10.164  0.9371  0.0271 -0.3419
  136SAPE   H6R14738   1.735   0.750  10.202 -0.2046 -0.3776  0.7663
  136SAPE   C2714739   1.713   0.902  10.035  0.4412 -0.0435 -0.2362
  136SAPE   H7R14740   1.800   0.967  10.058  0.1491  0.3498 -0.2366
  136SAPE   H7S14741   1.639   0.979  10.003  2.0235  1.6787  0.1888
  136SAPE   C2814742   1.766   0.807   9.929  0.3698  0.1117  0.0882
  136SAPE   H8R14743   1.858   0.756   9.961 -0.1559 -0.0816  1.3275
  136SAPE   C2914744   1.705   0.781   9.816  0.2549  0.4786 -0.0202
  136SAPE   H9R14745   1.750   0.699   9.758  0.3649 -0.8672  1.9152
  136SAPE  C21014746   1.571   0.837   9.777 -0.2874 -0.4263  0.9576
  136SAPE  H10R14747   1.497   0.849   9.859 -0.9573 -0.2949  0.3315
  136SAPE  H10S14748   1.525   0.770   9.702  0.4076  1.6959 -1.4153
  136SAPE  C21114749   1.612   0.965   9.699  0.5177  0.2743  0.9462
  136SAPE  H11R14750   1.653   1.052   9.753  3.2714 -0.0833 -0.4782
  136SAPE  C21214751   1.618   0.994   9.568 -0.3610  0.7306 -0.3562
  136SAPE  H12R14752   1.664   1.086   9.530 -0.8584  1.2254  0.2474
  136SAPE  C21314753   1.569   0.900   9.456 -0.0936 -0.7208 -0.2504
  136SAPE  H13R14754   1.468   0.854   9.472  0.1189 -2.0310 -2.4548
  136SAPE  H13S14755   1.648   0.822   9.457 -0.7371 -1.3946 -0.8762
  136SAPE  C21414756   1.556   0.967   9.318  0.2974 -0.3366 -0.3752
  136SAPE  H14R14757   1.490   1.055   9.323  1.0547  0.3329 -1.7588
  136SAPE  C21514758   1.607   0.949   9.200 -0.5908  0.7031 -0.2096
  136SAPE  H15R14759   1.589   1.027   9.124  1.0058  0.4355 -0.8789
  136SAPE  C21614760   1.699   0.851   9.146 -0.1536  0.0896 -0.3550
  136SAPE  H16R14761   1.651   0.802   9.059 -2.2530  1.7257 -0.1603
  136SAPE  H16S14762   1.707   0.770   9.221 -0.0111  1.5331  1.2132
  136SAPE  C21714763   1.839   0.916   9.124 -1.1028 -0.2940 -0.1471
  136SAPE  H17R14764   1.865   0.948   9.227  0.3186 -0.5886 -0.3993
  136SAPE  H17S14765   1.842   0.997   9.047 -0.6020 -0.2266 -0.0597
  136SAPE  C21814766   1.946   0.818   9.061  0.0113  0.6931 -0.6592
  136SAPE  H18R14767   1.904   0.798   8.960  1.2501 -2.4731 -0.5944
  136SAPE  H18S14768   1.929   0.728   9.125 -2.3191  2.1632  0.8912
  136SAPE  C21914769   2.098   0.875   9.067  0.2202  0.3093  0.3692
  136SAPE  H19R14770   2.170   0.793   9.086  2.5858  1.8955 -1.5278
  136SAPE  H19S14771   2.107   0.942   9.155  0.2924 -0.3683  0.8748
  136SAPE  C22014772   2.126   0.957   8.933 -0.2454  0.5689 -0.3667
  136SAPE  H20R14773   2.076   1.055   8.945 -1.2306 -0.2264  2.3236
  136SAPE  H20S14774   2.114   0.896   8.840 -0.9675 -1.6329  1.1193
  136SAPE  H20T14775   2.233   0.988   8.929 -0.6800  1.9399 -1.4920
  136SAPE   C3314776   1.131   0.863   9.976  0.4072 -0.5093 -0.3297
  136SAPE   H3X14777   1.031   0.816   9.974 -0.2909  0.9513 -0.3758
  136SAPE   H3Y14778   1.203   0.785  10.011  0.6865 -1.0061 -1.9745
  136SAPE   C3414779   1.157   0.913   9.830 -0.3741 -0.2761  0.7909
  136SAPE   H4X14780   1.244   0.979   9.811  0.0338 -0.6151  1.4630
  136SAPE   H4Y14781   1.072   0.977   9.799 -0.3413  0.3338  1.9514
  136SAPE   C3514782   1.160   0.797   9.730  0.1714 -0.1001  0.2454
  136SAPE   H5X14783   1.084   0.721   9.760 -2.7821  2.2033 -1.1007
  136SAPE   H5Y14784   1.263   0.757   9.736  0.4410  0.3745 -1.1329
  136SAPE   C3614785   1.138   0.845   9.586  0.3302  0.2063  0.5806
  136SAPE   H6X14786   1.199   0.938   9.577 -0.6249  0.7324 -0.5412
  136SAPE   H6Y14787   1.033   0.876   9.566  0.4089 -1.1081 -2.0204
  136SAPE   C3714788   1.175   0.752   9.468 -0.2656  0.1941  0.3704
  136SAPE   H7X14789   1.095   0.675   9.459 -2.2650  2.2639 -0.2063
  136SAPE   H7Y14790   1.278   0.712   9.474 -0.3097  0.2195  1.3130
  136SAPE   C3814791   1.169   0.843   9.339  0.3868  0.2400 -0.5087
  136SAPE   H8X14792   1.258   0.909   9.348 -0.3546  1.0919  0.5855
  136SAPE   H8Y14793   1.078   0.905   9.344  1.0491  1.1292  0.6467
  136SAPE   C3914794   1.183   0.782   9.204 -0.3404 -0.3244 -0.0939
  136SAPE   H9X14795   1.108   0.703   9.183  1.1526 -1.6863 -0.4312
  136SAPE   H9Y14796   1.286   0.741   9.198 -0.6032 -0.7342 -2.6431
  136SAPE  C31014797   1.163   0.886   9.087  0.1308 -0.1476  0.7809
  136SAPE  H10X14798   1.209   0.981   9.122 -2.2477  1.6725 -0.8203
  136SAPE  H10Y14799   1.057   0.908   9.064  0.2051 -0.5180  0.0528
  136SAPE  C31114800   1.205   0.813   8.956  0.1085 -0.5430 -0.5151
  136SAPE  H11X14801   1.155   0.714   8.953 -1.6382  0.3050 -0.0810
  136SAPE  H11Y14802   1.312   0.785   8.949 -0.4122 -2.7795  0.1718
  136SAPE  C31214803   1.179   0.882   8.816 -0.0522 -0.1807 -0.2326
  136SAPE  H12X14804   1.073   0.906   8.795 -0.1558 -0.7141 -0.3225
  136SAPE  H12Y14805   1.206   0.810   8.736  1.6520  1.6292 -1.3372
  136SAPE  C31314806   1.259   1.013   8.795 -0.4287 -0.1845 -0.2357
  136SAPE  H13X14807   1.366   0.996   8.817 -0.3489  1.7043  0.9662
  136SAPE  H13Y14808   1.210   1.093   8.855  0.1031  1.9351 -2.5380
  136SAPE  C31414809   1.266   1.071   8.648 -0.3237 -1.0436 -0.4340
  136SAPE  H14X14810   1.163   1.093   8.612 -0.1064 -0.1363 -0.5190
  136SAPE  H14Y14811   1.307   0.998   8.576 -0.8135 -0.3874 -1.3808
  136SAPE  C31514812   1.354   1.199   8.650  0.5857 -0.5158 -0.1875
  136SAPE  H15X14813   1.461   1.170   8.635  0.0133 -1.9376 -1.5768
  136SAPE  H15Y14814   1.330   1.254   8.743 -0.8521  1.9774 -1.9726
  136SAPE  C31614815   1.307   1.299   8.539 -0.4715 -0.0465 -0.0611
  136SAPE  H16X14816   1.219   1.366   8.552 -0.0046  0.2250  1.8014
  136SAPE  H16Y14817   1.288   1.242   8.445 -2.1840  2.1232 -1.0850
  136SAPE  C31714818   1.428   1.393   8.517 -0.6733 -0.5171 -0.8715
  136SAPE  H17X14819   1.520   1.332   8.512  0.0776  0.6598 -1.7493
  136SAPE  H17Y14820   1.424   1.469   8.599  2.4135 -1.5670  0.3227
  136SAPE  C31814821   1.420   1.465   8.385  0.3033  0.1564 -0.7971
  136SAPE  H18X14822   1.425   1.395   8.299 -1.4462 -0.3951 -0.4690
  136SAPE  H18Y14823   1.503   1.539   8.385 -1.6956  2.4485 -0.2262
  136SAPE  H18Z14824   1.330   1.529   8.381 -0.0401 -0.3906 -2.0370
  137SAPE     N14825   0.041   3.268  10.607 -0.6474  0.6294  0.4082
  137SAPE   HN114826   0.121   3.201  10.600 -0.2422  0.8703  2.4339
  137SAPE   HN214827   0.053   3.334  10.528  1.1328  0.7961  0.7857
  137SAPE   HN314828   0.050   3.323  10.695 -0.5419  0.6866  0.3611
  137SAPE   C1214829  -0.097   3.194  10.601  0.2107 -0.0943 -0.3511
  137SAPE  H12A14830  -0.082   3.098  10.547  1.4811  0.7853 -1.6028
  137SAPE  H12B14831  -0.169   3.256  10.543 -2.7803 -3.0588  0.0676
  137SAPE   C1114832  -0.139   3.193  10.748 -0.1966  0.7034  0.6604
  137SAPE  H11A14833  -0.089   3.106  10.795 -1.4738 -0.7114 -0.5543
  137SAPE  H11B14834  -0.244   3.158  10.745 -0.1174  0.5609 -0.5910
  137SAPE     P14835  -0.243   3.415  10.842  0.4932  0.2396 -0.3683
  137SAPE   O1314836  -0.368   3.353  10.889 -0.2578 -0.2040  0.1468
  137SAPE   O1414837  -0.197   3.526  10.928  0.1443 -0.4787  0.1925
  137SAPE   O1214838  -0.122   3.314  10.830 -0.5046 -0.2974 -0.6206
  137SAPE   O1114839  -0.253   3.473  10.696  0.7351 -0.9539 -0.7076
  137SAPE    C114840  -0.174   3.572  10.640  0.1336 -0.0427 -0.3195
  137SAPE    HA14841  -0.076   3.567  10.692 -1.7996 -1.9206  3.3756
  137SAPE    HB14842  -0.157   3.542  10.535  1.9793  0.6398 -0.2320
  137SAPE    C214843  -0.242   3.710  10.645  0.0478  0.6937  0.1102
  137SAPE    HS14844  -0.261   3.734  10.752 -2.4543  2.2554 -0.6411
  137SAPE   O2114845  -0.365   3.705  10.577  0.6608  0.0208 -0.2918
  137SAPE   C2114846  -0.441   3.806  10.599 -0.2120 -0.5699 -0.2953
  137SAPE   O2214847  -0.419   3.899  10.677 -0.3979  0.0946  0.1830
  137SAPE   C2214848  -0.565   3.799  10.510 -0.0428 -0.3850  0.4654
  137SAPE   H2R14849  -0.616   3.895  10.533 -2.0564 -1.4045  0.3470
  137SAPE   H2S14850  -0.526   3.789  10.406 -1.6443 -0.2016 -0.1564
  137SAPE    C314851  -0.139   3.809  10.580  0.4688  0.1667  0.1524
  137SAPE    HX14852  -0.041   3.793  10.629 -0.0742  1.3991  1.7071
  137SAPE    HY14853  -0.169   3.912  10.610  0.5054  0.0739  0.5155
  137SAPE   O3114854  -0.124   3.791  10.437 -0.0310 -0.1904 -0.4856
  137SAPE   C3114855  -0.024   3.861  10.380 -0.5098  0.8383  0.1841
  137SAPE   O3214856   0.058   3.921  10.445 -0.0567 -0.0212 -0.4077
  137SAPE   C3214857  -0.016   3.829  10.233 -0.4113  0.6550  0.9222
  137SAPE   H2X14858  -0.119   3.815  10.194  0.5329  1.2745 -1.9922
  137SAPE   H2Y14859   0.044   3.738  10.210  0.1189  1.2526 -0.0717
  137SAPE   C2314860  -0.667   3.688  10.543  0.1332  0.4266  0.6826
  137SAPE   H3R14861  -0.730   3.699  10.634 -0.1923  0.2628  0.4741
  137SAPE   H3S14862  -0.615   3.591  10.553 -1.2420 -0.1749  2.2839
  137SAPE   C2414863  -0.777   3.662  10.429  0.6301 -0.5980 -0.7031
  137SAPE   H4R14864  -0.855   3.602  10.481 -0.5204  1.0282 -0.4750
  137SAPE   H4S14865  -0.718   3.605  10.354  1.3977 -2.6725  1.4215
  137SAPE   C2514866  -0.824   3.794  10.378 -0.7160 -1.0070  0.7683
  137SAPE   H5R14867  -0.858   3.864  10.455  2.2607 -0.7436  1.9156
  137SAPE   C2614868  -0.836   3.842  10.251  0.7234  0.9165  0.5298
  137SAPE   H6R14869  -0.881   3.942  10.245 -1.1264 -0.0614 -3.5406
  137SAPE   C2714870  -0.800   3.773  10.119  0.7606 -0.0523  0.3588
  137SAPE   H7R14871  -0.735   3.683  10.129  0.8738 -0.1823 -1.4847
  137SAPE   H7S14872  -0.731   3.839  10.063 -0.6915 -0.6814 -2.2729
  137SAPE   C2814873  -0.915   3.739  10.031  0.1520  0.3709  0.5775
  137SAPE   H8R14874  -1.014   3.758  10.076 -0.2034  1.6412 -0.6931
  137SAPE   C2914875  -0.907   3.705   9.897 -0.3939 -0.0167 -0.5126
  137SAPE   H9R14876  -0.997   3.665   9.847 -0.6437 -1.5233  1.0706
  137SAPE  C21014877  -0.773   3.692   9.818 -0.0850 -0.0605 -0.1818
  137SAPE  H10R14878  -0.785   3.631   9.726 -0.3619 -0.6732  0.2527
  137SAPE  H10S14879  -0.692   3.643   9.876 -0.8608 -0.6884  0.3878
  137SAPE  C21114880  -0.738   3.829   9.767 -0.8621 -0.5801  0.5934
  137SAPE  H11R14881  -0.738   3.913   9.838 -1.2027 -0.0638 -0.0082
  137SAPE  C21214882  -0.721   3.875   9.640 -0.1607 -0.1337 -0.4095
  137SAPE  H12R14883  -0.698   3.981   9.626  0.6556 -0.2604 -0.0796
  137SAPE  C21314884  -0.719   3.787   9.513  0.0940  0.0339  0.4643
  137SAPE  H13R14885  -0.684   3.684   9.537  1.0175  0.1329 -0.4400
  137SAPE  H13S14886  -0.642   3.827   9.444  0.9044  0.8208  1.8085
  137SAPE  C21414887  -0.854   3.776   9.452 -0.1130  0.2537  0.8068
  137SAPE  H14R14888  -0.945   3.782   9.513 -0.9331 -0.9550 -0.2698
  137SAPE  C21514889  -0.874   3.776   9.317  0.4047  0.0517 -0.2935
  137SAPE  H15R14890  -0.973   3.777   9.269  0.8335  0.4868 -1.1926
  137SAPE  C21614891  -0.772   3.787   9.212  0.6533  0.1893  0.3806
  137SAPE  H16R14892  -0.794   3.712   9.133  0.5279 -1.0630  1.5973
  137SAPE  H16S14893  -0.665   3.786   9.239  1.1986 -0.5193 -1.6904
  137SAPE  C21714894  -0.778   3.926   9.147  0.3786  0.1326  0.7115
  137SAPE  H17R14895  -0.746   4.004   9.219  1.4597  0.0415  0.3390
  137SAPE  H17S14896  -0.883   3.948   9.119  0.8091 -0.0504 -1.1001
  137SAPE  C21814897  -0.704   3.936   9.016 -0.0518  0.4076  0.6670
  137SAPE  H18R14898  -0.659   3.837   8.995  0.6101  0.5120  1.5676
  137SAPE  H18S14899  -0.615   4.002   9.029 -1.9432  3.4899 -1.2070
  137SAPE  C21914900  -0.787   3.987   8.899  0.5887 -0.0371 -0.0893
  137SAPE  H19R14901  -0.871   3.916   8.883  1.7166 -0.7947 -3.0080
  137SAPE  H19S14902  -0.728   3.998   8.806  0.3102 -0.1215 -0.2741
  137SAPE  C22014903  -0.845   4.124   8.935 -0.4184  0.3901 -0.1083
  137SAPE  H20R14904  -0.764   4.186   8.981 -1.2055  1.0129  0.4446
  137SAPE  H20S14905  -0.920   4.114   9.015  2.0452  0.6235  2.3113
  137SAPE  H20T14906  -0.890   4.172   8.845  1.2912  2.7067  0.2176
  137SAPE   C3314907   0.045   3.947  10.146  0.7826  0.3543  0.3233
  137SAPE   H3X14908   0.151   3.972  10.170  1.0936 -0.7393  0.1202
  137SAPE   H3Y14909  -0.020   4.031  10.178  1.3362  0.9096 -0.0132
  137SAPE   C3414910   0.034   3.908  10.000 -0.2516 -0.0595 -0.0725
  137SAPE   H4X14911  -0.071   3.898   9.966 -0.4480  1.6740  0.0098
  137SAPE   H4Y14912   0.094   3.815   9.984 -2.1180 -0.8943 -2.6536
  137SAPE   C3514913   0.109   4.010   9.911  0.5000  0.0234  0.7229
  137SAPE   H5X14914   0.219   3.990   9.913  0.5271 -0.4837 -2.6761
  137SAPE   H5Y14915   0.088   4.112   9.950  0.4811 -0.1101  1.0691
  137SAPE   C3614916   0.064   4.009   9.758 -0.3024 -0.4551 -0.5394
  137SAPE   H6X14917  -0.044   4.032   9.744  0.1224  1.9616 -0.0200
  137SAPE   H6Y14918   0.076   3.904   9.723  0.7349 -0.0012 -1.5646
  137SAPE   C3714919   0.148   4.100   9.666 -0.6823 -0.2890  0.4546
  137SAPE   H7X14920   0.252   4.072   9.694 -1.3852 -0.7955  2.6577
  137SAPE   H7Y14921   0.138   4.210   9.682 -1.1067 -0.3601  0.6965
  137SAPE   C3814922   0.115   4.084   9.519  0.2836  0.1569  0.7199
  137SAPE   H8X14923   0.027   4.144   9.489  0.3469  0.3291  0.8717
  137SAPE   H8Y14924   0.090   3.977   9.507  1.9118 -0.2238  0.5453
  137SAPE   C3914925   0.231   4.130   9.429  0.2727  0.6226 -0.0647
  137SAPE   H9X14926   0.329   4.084   9.453  0.6299  1.6624  0.5364
  137SAPE   H9Y14927   0.245   4.239   9.445 -1.5364  0.7781  0.5488
  137SAPE  C31014928   0.197   4.108   9.284  0.1464 -0.0130  0.4562
  137SAPE  H10X14929   0.092   4.137   9.266 -0.3790 -1.3084  1.3457
  137SAPE  H10Y14930   0.211   4.000   9.261 -2.3005 -0.2065 -0.2334
  137SAPE  C31114931   0.294   4.186   9.188  0.4751  0.1977 -0.1085
  137SAPE  H11X14932   0.397   4.173   9.228 -0.1147  1.8652  2.0143
  137SAPE  H11Y14933   0.274   4.294   9.201 -0.4149 -0.2366  2.4930
  137SAPE  C31214934   0.285   4.141   9.046  0.3336  0.3983 -0.5569
  137SAPE  H12X14935   0.180   4.151   9.010  0.3663  2.6823 -0.0620
  137SAPE  H12Y14936   0.316   4.035   9.036  0.2373  0.3585 -0.4271
  137SAPE  C31314937   0.367   4.226   8.960  0.1996 -0.0627  0.2897
  137SAPE  H13X14938   0.476   4.207   8.969 -0.3038 -4.2003 -1.0879
  137SAPE  H13Y14939   0.350   4.335   8.969 -3.4065 -0.6748  1.5241
  137SAPE  C31414940   0.321   4.206   8.814  0.4107 -0.4430  0.0636
  137SAPE  H14X14941   0.215   4.237   8.814  0.7733  0.8647 -1.1056
  137SAPE  H14Y14942   0.336   4.099   8.788  2.3285  0.0597 -1.0111
  137SAPE  C31514943   0.401   4.287   8.705  0.4565  0.5863  0.2818
  137SAPE  H15X14944   0.506   4.255   8.721  0.1146  0.8696  3.3315
  137SAPE  H15Y14945   0.399   4.392   8.741  2.9315  0.3296  1.2632
  137SAPE  C31614946   0.333   4.264   8.569 -0.8740  0.0800  0.4712
  137SAPE  H16X14947   0.233   4.312   8.577 -0.4341  0.8950  1.3247
  137SAPE  H16Y14948   0.330   4.154   8.555 -2.8073 -0.0023  1.3949
  137SAPE  C31714949   0.406   4.319   8.449 -0.1935  0.1375  0.0541
  137SAPE  H17X14950   0.514   4.292   8.448 -0.2072  0.0538  0.7021
  137SAPE  H17Y14951   0.401   4.429   8.460  0.3717  0.0717  1.0137
  137SAPE  C31814952   0.345   4.289   8.311 -0.6518 -0.4493 -0.3472
  137SAPE  H18X14953   0.321   4.182   8.289 -1.2945  0.0277 -2.0981
  137SAPE  H18Y14954   0.395   4.340   8.226 -0.2589  0.5042  0.4521
  137SAPE  H18Z14955   0.241   4.328   8.319 -0.8877 -0.2759 -3.4315
  138SAPE     N14956   3.163   4.388  10.696  0.0503  0.0613 -0.3112
  138SAPE   HN114957   3.071   4.387  10.744 -0.1410 -2.6098 -0.6410
  138SAPE   HN214958   3.195   4.289  10.701 -1.9043 -0.6580 -1.3917
  138SAPE   HN314959   3.210   4.463  10.751 -2.6274  0.4956  1.4630
  138SAPE   C1214960   3.166   4.422  10.544  0.2482 -0.9705 -0.4613
  138SAPE  H12A14961   3.105   4.343  10.496 -1.3259  0.3635 -0.7133
  138SAPE  H12B14962   3.271   4.411  10.508  1.6041  2.4415  2.1430
  138SAPE   C1114963   3.113   4.562  10.519 -0.1580 -0.0420  0.3858
  138SAPE  H11A14964   3.019   4.573  10.578  1.1890 -2.4303  3.1176
  138SAPE  H11B14965   3.089   4.574  10.412  0.9229  2.3734  0.3911
  138SAPE     P14966   3.217   4.733  10.691  0.0298  0.0921  0.5412
  138SAPE   O1314967   3.213   4.632  10.801  0.1733 -0.5912  0.0483
  138SAPE   O1414968   3.338   4.822  10.696  0.7431  0.0225 -0.6147
  138SAPE   O1214969   3.207   4.663  10.553  0.1781 -0.1773  0.1114
  138SAPE   O1114970   3.085   4.816  10.698  0.0745 -0.3798  0.5517
  138SAPE    C114971   3.075   4.956  10.681  0.2576  0.0100  0.0898
  138SAPE    HA14972   3.030   4.996  10.774 -0.3625  0.2118 -0.2935
  138SAPE    HB14973   3.170   5.008  10.655  0.3527 -0.1194  0.1769
  138SAPE    C214974   2.964   4.989  10.570 -0.2338 -0.5224  0.0547
  138SAPE    HS14975   2.869   4.943  10.605 -0.4451 -2.5268 -2.9662
  138SAPE   O2114976   3.013   4.918  10.456 -0.4781  0.2623  0.7270
  138SAPE   C2114977   3.114   4.962  10.378  0.8898 -0.1078  0.3405
  138SAPE   O2214978   3.181   5.061  10.397 -0.1891  0.8224 -0.2778
  138SAPE   C2214979   3.109   4.883  10.244  1.2005  0.0812 -0.0674
  138SAPE   H2R14980   3.082   4.778  10.267 -0.5344  0.7510  1.0502
  138SAPE   H2S14981   3.031   4.933  10.183  1.0411 -0.3704 -0.2346
  138SAPE    C314982   2.932   5.139  10.548  0.3018  0.1688 -0.2891
  138SAPE    HX14983   3.020   5.203  10.526  1.0907 -0.4713  0.9396
  138SAPE    HY14984   2.888   5.162  10.647 -2.2194  1.1669 -1.5800
  138SAPE   O3114985   2.821   5.154  10.464  0.0958 -0.2594  0.2347
  138SAPE   C3114986   2.781   5.272  10.429  0.3534  0.4969 -0.1689
  138SAPE   O3214987   2.838   5.376  10.447 -0.6909  0.3748  0.1863
  138SAPE   C3214988   2.652   5.257  10.352 -0.0386 -0.8821 -0.3767
  138SAPE   H2X14989   2.586   5.340  10.386 -0.1534 -0.7520 -0.9152
  138SAPE   H2Y14990   2.599   5.161  10.368 -0.7221 -0.7219 -1.6209
  138SAPE   C2314991   3.243   4.894  10.166 -0.0565 -0.6681 -0.7584
  138SAPE   H3R14992   3.318   4.863  10.242  0.5554  0.8782 -0.7383
  138SAPE   H3S14993   3.255   4.997  10.127 -1.6300  0.6620  2.1085
  138SAPE   C2414994   3.242   4.798  10.042 -0.4339 -0.2620  1.0017
  138SAPE   H4R14995   3.153   4.831   9.984 -0.5648  1.3788  2.0925
  138SAPE   H4S14996   3.228   4.695  10.080  1.0459  0.1464  2.7489
  138SAPE   C2514997   3.371   4.814   9.960 -0.6373  0.1183  0.9323
  138SAPE   H5R14998   3.461   4.842  10.016 -0.0785 -0.3210  0.2612
  138SAPE   C2614999   3.390   4.810   9.826 -0.1221  0.5038 -0.4937
  138SAPE   H6R15000   3.493   4.833   9.795 -0.2409 -0.0395 -1.3211
  138SAPE   C2715001   3.275   4.788   9.728 -0.7697 -0.5606  0.6682
  138SAPE   H7R15002   3.172   4.818   9.757 -1.0942 -0.3065 -0.6973
  138SAPE   H7S15003   3.269   4.677   9.718 -1.6736 -0.3430 -1.3677
  138SAPE   C2815004   3.300   4.841   9.588 -0.4367 -0.0220  0.0931
  138SAPE   H8R15005   3.306   4.951   9.576  1.8899 -0.1207  0.1114
  138SAPE   C2915006   3.341   4.771   9.478  0.3985 -0.1323 -0.9960
  138SAPE   H9R15007   3.364   4.837   9.393  2.4309 -1.7287 -1.7367
  138SAPE  C21015008   3.339   4.621   9.460  0.2902 -0.0302 -0.2521
  138SAPE  H10R15009   3.241   4.573   9.478 -1.4235  3.4991  0.2662
  138SAPE  H10S15010   3.403   4.577   9.540 -3.8388 -1.8506  2.1995
  138SAPE  C21115011   3.391   4.571   9.325  0.6002 -0.0308 -0.4382
  138SAPE  H11R15012   3.323   4.582   9.239 -1.5059  1.6380  1.3650
  138SAPE  C21215013   3.508   4.512   9.300  0.4833  0.4101 -0.0236
  138SAPE  H12R15014   3.532   4.474   9.200  0.5488  2.3693 -0.7709
  138SAPE  C21315015   3.624   4.484   9.398  0.0189 -0.2892  0.0552
  138SAPE  H13R15016   3.641   4.375   9.401  1.0469 -0.1209  0.6509
  138SAPE  H13S15017   3.594   4.508   9.502  0.4424 -1.9853  0.5821
  138SAPE  C21415018   3.745   4.562   9.348  0.2840  0.1846  0.0555
  138SAPE  H14R15019   3.762   4.659   9.397 -1.2496  1.8862 -2.6300
  138SAPE  C21515020   3.835   4.521   9.258 -0.7058  0.0175 -0.3839
  138SAPE  H15R15021   3.927   4.579   9.238  0.6157 -2.1548 -0.7392
  138SAPE  C21615022   3.826   4.396   9.183  0.0408  0.6579 -0.7418
  138SAPE  H16R15023   3.845   4.425   9.077  2.4230  0.8931 -0.2745
  138SAPE  H16S15024   3.729   4.343   9.188  1.3546 -1.7979 -0.5360
  138SAPE  C21715025   3.930   4.288   9.207 -0.1347  0.0103  0.0123
  138SAPE  H17R15026   4.031   4.333   9.198 -1.0557  2.7740  2.8352
  138SAPE  H17S15027   3.913   4.219   9.121  1.5515  0.2349 -0.5194
  138SAPE  C21815028   3.921   4.212   9.332 -0.3173  0.1694 -1.3177
  138SAPE  H18R15029   3.906   4.281   9.417  1.4416 -1.0445  0.0111
  138SAPE  H18S15030   4.020   4.161   9.334  0.2994  1.3293 -1.8480
  138SAPE  C21915031   3.824   4.097   9.343 -0.3671 -0.0894  0.4265
  138SAPE  H19R15032   3.854   4.021   9.268 -0.6815 -0.4041  0.6174
  138SAPE  H19S15033   3.728   4.140   9.309 -1.4606 -2.5338  0.3675
  138SAPE  C22015034   3.820   4.022   9.470  0.2366  0.5198  0.2540
  138SAPE  H20R15035   3.897   3.944   9.486  0.3114  0.6072  0.3202
  138SAPE  H20S15036   3.724   3.967   9.474  0.8136 -0.5208 -0.0644
  138SAPE  H20T15037   3.819   4.086   9.561 -3.8160  0.9072  0.0092
  138SAPE   C3315038   2.684   5.267  10.203  0.3781  0.1325 -0.3635
  138SAPE   H3X15039   2.738   5.359  10.174  1.4721 -0.1617  0.6643
  138SAPE   H3Y15040   2.585   5.267  10.152  0.5078  5.9068 -0.8957
  138SAPE   C3415041   2.782   5.156  10.148  0.7978 -0.6384 -0.0843
  138SAPE   H4X15042   2.744   5.055  10.171  5.0850 -2.6511 -1.3099
  138SAPE   H4Y15043   2.875   5.165  10.207 -0.1131  1.4779  1.0724
  138SAPE   C3515044   2.802   5.166   9.999 -0.2247  0.0504 -0.5284
  138SAPE   H5X15045   2.825   5.271   9.971 -1.4470  0.5781  0.4066
  138SAPE   H5Y15046   2.718   5.131   9.935  1.8828  1.8601 -4.4940
  138SAPE   C3615047   2.924   5.081   9.954  0.3324  0.4284  0.4227
  138SAPE   H6X15048   2.892   4.975   9.960  1.8500  0.0953  2.9744
  138SAPE   H6Y15049   3.010   5.097  10.022  1.2909 -0.5078 -0.5534
  138SAPE   C3715050   2.966   5.098   9.807  0.7209 -0.0046 -0.2900
  138SAPE   H7X15051   3.065   5.047   9.809 -0.4541 -2.3735 -0.1184
  138SAPE   H7Y15052   2.980   5.204   9.777  0.0472  0.3095  0.5002
  138SAPE   C3815053   2.889   5.022   9.705  0.1694 -0.2674  0.3738
  138SAPE   H8X15054   2.782   5.048   9.718 -0.4656 -1.8527 -1.3173
  138SAPE   H8Y15055   2.892   4.911   9.712 -0.1793 -0.3773 -1.0094
  138SAPE   C3915056   2.925   5.060   9.559 -0.1270  0.3893  0.2255
  138SAPE   H9X15057   3.034   5.071   9.541 -0.1388 -1.1917 -0.9677
  138SAPE   H9Y15058   2.900   5.168   9.551 -0.5505  0.1873 -1.2768
  138SAPE  C31015059   2.867   4.984   9.444 -0.1727  1.2058  0.6615
  138SAPE  H10X15060   2.762   5.022   9.445 -0.6572  0.0446 -2.1114
  138SAPE  H10Y15061   2.876   4.875   9.460 -1.4628  1.3540  2.5175
  138SAPE  C31115062   2.938   5.018   9.315 -0.2741  0.1164 -0.4919
  138SAPE  H11X15063   2.965   5.126   9.305  0.6571 -0.0838 -0.2131
  138SAPE  H11Y15064   2.878   4.982   9.229  0.1917 -1.8790 -0.0046
  138SAPE  C31215065   3.078   4.962   9.308 -1.4288  0.4749 -0.1069
  138SAPE  H12X15066   3.056   4.858   9.340 -1.9470  0.3357 -0.8916
  138SAPE  H12Y15067   3.152   5.015   9.371  0.2444  0.7210 -2.1905
  138SAPE  C31315068   3.133   4.955   9.166  0.1441  0.0346 -0.5304
  138SAPE  H13X15069   3.057   4.898   9.109  0.6126  1.7914 -2.9846
  138SAPE  H13Y15070   3.225   4.892   9.166  0.2000  0.1167 -0.5042
  138SAPE  C31415071   3.146   5.098   9.103 -0.3337 -0.0378 -0.0752
  138SAPE  H14X15072   3.191   5.167   9.178  0.1787 -0.9189  0.4282
  138SAPE  H14Y15073   3.049   5.141   9.069  0.4229  1.8704  0.1297
  138SAPE  C31515074   3.233   5.106   8.980  0.4511 -0.0051  0.5391
  138SAPE  H15X15075   3.230   5.013   8.919 -0.4498 -1.1871  2.3595
  138SAPE  H15Y15076   3.339   5.111   9.014 -0.3248  1.4653  2.8829
  138SAPE  C31615077   3.207   5.237   8.908 -0.3764 -0.5816  0.3816
  138SAPE  H16X15078   3.266   5.325   8.940 -0.0251 -0.4399 -0.6154
  138SAPE  H16Y15079   3.101   5.267   8.922  0.3470  1.2233  2.1272
  138SAPE  C31715080   3.228   5.231   8.754 -0.4830 -0.3413 -0.5897
  138SAPE  H17X15081   3.223   5.125   8.720 -0.4079 -0.7169  0.5231
  138SAPE  H17Y15082   3.328   5.275   8.736 -0.1697 -0.3747  0.9439
  138SAPE  C31815083   3.127   5.316   8.677 -0.5146  0.0005 -0.2058
  138SAPE  H18X15084   3.152   5.300   8.570  0.6263 -1.8056  0.3069
  138SAPE  H18Y15085   3.137   5.425   8.697  1.4463 -0.2140  0.0988
  138SAPE  H18Z15086   3.027   5.271   8.696  0.4596 -1.6595  1.1509
  139SAPE     N15087   1.924   2.514  10.769  0.2189 -0.0703 -0.0594
  139SAPE   HN115088   1.884   2.436  10.826  0.7210  0.1930  0.6587
  139SAPE   HN215089   2.024   2.527  10.796  0.1952 -0.0467  0.0157
  139SAPE   HN315090   1.874   2.601  10.794  2.4169  1.4590 -0.7939
  139SAPE   C1215091   1.926   2.473  10.623 -0.1499 -0.3191 -0.3737
  139SAPE  H12A15092   1.820   2.473  10.590 -0.0478  1.5113 -0.7617
  139SAPE  H12B15093   1.954   2.366  10.615  0.5319 -0.1904  0.3187
  139SAPE   C1115094   2.001   2.568  10.526 -0.9055  0.0059 -0.1420
  139SAPE  H11A15095   1.946   2.663  10.507 -0.6971  0.2972  0.7114
  139SAPE  H11B15096   2.009   2.525  10.423 -0.8994 -1.7521  0.5854
  139SAPE     P15097   2.196   2.735  10.595  0.0278 -0.0318 -0.1023
  139SAPE   O1315098   2.116   2.807  10.695  0.5499 -0.3947  0.9331
  139SAPE   O1415099   2.338   2.724  10.626 -0.0528 -0.0895 -0.1563
  139SAPE   O1215100   2.135   2.591  10.570 -0.1890 -0.1976  0.4580
  139SAPE   O1115101   2.185   2.795  10.449 -0.4120  0.2103 -0.7761
  139SAPE    C115102   2.254   2.731  10.341  0.1548 -0.2036  0.0982
  139SAPE    HA15103   2.229   2.622  10.337  1.6866 -0.4715 -2.8106
  139SAPE    HB15104   2.212   2.763  10.244  0.9101 -0.0755 -0.1840
  139SAPE    C215105   2.400   2.765  10.334 -0.2488  0.0178 -0.4717
  139SAPE    HS15106   2.440   2.714  10.425 -0.7417 -0.2697 -0.4129
  139SAPE   O2115107   2.417   2.908  10.314  0.2262 -0.0571  0.2266
  139SAPE   C2115108   2.510   2.954  10.405 -0.0375  0.3650  0.5928
  139SAPE   O2215109   2.583   2.884  10.472 -0.2810 -0.3173  0.3340
  139SAPE   C2215110   2.511   3.110  10.414  0.3659  0.2034 -0.4265
  139SAPE   H2R15111   2.414   3.143  10.455 -0.1330 -0.3497 -1.1428
  139SAPE   H2S15112   2.584   3.142  10.491  2.6505 -3.2842 -1.0390
  139SAPE    C315113   2.483   2.693  10.227 -0.1163 -0.3123  0.1744
  139SAPE    HX15114   2.592   2.694  10.250  0.5312 -1.4992 -2.5804
  139SAPE    HY15115   2.471   2.738  10.126  0.3336 -1.2716 -0.3106
  139SAPE   O3115116   2.445   2.557  10.212 -0.0413 -0.1405  0.5842
  139SAPE   C3115117   2.539   2.466  10.164  0.4503  0.3993  0.0610
  139SAPE   O3215118   2.651   2.496  10.137 -0.0333  0.2594  0.7629
  139SAPE   C3215119   2.475   2.331  10.146 -0.3642  0.2488 -0.2339
  139SAPE   H2X15120   2.374   2.348  10.104  0.3393  2.1791 -1.1822
  139SAPE   H2Y15121   2.484   2.281  10.244 -1.6960  0.7172  0.1294
  139SAPE   C2315122   2.534   3.187  10.283 -0.3981 -0.4659 -0.8206
  139SAPE   H3R15123   2.525   3.114  10.200  0.1862 -2.1923  0.5849
  139SAPE   H3S15124   2.642   3.213  10.283 -0.1608 -1.3975 -0.3483
  139SAPE   C2415125   2.447   3.309  10.262  0.0127 -0.3899  0.0367
  139SAPE   H4R15126   2.342   3.286  10.290 -0.9200  3.1513 -0.2627
  139SAPE   H4S15127   2.434   3.344  10.157  0.2842  1.3189  0.5513
  139SAPE   C2515128   2.500   3.423  10.351 -0.7349  0.2548  0.7314
  139SAPE   H5R15129   2.491   3.394  10.456  0.6825 -1.9752  0.2663
  139SAPE   C2615130   2.559   3.539  10.310 -0.5858 -0.2872  0.0779
  139SAPE   H6R15131   2.574   3.622  10.380  1.7885 -0.3078 -0.3574
  139SAPE   C2715132   2.578   3.580  10.160  0.0372  0.1484 -0.0540
  139SAPE   H7R15133   2.656   3.515  10.116 -2.4874 -2.4898 -0.7722
  139SAPE   H7S15134   2.627   3.680  10.152 -0.1042  0.1880 -0.4479
  139SAPE   C2815135   2.451   3.573  10.077  0.3587 -0.1041 -0.1644
  139SAPE   H8R15136   2.360   3.584  10.137 -1.8333  0.9449 -3.5832
  139SAPE   C2915137   2.449   3.544   9.946  0.3373  0.3831  0.3916
  139SAPE   H9R15138   2.351   3.566   9.899  0.7468  1.6405  0.1178
  139SAPE  C21015139   2.568   3.526   9.848 -0.4759 -0.2831  0.2907
  139SAPE  H10R15140   2.528   3.450   9.777 -1.8525  1.3340 -0.7198
  139SAPE  H10S15141   2.642   3.463   9.901 -1.4991 -0.1966  1.8457
  139SAPE  C21115142   2.627   3.653   9.796  0.4883  0.9011 -0.4349
  139SAPE  H11R15143   2.669   3.732   9.861  0.3409  0.3523  0.3231
  139SAPE  C21215144   2.622   3.680   9.666  0.3277  0.1256  1.1259
  139SAPE  H12R15145   2.664   3.776   9.633 -0.2864 -0.6947 -2.1754
  139SAPE  C21315146   2.575   3.588   9.554 -0.0951 -0.6824 -0.2063
  139SAPE  H13R15147   2.474   3.555   9.587 -0.0394  0.2387  0.8726
  139SAPE  H13S15148   2.637   3.495   9.555  0.0650 -0.5691  0.2702
  139SAPE  C21415149   2.560   3.651   9.420 -0.5363  0.1806 -0.2772
  139SAPE  H14R15150   2.531   3.757   9.421  0.0425  0.3405 -0.1398
  139SAPE  C21515151   2.576   3.601   9.297 -0.4066  0.1547 -0.1392
  139SAPE  H15R15152   2.562   3.662   9.206 -0.1126 -1.0171 -0.9879
  139SAPE  C21615153   2.604   3.454   9.254  0.3394  0.4794 -0.2536
  139SAPE  H16R15154   2.538   3.415   9.173 -1.1598 -0.3012  1.3187
  139SAPE  H16S15155   2.574   3.392   9.341  2.0863 -1.0689 -0.7095
  139SAPE  C21715156   2.746   3.424   9.203  0.1734 -0.0241 -0.3111
  139SAPE  H17R15157   2.759   3.314   9.190  2.4862  0.3593 -1.5069
  139SAPE  H17S15158   2.827   3.456   9.272 -1.2159  2.6940  0.0955
  139SAPE  C21815159   2.771   3.472   9.057 -0.4929 -0.6577  0.6149
  139SAPE  H18R15160   2.752   3.582   9.055 -0.2933 -0.6015  1.5938
  139SAPE  H18S15161   2.698   3.421   8.991 -0.7944 -1.0581  1.2474
  139SAPE  C21915162   2.912   3.447   9.013 -0.4754 -0.8861  0.2767
  139SAPE  H19R15163   2.930   3.339   9.033  0.3216 -1.1426 -1.6934
  139SAPE  H19S15164   2.979   3.511   9.076  0.0181 -1.5846  0.4680
  139SAPE  C22015165   2.929   3.472   8.864 -0.1402 -0.3626  0.0986
  139SAPE  H20R15166   3.032   3.443   8.833 -0.2483 -0.0895 -0.5182
  139SAPE  H20S15167   2.919   3.579   8.834  1.7922  0.0493  0.8072
  139SAPE  H20T15168   2.858   3.418   8.799  1.3912  0.6885 -2.5624
  139SAPE   C3315169   2.551   2.235  10.053  0.4752  0.2943  0.1904
  139SAPE   H3X15170   2.483   2.148  10.058  0.7753  0.1029  0.8712
  139SAPE   H3Y15171   2.650   2.213  10.099  0.7410 -2.4315 -1.5729
  139SAPE   C3415172   2.566   2.282   9.902 -0.6271 -0.2173 -0.0022
  139SAPE   H4X15173   2.643   2.361   9.918 -0.5403 -0.3079  0.0358
  139SAPE   H4Y15174   2.466   2.323   9.879 -1.0610 -0.8192  0.7920
  139SAPE   C3515175   2.616   2.163   9.811  0.8800 -0.9289  0.0268
  139SAPE   H5X15176   2.553   2.078   9.843 -0.1855 -0.1004  0.1833
  139SAPE   H5Y15177   2.722   2.156   9.844  0.8272  0.2625  0.4760
  139SAPE   C3615178   2.597   2.193   9.665  0.9097  0.1342  0.0436
  139SAPE   H6X15179   2.630   2.297   9.646  0.6744 -0.0555 -1.4656
  139SAPE   H6Y15180   2.495   2.180   9.624  0.2422 -0.3493  1.8267
  139SAPE   C3715181   2.676   2.088   9.576 -0.1728 -0.5373 -0.2607
  139SAPE   H7X15182   2.636   1.988   9.601  0.1173 -0.5851  0.0104
  139SAPE   H7Y15183   2.783   2.097   9.602 -0.1766 -1.3328  0.0278
  139SAPE   C3815184   2.651   2.123   9.425  0.3291 -0.0533 -0.2863
  139SAPE   H8X15185   2.698   2.223   9.410  1.9386 -0.7501  0.0140
  139SAPE   H8Y15186   2.542   2.138   9.407  0.7255  3.2881 -0.2757
  139SAPE   C3915187   2.714   2.011   9.333  0.2828  0.1302  0.2605
  139SAPE   H9X15188   2.820   1.989   9.357  0.8841  1.6062 -0.9568
  139SAPE   H9Y15189   2.709   2.047   9.228 -0.8538  0.3924  0.3933
  139SAPE  C31015190   2.637   1.880   9.353 -0.2233  0.0912 -0.4263
  139SAPE  H10X15191   2.527   1.896   9.347  0.1371  4.2252  2.2353
  139SAPE  H10Y15192   2.641   1.842   9.458  0.5626  1.9260  0.2301
  139SAPE  C31115193   2.699   1.765   9.266  0.2818  0.3175 -0.6798
  139SAPE  H11X15194   2.638   1.675   9.288 -0.4629  1.1033  0.5081
  139SAPE  H11Y15195   2.800   1.759   9.312  0.4820  2.4788 -0.8033
  139SAPE  C31215196   2.693   1.787   9.109 -0.4771 -0.5731  0.0188
  139SAPE  H12X15197   2.757   1.869   9.071  1.5861 -1.0053  2.4422
  139SAPE  H12Y15198   2.588   1.806   9.078 -0.1806 -2.3740 -2.1937
  139SAPE  C31315199   2.741   1.662   9.029  0.5942  0.3405  0.7632
  139SAPE  H13X15200   2.669   1.583   9.059 -0.9894  1.2028 -0.6834
  139SAPE  H13Y15201   2.845   1.636   9.061  0.2681 -0.9971  0.7712
  139SAPE  C31415202   2.725   1.684   8.882 -0.3564 -0.4968 -0.5461
  139SAPE  H14X15203   2.793   1.768   8.857 -1.6360  1.0339  0.9700
  139SAPE  H14Y15204   2.618   1.714   8.880 -0.6077 -1.3148  0.2495
  139SAPE  C31515205   2.754   1.565   8.795  0.4183 -0.8904  0.4065
  139SAPE  H15X15206   2.670   1.492   8.803 -0.1235 -0.1367  1.6405
  139SAPE  H15Y15207   2.842   1.514   8.839  1.0316 -0.2480 -0.0608
  139SAPE  C31615208   2.748   1.598   8.643 -0.2110 -0.5051 -0.1139
  139SAPE  H16X15209   2.642   1.618   8.616  0.0715  3.3814  1.2882
  139SAPE  H16Y15210   2.808   1.686   8.610 -1.0475 -0.7742 -2.4004
  139SAPE  C31715211   2.803   1.480   8.562  0.5074 -0.3282  0.5072
  139SAPE  H17X15212   2.739   1.392   8.588 -0.0465 -0.4779 -1.2532
  139SAPE  H17Y15213   2.906   1.448   8.590  0.8746  0.8175  0.4699
  139SAPE  C31815214   2.787   1.505   8.413 -0.8082 -0.3164  0.1498
  139SAPE  H18X15215   2.684   1.544   8.395 -1.8892 -1.5368  3.3021
  139SAPE  H18Y15216   2.799   1.411   8.354  1.7209  0.6610 -0.9812
  139SAPE  H18Z15217   2.866   1.578   8.387 -1.0086 -0.0615  0.2648
  140SAPE     N15218   6.113   6.347  11.099 -0.1272 -0.0961  1.2453
  140SAPE   HN115219   6.169   6.307  11.177  2.0854  2.0192  0.8345
  140SAPE   HN215220   6.164   6.432  11.066  0.7193 -1.2835 -0.6596
  140SAPE   HN315221   6.025   6.387  11.137 -0.2863 -0.6035  1.4110
  140SAPE   C1215222   6.082   6.284  10.970 -0.0800  0.4701  0.0499
  140SAPE  H12A15223   6.166   6.220  10.937 -1.1131 -0.6638 -0.3862
  140SAPE  H12B15224   6.074   6.365  10.895 -0.7909  1.3860  1.0907
  140SAPE   C1115225   5.938   6.222  10.957 -0.1243  0.0095  0.4982
  140SAPE  H11A15226   5.933   6.128  11.017 -1.5706  0.5125  1.1719
  140SAPE  H11B15227   5.924   6.192  10.851 -2.3740  0.6523  0.6011
  140SAPE     P15228   5.775   6.428  10.918  0.3104 -0.1266  0.3146
  140SAPE   O1315229   5.629   6.448  10.955  0.0759  0.1231 -0.3394
  140SAPE   O1415230   5.863   6.543  10.933  0.0539  0.6358  0.1071
  140SAPE   O1215231   5.834   6.314  10.999  0.5573 -0.7981  0.6382
  140SAPE   O1115232   5.780   6.386  10.764  0.1536  0.3310 -0.6400
  140SAPE    C115233   5.691   6.287  10.708 -0.0346  0.2205  0.3454
  140SAPE    HA15234   5.706   6.196  10.770  1.7417  0.4239  0.2393
  140SAPE    HB15235   5.586   6.319  10.725  0.3269  1.7592 -0.2385
  140SAPE    C215236   5.706   6.247  10.559 -0.0033 -0.0287 -1.0599
  140SAPE    HS15237   5.655   6.149  10.549  1.2961 -0.8825  0.3894
  140SAPE   O2115238   5.842   6.232  10.511 -0.4096  0.5228 -0.2087
  140SAPE   C2115239   5.918   6.144  10.575 -0.8137  0.5816 -0.3431
  140SAPE   O2215240   5.877   6.057  10.647 -0.2925  0.0379 -0.1377
  140SAPE   C2215241   6.063   6.155  10.520 -0.2670 -0.6692 -0.0554
  140SAPE   H2R15242   6.094   6.052  10.493 -0.6011 -0.8953  0.4287
  140SAPE   H2S15243   6.059   6.212  10.424 -2.7561  0.5190  0.7096
  140SAPE    C315244   5.626   6.350  10.476 -0.5327 -0.3775 -0.0030
  140SAPE    HX15245   5.654   6.446  10.524  0.2065 -0.2962 -0.5747
  140SAPE    HY15246   5.522   6.320  10.501 -0.1067 -0.2076  2.0934
  140SAPE   O3115247   5.665   6.337  10.344  0.5236  0.4722 -0.4140
  140SAPE   C3115248   5.755   6.421  10.307  0.4998  0.3545 -0.0376
  140SAPE   O3215249   5.811   6.506  10.376 -0.0185 -0.5587  0.0365
  140SAPE   C3215250   5.771   6.407  10.163 -0.5478  0.6249 -0.4204
  140SAPE   H2X15251   5.806   6.308  10.125 -0.4417  0.7027 -0.5288
  140SAPE   H2Y15252   5.846   6.479  10.125  0.1675  0.7664  1.2266
  140SAPE   C2315253   6.159   6.217  10.624  0.0511 -0.2540 -0.0718
  140SAPE   H3R15254   6.173   6.152  10.713 -0.9445  0.6250  0.7333
  140SAPE   H3S15255   6.106   6.311  10.649 -0.9552  0.1363 -3.3873
  140SAPE   C2415256   6.294   6.265  10.571 -0.2797 -0.5067 -0.0250
  140SAPE   H4R15257   6.344   6.321  10.653  1.2407  0.5061 -1.6011
  140SAPE   H4S15258   6.292   6.336  10.485  1.1566  0.3485  0.6405
  140SAPE   C2515259   6.376   6.142  10.539  0.2907 -0.1002  0.7389
  140SAPE   H5R15260   6.385   6.067  10.619  1.9086  1.5069  2.1273
  140SAPE   C2615261   6.435   6.114  10.422 -0.5839  0.5925 -0.4940
  140SAPE   H6R15262   6.483   6.016  10.408 -4.3098 -1.6730  1.6634
  140SAPE   C2715263   6.443   6.202  10.303 -0.6042 -0.0963  0.6263
  140SAPE   H7R15264   6.420   6.308  10.324 -4.1077 -0.8428  0.8071
  140SAPE   H7S15265   6.359   6.172  10.237 -0.1428 -0.8986  0.3842
  140SAPE   C2815266   6.571   6.179  10.229 -0.7454  0.0796 -0.0205
  140SAPE   H8R15267   6.656   6.183  10.300 -0.4556  1.8078 -0.4523
  140SAPE   C2915268   6.589   6.147  10.101 -0.1503  0.6301 -0.6388
  140SAPE   H9R15269   6.694   6.136  10.070  0.3890  0.9183  1.0377
  140SAPE  C21015270   6.483   6.128   9.993  0.1233 -0.8766  0.7318
  140SAPE  H10R15271   6.512   6.209   9.922 -1.3056 -0.5180  0.5365
  140SAPE  H10S15272   6.375   6.135  10.017 -0.2916 -0.5793 -1.1450
  140SAPE  C21115273   6.502   5.991   9.924 -0.2165  0.5109  0.5888
  140SAPE  H11R15274   6.483   5.907   9.992  3.0503 -0.2950  0.5681
  140SAPE  C21215275   6.518   5.964   9.799 -0.5607 -0.2228 -0.3751
  140SAPE  H12R15276   6.523   5.856   9.775 -0.0452  0.0249 -1.3920
  140SAPE  C21315277   6.532   6.052   9.684 -0.3733 -0.3161 -0.5597
  140SAPE  H13R15278   6.601   5.998   9.617 -1.9393  0.3628 -2.7564
  140SAPE  H13S15279   6.599   6.137   9.710  0.9865 -1.1897 -1.1318
  140SAPE  C21415280   6.407   6.109   9.623  0.2300 -0.6483  0.0301
  140SAPE  H14R15281   6.340   6.166   9.689 -0.6967 -1.1854 -0.4422
  140SAPE  C21515282   6.363   6.089   9.502  0.0076  0.6313  0.5264
  140SAPE  H15R15283   6.257   6.111   9.482 -0.9436 -2.3039  1.9483
  140SAPE  C21615284   6.430   6.010   9.395 -0.1445 -0.2014  0.4895
  140SAPE  H16R15285   6.537   5.993   9.420  0.0295  0.1850  0.0247
  140SAPE  H16S15286   6.421   6.066   9.299  0.2480 -2.8832 -1.1799
  140SAPE  C21715287   6.346   5.880   9.376  0.5591  0.2508 -0.5315
  140SAPE  H17R15288   6.238   5.907   9.380 -0.0584 -2.3897  2.7294
  140SAPE  H17S15289   6.368   5.812   9.461  1.1507 -1.0655 -1.7149
  140SAPE  C21815290   6.372   5.798   9.251  0.6970 -0.6090 -0.1854
  140SAPE  H18R15291   6.321   5.700   9.265  0.5978 -0.7260 -1.3169
  140SAPE  H18S15292   6.481   5.776   9.246  0.3760 -2.0054 -1.3202
  140SAPE  C21915293   6.328   5.866   9.121 -0.1273 -0.5975 -0.2957
  140SAPE  H19R15294   6.390   5.954   9.095 -1.1142  0.1302 -0.2155
  140SAPE  H19S15295   6.223   5.902   9.130  0.0438  0.4612 -2.2926
  140SAPE  C22015296   6.338   5.773   9.000  0.0577 -0.2027 -0.0966
  140SAPE  H20R15297   6.437   5.725   8.986  1.2579  1.5289  2.1709
  140SAPE  H20S15298   6.325   5.833   8.907  2.2493 -3.3443 -2.5097
  140SAPE  H20T15299   6.259   5.695   8.999 -3.4074  3.1290  1.2741
  140SAPE   C3315300   5.646   6.440  10.086  0.3968 -0.2023 -0.0292
  140SAPE   H3X15301   5.599   6.534  10.121  0.7858  0.2498 -0.7247
  140SAPE   H3Y15302   5.560   6.371  10.104  1.6625 -1.0090  3.1950
  140SAPE   C3415303   5.666   6.444   9.932  0.2640 -0.2239 -0.3332
  140SAPE   H4X15304   5.695   6.346   9.889  2.9389 -0.2281  1.3492
  140SAPE   H4Y15305   5.758   6.505   9.914  0.1608  0.0618  0.1006
  140SAPE   C3515306   5.555   6.511   9.859  0.1058 -0.4769  0.2754
  140SAPE   H5X15307   5.526   6.602   9.916  0.6075  0.3416 -0.7472
  140SAPE   H5Y15308   5.472   6.437   9.856  0.2251 -0.8282  3.8362
  140SAPE   C3615309   5.592   6.544   9.717  0.2454  0.1614  0.6624
  140SAPE   H6X15310   5.629   6.456   9.660  1.2618 -1.2024  3.3134
  140SAPE   H6Y15311   5.673   6.618   9.703 -0.2443  0.8226  1.2958
  140SAPE   C3715312   5.462   6.591   9.648  0.4553 -0.5172 -0.9258
  140SAPE   H7X15313   5.440   6.689   9.697 -3.6489 -0.6495 -2.2955
  140SAPE   H7Y15314   5.376   6.524   9.670  0.4428  0.3277  1.8021
  140SAPE   C3815315   5.477   6.615   9.491 -0.2456  0.1746 -0.1846
  140SAPE   H8X15316   5.552   6.691   9.461 -1.5365  0.5782 -2.5773
  140SAPE   H8Y15317   5.376   6.653   9.464 -0.1428  1.4324  1.1524
  140SAPE   C3915318   5.500   6.483   9.419  0.1403 -0.4307  0.2940
  140SAPE   H9X15319   5.436   6.403   9.461 -1.4775  1.5900  1.7553
  140SAPE   H9Y15320   5.604   6.448   9.442  0.0877 -0.1273  0.9912
  140SAPE  C31015321   5.492   6.490   9.266 -0.1432  1.4870 -0.0281
  140SAPE  H10X15322   5.560   6.412   9.225  0.9844  2.3043  0.2741
  140SAPE  H10Y15323   5.539   6.582   9.225  0.6961  0.4122 -1.5493
  140SAPE  C31115324   5.343   6.469   9.219 -0.3500 -0.4303  0.4999
  140SAPE  H11X15325   5.283   6.420   9.299 -1.9946  0.5785 -0.0840
  140SAPE  H11Y15326   5.337   6.410   9.126 -0.7794 -0.9426  0.8532
  140SAPE  C31215327   5.287   6.599   9.173 -0.0203 -0.3417 -0.3498
  140SAPE  H12X15328   5.321   6.677   9.244  0.5361 -2.3521  1.6402
  140SAPE  H12Y15329   5.176   6.595   9.165 -0.3334  0.8974  2.5673
  140SAPE  C31315330   5.346   6.640   9.031 -0.3212  0.0749  0.2185
  140SAPE  H13X15331   5.450   6.605   9.017 -0.8074 -1.1293 -0.4440
  140SAPE  H13Y15332   5.359   6.751   9.030  1.0058 -0.0883 -0.5622
  140SAPE  C31415333   5.259   6.588   8.920 -0.5002  0.0586  0.0030
  140SAPE  H14X15334   5.152   6.608   8.941 -0.4926 -1.6910  1.8895
  140SAPE  H14Y15335   5.273   6.478   8.909  0.2095 -0.0536  1.8223
  140SAPE  C31515336   5.296   6.654   8.785  0.3548  0.1332 -0.0825
  140SAPE  H15X15337   5.405   6.638   8.767  0.0966 -1.8146 -0.0133
  140SAPE  H15Y15338   5.286   6.763   8.805 -0.7019 -0.2363  1.5210
  140SAPE  C31615339   5.203   6.643   8.658 -0.8279  0.2164  0.3536
  140SAPE  H16X15340   5.096   6.646   8.688 -0.4398 -0.9934  1.8893
  140SAPE  H16Y15341   5.215   6.550   8.599 -3.4117  1.0535 -1.5637
  140SAPE  C31715342   5.230   6.746   8.553  0.5202 -0.0415 -0.4616
  140SAPE  H17X15343   5.336   6.741   8.519 -0.4751  1.4494 -4.0025
  140SAPE  H17Y15344   5.216   6.851   8.586  1.2363  0.4292 -1.6287
  140SAPE  C31815345   5.145   6.734   8.425  0.4407  0.3072  0.3973
  140SAPE  H18X15346   5.039   6.726   8.459  0.0454 -0.4229 -0.9778
  140SAPE  H18Y15347   5.175   6.647   8.364 -1.4608  0.4770 -0.8168
  140SAPE  H18Z15348   5.147   6.826   8.363 -1.1249 -1.4702 -2.4029
  141SAPE     N15349   5.883   6.689  10.701  0.3917 -0.2735 -0.3382
  141SAPE   HN115350   5.902   6.650  10.795 -0.6129  2.0550  0.8653
  141SAPE   HN215351   5.901   6.791  10.699  0.1032 -0.1864  1.1728
  141SAPE   HN315352   5.782   6.675  10.682  0.4519 -0.5479 -0.4644
  141SAPE   C1215353   5.975   6.623  10.605  0.6323 -0.3266 -0.1765
  141SAPE  H12A15354   5.965   6.673  10.507 -1.1476  0.6194  0.4750
  141SAPE  H12B15355   5.950   6.515  10.595  0.9017 -0.1618 -3.1905
  141SAPE   C1115356   6.128   6.631  10.643 -0.0490 -0.2284 -0.6661
  141SAPE  H11A15357   6.148   6.740  10.650  0.5954 -0.1042 -3.6355
  141SAPE  H11B15358   6.191   6.590  10.560  1.1764  2.0899 -0.9064
  141SAPE     P15359   6.235   6.633  10.880  0.1127 -0.1122  0.1200
  141SAPE   O1315360   6.154   6.751  10.914  0.3729  0.7029  0.2368
  141SAPE   O1415361   6.271   6.539  10.990 -0.5348 -0.3900 -0.0697
  141SAPE   O1215362   6.165   6.560  10.761  0.2944 -0.0694 -0.4779
  141SAPE   O1115363   6.372   6.675  10.820 -0.0800  0.0082  0.4165
  141SAPE    C115364   6.484   6.585  10.794  0.1045  0.5296  0.4736
  141SAPE    HA15365   6.560   6.588  10.874  0.1083  0.2284  0.4830
  141SAPE    HB15366   6.448   6.479  10.794 -0.1503  0.6131  0.1842
  141SAPE    C215367   6.544   6.623  10.656  0.0189  0.3857 -0.0307
  141SAPE    HS15368   6.612   6.707  10.682 -0.5372  0.5703  0.8604
  141SAPE   O2115369   6.443   6.662  10.563  0.2855  0.0583  0.3188
  141SAPE   C2115370   6.481   6.760  10.477  0.2487  0.3671  0.0804
  141SAPE   O2215371   6.595   6.803  10.469  0.6531  0.2938  0.4466
  141SAPE   C2215372   6.372   6.802  10.375  0.0717  0.1686  0.0093
  141SAPE   H2R15373   6.277   6.765  10.419 -0.3758 -0.2596 -1.3133
  141SAPE   H2S15374   6.371   6.913  10.380 -0.7493  0.1965 -0.7158
  141SAPE    C315375   6.629   6.492  10.611  0.8581 -0.4202 -0.0576
  141SAPE    HX15376   6.542   6.426  10.592  1.4496 -1.1713 -0.1464
  141SAPE    HY15377   6.691   6.460  10.697  1.4910  0.9657  0.0252
  141SAPE   O3115378   6.701   6.504  10.486  0.2136  0.0139 -0.4780
  141SAPE   C3115379   6.829   6.555  10.500  0.8615 -0.2082  0.5114
  141SAPE   O3215380   6.884   6.595  10.596  0.0925  0.0933  1.2766
  141SAPE   C3215381   6.891   6.580  10.353  0.2151  0.1663 -0.1483
  141SAPE   H2X15382   6.984   6.521  10.347  1.6797  2.1723  2.3040
  141SAPE   H2Y15383   6.911   6.688  10.341  2.1214 -0.3999 -2.3117
  141SAPE   C2315384   6.404   6.753  10.233  0.4087 -0.2014  0.2734
  141SAPE   H3R15385   6.502   6.792  10.198  0.8999 -0.4682  1.3296
  141SAPE   H3S15386   6.332   6.802  10.165  1.1273  0.9210  0.3173
  141SAPE   C2415387   6.391   6.595  10.213 -0.3982 -0.4833  0.1562
  141SAPE   H4R15388   6.459   6.536  10.278  0.0629 -1.3351 -1.0853
  141SAPE   H4S15389   6.414   6.572  10.106 -1.5647 -0.2000 -0.1628
  141SAPE   C2515390   6.259   6.536  10.263 -0.1335  0.4026 -0.1309
  141SAPE   H5R15391   6.250   6.536  10.373 -1.3527 -0.5725 -0.2209
  141SAPE   C2615392   6.158   6.492  10.191  0.0142  0.1047  0.6259
  141SAPE   H6R15393   6.070   6.444  10.236  0.9280 -2.4087 -0.1718
  141SAPE   C2715394   6.168   6.484  10.037 -0.1688 -0.0912 -0.3852
  141SAPE   H7R15395   6.094   6.412   9.996 -0.2189  0.3995 -1.1652
  141SAPE   H7S15396   6.269   6.446  10.011  0.5736  1.5748  0.0141
  141SAPE   C2815397   6.147   6.619   9.970 -0.0673 -0.0239 -0.3830
  141SAPE   H8R15398   6.056   6.670  10.007  0.3081 -0.8599  1.8007
  141SAPE   C2915399   6.212   6.668   9.861  0.1298  0.1199 -0.3502
  141SAPE   H9R15400   6.186   6.768   9.826  0.5445  0.7798  1.1827
  141SAPE  C21015401   6.320   6.596   9.793  0.5600 -0.0915  0.1917
  141SAPE  H10R15402   6.282   6.558   9.696  0.9664  0.7412 -0.2991
  141SAPE  H10S15403   6.342   6.498   9.842  1.6372 -0.2719 -0.6417
  141SAPE  C21115404   6.451   6.676   9.778  0.5373  0.6772 -0.1822
  141SAPE  H11R15405   6.504   6.701   9.871  2.4293 -0.3587 -0.9683
  141SAPE  C21215406   6.502   6.727   9.666 -0.3820  0.0062 -0.9741
  141SAPE  H12R15407   6.594   6.785   9.677 -1.4675  1.3599  1.2678
  141SAPE  C21315408   6.442   6.712   9.527 -0.7841  0.1269  0.5878
  141SAPE  H13R15409   6.487   6.792   9.464  0.9267 -0.1766  1.4094
  141SAPE  H13S15410   6.334   6.740   9.530 -0.4374  1.4143  2.1157
  141SAPE  C21415411   6.449   6.584   9.450 -0.1738  0.4202 -0.1077
  141SAPE  H14R15412   6.447   6.485   9.498 -3.4317 -0.5946 -2.1522
  141SAPE  C21515413   6.440   6.569   9.318  0.2539 -0.4256  0.2438
  141SAPE  H15R15414   6.418   6.469   9.277 -3.0564  0.3293  0.0506
  141SAPE  C21615415   6.434   6.682   9.223  0.3127 -0.2164  0.4846
  141SAPE  H16R15416   6.501   6.762   9.260  0.0263 -0.7744  2.2761
  141SAPE  H16S15417   6.328   6.715   9.226  0.6464  1.0257 -0.7125
  141SAPE  C21715418   6.485   6.647   9.081  0.0885  0.1874 -0.0139
  141SAPE  H17R15419   6.420   6.568   9.038  1.0022 -0.7835  0.3645
  141SAPE  H17S15420   6.585   6.599   9.082 -0.2040 -0.4864 -1.4923
  141SAPE  C21815421   6.461   6.771   8.998  0.5150 -0.6121 -0.0586
  141SAPE  H18R15422   6.508   6.858   9.049 -1.0381  0.4955 -0.4781
  141SAPE  H18S15423   6.354   6.800   8.988  0.6400 -0.0256  0.2660
  141SAPE  C21915424   6.545   6.767   8.870 -0.9907  0.6945  0.5031
  141SAPE  H19R15425   6.516   6.686   8.800  0.9787 -1.1617  1.7603
  141SAPE  H19S15426   6.647   6.758   8.915 -0.9719 -3.8467 -0.2392
  141SAPE  C22015427   6.538   6.901   8.799 -0.1366  0.9387 -0.2631
  141SAPE  H20R15428   6.440   6.953   8.808 -0.3866  0.3695  0.3437
  141SAPE  H20S15429   6.565   6.901   8.691 -0.0127  0.1589 -0.2358
  141SAPE  H20T15430   6.614   6.965   8.848 -0.1937  0.6456  0.2052
  141SAPE   C3315431   6.791   6.535  10.237  0.0771  0.6316 -0.4568
  141SAPE   H3X15432   6.696   6.593  10.239 -0.6249 -0.5314  0.3897
  141SAPE   H3Y15433   6.772   6.427  10.256 -2.2572  0.8443 -1.4336
  141SAPE   C3415434   6.837   6.553  10.097 -0.6322 -0.4913 -0.3648
  141SAPE   H4X15435   6.940   6.515  10.083  1.0255  3.1336  1.3916
  141SAPE   H4Y15436   6.839   6.662  10.078 -0.9906 -0.2392  0.9882
  141SAPE   C3515437   6.756   6.481  10.000  0.8355  0.0184 -0.0502
  141SAPE   H5X15438   6.651   6.508  10.021  1.0122  0.0265  0.8365
  141SAPE   H5Y15439   6.771   6.371  10.008  2.4230  0.2422  0.2401
  141SAPE   C3615440   6.793   6.523   9.855 -0.0666  0.8863  1.0155
  141SAPE   H6X15441   6.904   6.515   9.847 -0.2283 -0.6866  0.2864
  141SAPE   H6Y15442   6.764   6.628   9.831 -1.4567  0.4355  0.7147
  141SAPE   C3715443   6.739   6.421   9.757 -0.0622 -0.6347  0.3909
  141SAPE   H7X15444   6.628   6.426   9.756 -0.0470 -0.2435  0.2779
  141SAPE   H7Y15445   6.776   6.321   9.787 -1.0742 -0.4118  2.5199
  141SAPE   C3815446   6.783   6.438   9.607  0.2302  0.8865 -0.4815
  141SAPE   H8X15447   6.893   6.436   9.602  0.2807 -3.1974  0.6069
  141SAPE   H8Y15448   6.747   6.531   9.559  0.5697  2.1811  1.7106
  141SAPE   C3915449   6.736   6.322   9.521  0.0558  0.4289 -0.7257
  141SAPE   H9X15450   6.633   6.295   9.552  1.2732 -1.2856  2.0589
  141SAPE   H9Y15451   6.787   6.224   9.537 -0.7063  0.4518  2.0524
  141SAPE  C31015452   6.740   6.340   9.368  0.6621 -0.1608 -0.3241
  141SAPE  H10X15453   6.845   6.342   9.331  0.7435 -0.1956 -0.1028
  141SAPE  H10Y15454   6.695   6.439   9.347  0.1091 -0.3744 -0.1616
  141SAPE  C31115455   6.657   6.249   9.278  0.0824 -0.4071 -0.5505
  141SAPE  H11X15456   6.549   6.271   9.293  0.2189  2.0895 -2.9196
  141SAPE  H11Y15457   6.661   6.142   9.307 -1.9423 -0.8479 -1.7861
  141SAPE  C31215458   6.688   6.276   9.131 -0.3356  0.8483  1.0103
  141SAPE  H12X15459   6.777   6.214   9.108 -1.3471 -0.0869 -0.4578
  141SAPE  H12Y15460   6.700   6.386   9.117  0.8088  0.7549  1.2500
  141SAPE  C31315461   6.585   6.226   9.031  0.6259  0.5548 -0.0866
  141SAPE  H13X15462   6.487   6.272   9.057 -0.2021 -0.9184 -0.5613
  141SAPE  H13Y15463   6.564   6.118   9.047  0.0830  0.8509  1.3299
  141SAPE  C31415464   6.623   6.243   8.880 -0.0628 -0.1045  0.6057
  141SAPE  H14X15465   6.535   6.218   8.818  0.5117 -0.5457 -0.0462
  141SAPE  H14Y15466   6.705   6.171   8.860 -0.9598 -0.8460 -0.4473
  141SAPE  C31515467   6.652   6.383   8.832  0.5384 -0.9027  0.8122
  141SAPE  H15X15468   6.739   6.430   8.882  0.8034 -0.0453 -0.4121
  141SAPE  H15Y15469   6.567   6.445   8.867  0.5562  0.5382 -1.5756
  141SAPE  C31615470   6.661   6.392   8.679 -0.2379  0.2765 -0.5785
  141SAPE  H16X15471   6.656   6.501   8.658  0.9173  0.4007 -0.2419
  141SAPE  H16Y15472   6.579   6.334   8.633  1.3570 -1.3242 -1.4670
  141SAPE  C31715473   6.792   6.337   8.623 -0.4138  0.0614  0.0091
  141SAPE  H17X15474   6.798   6.228   8.643  1.5201 -0.0949 -1.2826
  141SAPE  H17Y15475   6.885   6.381   8.666 -0.6825 -0.1001  0.7649
  141SAPE  C31815476   6.800   6.363   8.472 -0.2992  0.2009 -0.9982
  141SAPE  H18X15477   6.843   6.463   8.451 -1.4850  0.5950 -1.5171
  141SAPE  H18Y15478   6.701   6.351   8.424 -0.4544 -0.6814 -0.4788
  141SAPE  H18Z15479   6.864   6.284   8.426 -0.5144 -0.0480 -0.8721
  142SAPE     N15480   6.295   5.631  11.121 -0.0951  0.2387  0.0535
  142SAPE   HN115481   6.300   5.728  11.160  0.3339 -0.0633  0.7685
  142SAPE   HN215482   6.205   5.631  11.069 -0.5550 -3.1220  0.7151
  142SAPE   HN315483   6.295   5.557  11.194 -1.5621  0.5218  0.3413
  142SAPE   C1215484   6.398   5.598  11.018  0.2865  0.6391  0.5123
  142SAPE  H12A15485   6.365   5.509  10.961 -0.6880  2.3048 -1.5970
  142SAPE  H12B15486   6.489   5.572  11.076 -0.2708  0.4867  1.3134
  142SAPE   C1115487   6.424   5.725  10.928  0.6007 -0.2191  0.0158
  142SAPE  H11A15488   6.340   5.721  10.856  0.6437  1.7607 -0.1512
  142SAPE  H11B15489   6.528   5.709  10.890  0.7293  0.4290  0.1004
  142SAPE     P15490   6.537   5.906  11.075  0.1139  0.2922 -0.0341
  142SAPE   O1315491   6.500   6.038  11.125 -0.1729 -0.0526  0.1279
  142SAPE   O1415492   6.586   5.810  11.175 -0.3046  0.1976  0.5094
  142SAPE   O1215493   6.414   5.843  11.004  0.3475  0.0767 -0.2872
  142SAPE   O1115494   6.650   5.915  10.969 -0.4735 -0.3708  0.0549
  142SAPE    C115495   6.613   5.997  10.854  0.6738 -0.7572  0.1823
  142SAPE    HA15496   6.522   5.961  10.802  2.6785 -1.9455 -2.6926
  142SAPE    HB15497   6.606   6.103  10.884 -1.1823 -0.3956 -1.4296
  142SAPE    C215498   6.723   5.983  10.741  0.0742  0.4854 -0.5074
  142SAPE    HS15499   6.701   6.065  10.669 -3.6874  0.6939  0.7675
  142SAPE   O2115500   6.714   5.847  10.679  0.2508  0.1959 -0.2004
  142SAPE   C2115501   6.756   5.850  10.552  0.5296 -0.9966 -0.1184
  142SAPE   O2215502   6.803   5.948  10.497 -0.2656 -0.9165  0.8745
  142SAPE   C2215503   6.764   5.707  10.496 -0.5003 -0.1641  0.3400
  142SAPE   H2R15504   6.853   5.669  10.550 -0.3762  0.3359  0.4938
  142SAPE   H2S15505   6.670   5.650  10.509 -0.6519  0.1007  0.4032
  142SAPE    C315506   6.865   5.998  10.805  0.3714  0.8155 -0.1726
  142SAPE    HX15507   6.893   5.898  10.846  0.2474  0.4433 -0.9890
  142SAPE    HY15508   6.857   6.072  10.888 -0.9877  0.3181  0.1401
  142SAPE   O3115509   6.965   6.043  10.715  0.2511 -0.2261  0.7389
  142SAPE   C3115510   6.955   6.170  10.669 -0.0088 -0.2446  0.3024
  142SAPE   O3215511   6.872   6.252  10.708 -0.1820 -0.3792 -0.1599
  142SAPE   C3215512   7.059   6.191  10.563  0.3963 -0.1722  0.2301
  142SAPE   H2X15513   7.132   6.108  10.565 -2.6280 -3.0288 -1.6843
  142SAPE   H2Y15514   7.110   6.287  10.583 -1.5720  0.3883  2.7801
  142SAPE   C2315515   6.793   5.709  10.341  0.1886 -0.6118  0.0694
  142SAPE   H3R15516   6.888   5.765  10.329 -0.2679  0.7970  2.6442
  142SAPE   H3S15517   6.704   5.759  10.298 -0.6469 -0.7675  1.5972
  142SAPE   C2415518   6.805   5.575  10.275 -0.0483  0.1627  0.5045
  142SAPE   H4R15519   6.796   5.590  10.165  1.4497 -2.1824  0.0342
  142SAPE   H4S15520   6.722   5.506  10.303 -1.0974  0.5195 -1.5726
  142SAPE   C2515521   6.936   5.495  10.300  0.1024  0.0585  0.4676
  142SAPE   H5R15522   6.984   5.518  10.396 -1.1677 -1.6032  1.5239
  142SAPE   C2615523   6.991   5.400  10.216  0.4925 -0.1148 -0.0197
  142SAPE   H6R15524   7.095   5.369  10.233  0.7290  1.5048  1.7309
  142SAPE   C2715525   6.934   5.350  10.086 -0.2711 -0.1246 -0.0711
  142SAPE   H7R15526   6.836   5.399  10.065 -0.8908 -1.4481 -0.2731
  142SAPE   H7S15527   6.919   5.242  10.108  0.1384 -0.6672 -2.3516
  142SAPE   C2815528   7.014   5.380   9.964  0.3590 -0.4929  1.0116
  142SAPE   H8R15529   7.097   5.309   9.968 -1.2118 -2.4172  0.3292
  142SAPE   C2915530   6.989   5.448   9.851  0.5650  0.3760  0.0785
  142SAPE   H9R15531   7.063   5.451   9.770  0.2447  1.0776 -0.1931
  142SAPE  C21015532   6.868   5.527   9.818  0.2869 -0.0100 -0.9227
  142SAPE  H10R15533   6.785   5.502   9.887  0.1502  1.0647 -0.6955
  142SAPE  H10S15534   6.829   5.498   9.718 -0.6449  1.6909 -1.0616
  142SAPE  C21115535   6.895   5.676   9.818  0.0894 -0.3185 -0.3911
  142SAPE  H11R15536   6.897   5.710   9.923 -0.4350 -2.4456  0.3491
  142SAPE  C21215537   6.919   5.761   9.721 -0.9379  0.5860  0.6165
  142SAPE  H12R15538   6.953   5.862   9.747 -0.2105  0.7380 -0.8575
  142SAPE  C21315539   6.927   5.709   9.575 -0.4334 -0.3403  0.5683
  142SAPE  H13R15540   6.992   5.619   9.576 -1.7952 -1.3287  2.6753
  142SAPE  H13S15541   6.984   5.784   9.516  1.2843 -0.4176  2.0874
  142SAPE  C21415542   6.793   5.696   9.506  0.4120 -0.1744  0.7143
  142SAPE  H14R15543   6.706   5.753   9.542 -0.4447 -0.3203 -1.0660
  142SAPE  C21515544   6.769   5.610   9.403  1.0743 -0.5911 -0.4818
  142SAPE  H15R15545   6.669   5.609   9.357  1.4070  2.0139 -1.2965
  142SAPE  C21615546   6.867   5.517   9.330 -0.4855 -0.5172  0.6801
  142SAPE  H16R15547   6.970   5.558   9.336 -1.1013  1.0146  1.1325
  142SAPE  H16S15548   6.847   5.533   9.222 -0.6681  3.7270  1.2604
  142SAPE  C21715549   6.860   5.373   9.373  0.1112  0.5066  0.1548
  142SAPE  H17R15550   6.764   5.319   9.358  1.1435 -0.9930 -1.1975
  142SAPE  H17S15551   6.890   5.382   9.480 -1.7429 -2.6895  1.0088
  142SAPE  C21815552   6.976   5.293   9.310  0.5962  0.4393 -0.1332
  142SAPE  H18R15553   7.069   5.350   9.333 -0.1272  1.5408  0.0791
  142SAPE  H18S15554   6.961   5.290   9.200  0.9666 -0.2412 -0.1685
  142SAPE  C21915555   6.988   5.152   9.360  0.2210  0.1360 -0.5241
  142SAPE  H19R15556   6.886   5.109   9.349  0.7954 -1.1357 -0.9682
  142SAPE  H19S15557   7.020   5.140   9.466  0.1874  0.2440 -0.5021
  142SAPE  C22015558   7.076   5.059   9.270 -0.4678 -0.8199  0.7344
  142SAPE  H20R15559   7.027   4.972   9.222  0.0483 -0.4865 -0.4117
  142SAPE  H20S15560   7.164   5.018   9.326  2.3484  3.4694 -0.2523
  142SAPE  H20T15561   7.139   5.122   9.204  1.7520  0.2924  3.7644
  142SAPE   C3315562   7.000   6.206  10.421  0.2248 -0.7576  0.8715
  142SAPE   H3X15563   6.937   6.297  10.431 -0.1575 -0.5206 -3.1229
  142SAPE   H3Y15564   6.938   6.119  10.392 -0.4196 -0.7102  2.0719
  142SAPE   C3415565   7.111   6.224  10.317 -0.0094  0.2654  0.8149
  142SAPE   H4X15566   7.171   6.132  10.334  1.1660  0.8275 -0.2204
  142SAPE   H4Y15567   7.175   6.309  10.350  0.2904 -0.2917  1.6731
  142SAPE   C3515568   7.048   6.246  10.181  0.5988 -0.1890  0.1355
  142SAPE   H5X15569   7.013   6.351  10.167 -1.1934 -1.0299 -1.9500
  142SAPE   H5Y15570   6.953   6.188  10.179  0.3048  0.2620  0.9758
  142SAPE   C3615571   7.136   6.211  10.070 -0.5684 -0.1413 -0.0148
  142SAPE   H6X15572   7.169   6.106  10.088 -1.5402 -0.2560  1.1299
  142SAPE   H6Y15573   7.221   6.282  10.061  0.9484 -1.7983  0.8616
  142SAPE   C3715574   7.060   6.211   9.936  0.0094  0.5356 -0.8119
  142SAPE   H7X15575   7.039   6.318   9.914  2.4559  1.4366  1.0120
  142SAPE   H7Y15576   6.971   6.145   9.937 -0.1254  0.6946  1.7096
  142SAPE   C3815577   7.151   6.153   9.827 -0.0185  0.0554 -0.1797
  142SAPE   H8X15578   7.188   6.054   9.862 -0.7011 -0.3338 -0.5605
  142SAPE   H8Y15579   7.250   6.204   9.834  2.1894 -3.9370 -0.7426
  142SAPE   C3915580   7.075   6.152   9.699  0.0961  0.1398  0.4193
  142SAPE   H9X15581   7.042   6.255   9.677  2.3086  1.0734  1.2823
  142SAPE   H9Y15582   6.981   6.093   9.704  1.5389 -2.3059  0.0866
  142SAPE  C31015583   7.166   6.118   9.580  0.1060  0.2802  0.4393
  142SAPE  H10X15584   7.224   6.029   9.613  1.9145  0.6085 -1.7093
  142SAPE  H10Y15585   7.246   6.193   9.560 -0.5761  0.9427  0.1752
  142SAPE  C31115586   7.101   6.102   9.447  0.3024  0.4658 -0.4998
  142SAPE  H11X15587   7.051   6.195   9.411  0.1735  0.2813 -0.7937
  142SAPE  H11Y15588   7.027   6.020   9.461  0.4066  0.6999  1.6041
  142SAPE  C31215589   7.197   6.055   9.338  0.6033  0.1126 -0.8654
  142SAPE  H12X15590   7.255   5.973   9.385 -1.6821 -0.4338  1.0801
  142SAPE  H12Y15591   7.255   6.145   9.307 -0.1541  0.6299 -0.7955
  142SAPE  C31315592   7.139   5.994   9.213 -0.0509  0.2769  0.1660
  142SAPE  H13X15593   7.218   5.981   9.136 -2.1973 -1.8169 -1.7756
  142SAPE  H13Y15594   7.068   6.071   9.175  1.5088  1.3517 -0.6000
  142SAPE  C31415595   7.074   5.861   9.237  0.0469  0.6709  0.1041
  142SAPE  H14X15596   6.990   5.888   9.304 -0.3220  1.0361 -0.4933
  142SAPE  H14Y15597   7.145   5.792   9.287  1.5081  0.5330 -2.0838
  142SAPE  C31515598   7.024   5.799   9.106  0.3079  0.5947  0.0022
  142SAPE  H15X15599   6.973   5.707   9.141  1.4597  0.7039  2.0946
  142SAPE  H15Y15600   7.100   5.776   9.028 -0.3767 -1.5375 -0.0632
  142SAPE  C31615601   6.923   5.895   9.036  0.6368  0.3587  0.3259
  142SAPE  H16X15602   6.983   5.971   8.981 -1.3912  0.5842 -1.6170
  142SAPE  H16Y15603   6.860   5.940   9.115 -0.6558 -1.2308  0.2222
  142SAPE  C31715604   6.820   5.834   8.941 -0.4131  0.0413 -0.4868
  142SAPE  H17X15605   6.865   5.782   8.853  1.4673 -0.8641  0.9859
  142SAPE  H17Y15606   6.768   5.920   8.893 -0.3757 -1.2122 -2.8367
  142SAPE  C31815607   6.718   5.742   9.001 -0.0408  0.1119 -0.1117
  142SAPE  H18X15608   6.641   5.790   9.067 -0.7855 -0.8826 -0.2442
  142SAPE  H18Y15609   6.751   5.643   9.038 -0.7175 -0.4507 -1.0077
  142SAPE  H18Z15610   6.644   5.713   8.924  0.1632  0.6002 -0.4922
  143SAPE     N15611   1.534   0.763  10.789  0.3954  0.5034  0.2104
  143SAPE   HN115612   1.609   0.822  10.746 -1.2086  1.1229 -1.8148
  143SAPE   HN215613   1.570   0.672  10.822 -2.1660 -0.5038  0.3448
  143SAPE   HN315614   1.465   0.741  10.715  0.8391 -0.4078  0.0639
  143SAPE   C1215615   1.452   0.835  10.892  0.5576  0.1607 -0.5826
  143SAPE  H12A15616   1.446   0.942  10.866  1.9782  0.9670  2.2710
  143SAPE  H12B15617   1.503   0.824  10.990 -0.3890  0.6936 -0.0254
  143SAPE   C1115618   1.308   0.775  10.901 -0.0136  0.5829 -0.2936
  143SAPE  H11A15619   1.260   0.787  10.802 -0.7574 -0.5522 -0.0783
  143SAPE  H11B15620   1.248   0.833  10.975 -0.2488  0.6296 -0.5170
  143SAPE     P15621   1.190   0.537  10.922 -0.0747 -0.0994  0.2998
  143SAPE   O1315622   1.122   0.501  11.049 -0.4443  0.0940  0.0094
  143SAPE   O1415623   1.097   0.586  10.818 -0.8015 -0.2090  0.3893
  143SAPE   O1215624   1.315   0.631  10.944  0.3240 -0.6018 -0.5997
  143SAPE   O1115625   1.249   0.402  10.856  0.0758 -0.6304  0.2405
  143SAPE    C115626   1.372   0.401  10.783 -0.5405 -0.2294 -0.1642
  143SAPE    HA15627   1.429   0.497  10.786 -0.8063 -0.1077  2.0262
  143SAPE    HB15628   1.437   0.324  10.830 -0.3814 -0.3053 -0.5065
  143SAPE    C215629   1.344   0.355  10.638  0.4474  0.1576  0.4058
  143SAPE    HS15630   1.444   0.359  10.589  0.0119  0.6940 -0.4631
  143SAPE   O2115631   1.252   0.438  10.571  0.5269 -0.4944  0.7351
  143SAPE   C2115632   1.302   0.558  10.532  0.0678  0.7438  0.0618
  143SAPE   O2215633   1.407   0.604  10.581 -0.3112 -0.2986 -0.0824
  143SAPE   C2215634   1.216   0.619  10.417  0.2375 -0.7022 -1.0312
  143SAPE   H2R15635   1.149   0.683  10.478  2.1766  0.2695  0.1398
  143SAPE   H2S15636   1.279   0.690  10.358 -0.9946  1.5767  0.3556
  143SAPE    C315637   1.284   0.213  10.627 -0.2729  0.5322  0.9544
  143SAPE    HX15638   1.186   0.229  10.678 -0.7461  0.5502  0.0660
  143SAPE    HY15639   1.330   0.137  10.693 -2.6503 -1.5691  0.2962
  143SAPE   O3115640   1.245   0.168  10.493  0.3124  0.0638 -0.6118
  143SAPE   C3115641   1.354   0.120  10.419  0.1400  0.5081 -0.4228
  143SAPE   O3215642   1.469   0.145  10.440 -0.4047 -0.2668 -0.4091
  143SAPE   C3215643   1.309   0.027  10.307  0.1487  0.4954  0.7401
  143SAPE   H2X15644   1.216   0.062  10.259 -0.0281  0.2447  0.9007
  143SAPE   H2Y15645   1.304  -0.074  10.354  0.2937  1.1211  2.1308
  143SAPE   C2315646   1.136   0.526  10.330  0.2038  0.5851  0.0883
  143SAPE   H3R15647   1.052   0.572  10.274 -1.1599 -1.9789 -0.0840
  143SAPE   H3S15648   1.090   0.438  10.381  0.3502  0.6319  0.3023
  143SAPE   C2415649   1.230   0.469  10.219 -0.1520  0.0444  0.4874
  143SAPE   H4R15650   1.325   0.431  10.261  1.3115  1.5183 -1.3632
  143SAPE   H4S15651   1.253   0.555  10.153 -1.3759 -1.3958 -1.8944
  143SAPE   C2515652   1.158   0.359  10.142 -0.4707  0.0598  0.4357
  143SAPE   H5R15653   1.111   0.292  10.216  1.4702  0.0139  1.6543
  143SAPE   C2615654   1.140   0.338  10.007  0.7469 -0.2110  0.1008
  143SAPE   H6R15655   1.070   0.256   9.984  1.1816 -0.3114 -0.8792
  143SAPE   C2715656   1.191   0.425   9.893 -0.1194  0.2341 -0.4552
  143SAPE   H7R15657   1.251   0.506   9.941 -2.2445  1.0108  0.9510
  143SAPE   H7S15658   1.110   0.492   9.857  1.3090  0.6886 -2.9523
  143SAPE   C2815659   1.265   0.354   9.788 -0.3222  0.0895 -0.6057
  143SAPE   H8R15660   1.356   0.309   9.831 -0.0904 -0.5552 -1.7464
  143SAPE   C2915661   1.244   0.344   9.655  0.7920 -0.2003 -0.7363
  143SAPE   H9R15662   1.326   0.295   9.601  1.0689 -2.0336  1.2535
  143SAPE  C21015663   1.130   0.416   9.584 -0.3194  0.4393 -0.2888
  143SAPE  H10R15664   1.176   0.467   9.496 -2.1056 -0.2066 -1.6293
  143SAPE  H10S15665   1.097   0.501   9.648 -2.8184 -0.4151 -0.3776
  143SAPE  C21115666   1.021   0.326   9.540  0.2545  0.3320 -0.3651
  143SAPE  H11R15667   0.953   0.283   9.615  0.2298  0.9039 -0.0602
  143SAPE  C21215668   1.007   0.273   9.416 -0.0464  0.0845 -0.1612
  143SAPE  H12R15669   0.933   0.192   9.405 -1.4494  1.4013 -0.6210
  143SAPE  C21315670   1.092   0.300   9.291  0.2400  0.7505  0.7048
  143SAPE  H13R15671   1.165   0.217   9.278  2.3523  2.1869  2.8628
  143SAPE  H13S15672   1.143   0.398   9.302  0.4872  0.6526  0.4259
  143SAPE  C21415673   1.004   0.324   9.157  0.2658  0.3167  0.1346
  143SAPE  H14R15674   0.959   0.424   9.152  1.9355  1.1490  1.2053
  143SAPE  C21515675   0.984   0.234   9.063 -0.2478  0.8842  0.0347
  143SAPE  H15R15676   0.929   0.264   8.973  2.5789 -1.2245 -2.4848
  143SAPE  C21615677   1.033   0.092   9.048  0.3354 -0.7260  0.6574
  143SAPE  H16R15678   0.946   0.025   9.067 -0.4110  0.1398  0.3783
  143SAPE  H16S15679   1.104   0.068   9.129  3.0552 -3.0791 -2.3008
  143SAPE  C21715680   1.103   0.052   8.913  0.4319 -0.0659  0.6316
  143SAPE  H17R15681   1.045   0.080   8.823 -0.1308  4.1777  2.1633
  143SAPE  H17S15682   1.127  -0.056   8.915  2.9385  0.4792  1.8868
  143SAPE  C21815683   1.236   0.130   8.909  0.2528 -0.7016 -0.2703
  143SAPE  H18R15684   1.279   0.146   9.011 -0.1018 -1.3594 -0.0115
  143SAPE  H18S15685   1.204   0.232   8.880 -1.0169 -1.5745 -2.0074
  143SAPE  C21915686   1.334   0.074   8.809 -0.5155  0.0414  0.0139
  143SAPE  H19R15687   1.369  -0.019   8.858 -0.1351  0.3355  0.3047
  143SAPE  H19S15688   1.426   0.135   8.805 -0.8334  0.5088 -0.1892
  143SAPE  C22015689   1.277   0.042   8.674 -0.0537  0.5898  1.4599
  143SAPE  H20R15690   1.205  -0.042   8.683 -0.1728  0.2645 -1.8904
  143SAPE  H20S15691   1.361   0.024   8.604 -0.7582  2.4424  0.1047
  143SAPE  H20T15692   1.222   0.129   8.631  0.5263  1.3517  2.2355
  143SAPE   C3315693   1.417   0.012  10.197  0.6888 -0.4284 -0.0886
  143SAPE   H3X15694   1.485  -0.068  10.230  1.7825  0.6488  0.3113
  143SAPE   H3Y15695   1.479   0.103  10.182  0.4930 -0.6199 -2.2026
  143SAPE   C3415696   1.354  -0.019  10.063  0.1029  0.3724  0.1490
  143SAPE   H4X15697   1.280   0.060  10.037  2.6409  2.8160  0.1408
  143SAPE   H4Y15698   1.290  -0.110  10.067 -0.9815  1.1974  3.0507
  143SAPE   C3515699   1.459  -0.016   9.948 -0.1458  0.0074  0.5886
  143SAPE   H5X15700   1.536  -0.096   9.944  0.2295  0.4538 -1.8224
  143SAPE   H5Y15701   1.512   0.081   9.943 -1.9394  0.9506 -0.4469
  143SAPE   C3615702   1.400  -0.005   9.800  0.7492  0.0724  0.3877
  143SAPE   H6X15703   1.338   0.086   9.782 -0.2347 -0.8927 -1.1890
  143SAPE   H6Y15704   1.341  -0.098   9.792 -1.4142  1.5867 -1.7998
  143SAPE   C3715705   1.514  -0.005   9.701 -0.0689 -0.3790 -0.0715
  143SAPE   H7X15706   1.590  -0.084   9.718  0.1445  0.1028  1.2657
  143SAPE   H7Y15707   1.557   0.097   9.704  1.0168 -0.8996  2.5286
  143SAPE   C3815708   1.455  -0.033   9.555  0.6412 -0.4622 -0.5501
  143SAPE   H8X15709   1.367   0.033   9.544  1.5081  0.7656 -0.2842
  143SAPE   H8Y15710   1.429  -0.141   9.549 -1.2155 -0.0990  0.6906
  143SAPE   C3915711   1.555  -0.007   9.439 -0.1181  0.1525  0.7869
  143SAPE   H9X15712   1.659  -0.033   9.465  0.5015  0.6758 -1.1045
  143SAPE   H9Y15713   1.555   0.102   9.416 -1.5482  0.4813  2.2289
  143SAPE  C31015714   1.518  -0.080   9.309 -0.2924  0.5142 -0.1902
  143SAPE  H10X15715   1.488  -0.008   9.230 -0.5528  1.1288  0.4691
  143SAPE  H10Y15716   1.422  -0.130   9.335 -1.0137  1.5115 -0.8847
  143SAPE  C31115717   1.625  -0.178   9.253 -0.3060 -0.3502  0.1339
  143SAPE  H11X15718   1.641  -0.264   9.321  0.1263 -0.8375 -0.5797
  143SAPE  H11Y15719   1.725  -0.130   9.262 -1.7640  2.7206  0.5317
  143SAPE  C31215720   1.571  -0.220   9.113  0.4851 -0.1316 -0.3040
  143SAPE  H12X15721   1.592  -0.142   9.037  1.1935 -2.8259 -2.9843
  143SAPE  H12Y15722   1.460  -0.211   9.117  0.6347  0.7588  2.7344
  143SAPE  C31315723   1.624  -0.350   9.067  0.0352  0.0636  0.1013
  143SAPE  H13X15724   1.724  -0.371   9.111  0.2731  0.1843 -0.3855
  143SAPE  H13Y15725   1.627  -0.352   8.956  1.0809 -1.3507  0.1493
  143SAPE  C31415726   1.530  -0.462   9.116  0.1178 -0.2156 -0.0587
  143SAPE  H14X15727   1.426  -0.433   9.090 -0.3951 -2.4766 -0.5875
  143SAPE  H14Y15728   1.532  -0.469   9.227 -0.8804 -0.2360 -0.0327
  143SAPE  C31515729   1.554  -0.599   9.062  0.6370  0.1677 -0.6775
  143SAPE  H15X15730   1.662  -0.625   9.069  0.5524  0.0960  0.4880
  143SAPE  H15Y15731   1.525  -0.598   8.955 -0.1662  0.1761 -0.4565
  143SAPE  C31615732   1.471  -0.709   9.128  0.2090 -0.0344 -0.2806
  143SAPE  H16X15733   1.520  -0.738   9.223 -1.3389 -1.3606  0.1330
  143SAPE  H16Y15734   1.486  -0.799   9.065  1.1680 -1.4358  1.9028
  143SAPE  C31715735   1.316  -0.678   9.140 -0.4726 -0.0955 -0.0072
  143SAPE  H17X15736   1.281  -0.693   9.036 -1.2897 -2.0849  0.5205
  143SAPE  H17Y15737   1.283  -0.579   9.178 -2.2896 -0.8963  0.5568
  143SAPE  C31815738   1.251  -0.785   9.224 -0.1163  0.5093 -0.2554
  143SAPE  H18X15739   1.152  -0.743   9.250 -0.1951 -0.3419  0.8267
  143SAPE  H18Y15740   1.293  -0.806   9.324  2.1150 -0.1352 -1.2926
  143SAPE  H18Z15741   1.241  -0.875   9.160 -0.7911 -1.9682  3.2235
  144SAPE     N15742   4.254   4.934  11.317 -0.5708 -0.1568 -0.0545
  144SAPE   HN115743   4.327   4.864  11.291 -2.1048 -1.7049 -0.3150
  144SAPE   HN215744   4.274   4.962  11.415 -0.7596 -0.4558  0.0717
  144SAPE   HN315745   4.165   4.881  11.319 -0.4216 -0.3398  2.8596
  144SAPE   C1215746   4.244   5.039  11.214 -0.6576  0.1229  0.2329
  144SAPE  H12A15747   4.337   5.098  11.234 -0.1401  0.1873 -2.1943
  144SAPE  H12B15748   4.153   5.099  11.233 -1.2467 -0.9983  0.9647
  144SAPE   C1115749   4.248   4.994  11.065  0.6161 -0.0223  0.1833
  144SAPE  H11A15750   4.282   5.088  11.017  1.5077 -0.6153 -0.3673
  144SAPE  H11B15751   4.150   4.976  11.015  0.5944  0.0959  0.1833
  144SAPE     P15752   4.495   4.918  11.011  0.0209  0.3459 -0.0679
  144SAPE   O1315753   4.524   5.039  11.093  0.5234  0.0158  0.5389
  144SAPE   O1415754   4.583   4.803  11.037  0.2025  0.3101  0.2848
  144SAPE   O1215755   4.340   4.885  11.038  0.0211  0.3238 -0.3495
  144SAPE   O1115756   4.515   4.958  10.861  0.4448  0.3558  0.2130
  144SAPE    C115757   4.421   4.951  10.758  0.7805  0.8528  0.1872
  144SAPE    HA15758   4.389   4.846  10.740 -0.4218  1.1394  0.6173
  144SAPE    HB15759   4.336   5.014  10.792  1.7653  2.5970 -0.5021
  144SAPE    C215760   4.465   5.025  10.624  0.0369 -0.2010 -0.7070
  144SAPE    HS15761   4.372   5.030  10.563 -0.4191  0.0449 -0.0054
  144SAPE   O2115762   4.572   4.948  10.561  0.2784  0.3035 -0.2141
  144SAPE   C2115763   4.572   4.964  10.433 -0.4410  0.6971  0.0407
  144SAPE   O2215764   4.491   5.035  10.369 -0.1803 -0.4978 -0.2462
  144SAPE   C2215765   4.687   4.882  10.362 -0.8622 -0.4401  0.0848
  144SAPE   H2R15766   4.784   4.905  10.412 -0.5779  0.1363 -0.7205
  144SAPE   H2S15767   4.650   4.779  10.376 -0.5900 -0.9449 -2.7156
  144SAPE    C315768   4.509   5.175  10.648  0.2903  0.5252  0.3019
  144SAPE    HX15769   4.610   5.149  10.685 -0.2231 -1.5179  0.3311
  144SAPE    HY15770   4.435   5.214  10.721 -0.7797 -1.0260  0.0777
  144SAPE   O3115771   4.510   5.243  10.523 -0.5702 -0.1133  0.5903
  144SAPE   C3115772   4.396   5.305  10.487 -0.2929 -0.6183 -0.7611
  144SAPE   O3215773   4.314   5.331  10.569  0.4299 -0.0435  0.4812
  144SAPE   C3215774   4.395   5.340  10.337 -0.1137  0.3976 -0.2246
  144SAPE   H2X15775   4.446   5.257  10.283  0.3622  0.5426 -0.0059
  144SAPE   H2Y15776   4.461   5.428  10.319  0.7758 -0.1880  0.1527
  144SAPE   C2315777   4.690   4.898  10.203  0.1730  0.4734 -0.8045
  144SAPE   H3R15778   4.665   5.005  10.190 -1.9920  0.1082  0.0476
  144SAPE   H3S15779   4.598   4.841  10.176 -1.3968  0.8773  3.2332
  144SAPE   C2415780   4.820   4.861  10.131 -0.5946 -0.7003  0.5497
  144SAPE   H4R15781   4.886   4.934  10.182  0.1285 -0.0672 -1.2539
  144SAPE   H4S15782   4.829   4.881  10.022 -1.1383  1.1786  0.8472
  144SAPE   C2515783   4.861   4.716  10.152  0.0763  0.2331 -1.0784
  144SAPE   H5R15784   4.898   4.701  10.255  0.1286 -1.1807 -1.2983
  144SAPE   C2615785   4.854   4.612  10.065  0.4091  0.0167 -0.0352
  144SAPE   H6R15786   4.887   4.516  10.108 -1.8102 -0.8976 -0.3322
  144SAPE   C2715787   4.800   4.612   9.923  0.4967  0.4042 -0.8433
  144SAPE   H7R15788   4.715   4.681   9.905 -0.5509 -0.7525 -0.3745
  144SAPE   H7S15789   4.763   4.508   9.908  0.3441  0.4184 -0.5597
  144SAPE   C2815790   4.905   4.644   9.815  0.2541 -0.1796  0.0712
  144SAPE   H8R15791   5.009   4.631   9.849 -0.7024 -1.1357  2.7660
  144SAPE   C2915792   4.880   4.707   9.696 -0.4131  0.5289  0.1674
  144SAPE   H9R15793   4.970   4.735   9.638 -0.1002  1.0699  0.9009
  144SAPE  C21015794   4.745   4.739   9.642  0.0072  0.5261  0.8385
  144SAPE  H10R15795   4.724   4.844   9.675 -0.6912  0.7396 -0.2354
  144SAPE  H10S15796   4.656   4.686   9.681  0.4535 -0.7583  0.1113
  144SAPE  C21115797   4.727   4.742   9.496 -0.4973  0.9514 -0.0882
  144SAPE  H11R15798   4.736   4.844   9.454  0.0203  0.8392 -0.2465
  144SAPE  C21215799   4.703   4.632   9.421 -0.0683 -0.5046  0.0830
  144SAPE  H12R15800   4.699   4.646   9.312 -1.5929  2.7797  0.4994
  144SAPE  C21315801   4.679   4.496   9.465  0.6021  0.1847  0.0717
  144SAPE  H13R15802   4.754   4.464   9.540 -1.1513 -1.4144  1.1670
  144SAPE  H13S15803   4.692   4.433   9.375  0.9244 -0.0058  0.2533
  144SAPE  C21415804   4.543   4.469   9.514  0.1697 -0.8089  0.4689
  144SAPE  H14R15805   4.523   4.496   9.619 -4.5495 -3.2706  0.3054
  144SAPE  C21515806   4.436   4.417   9.440  0.2934  0.6787  0.1858
  144SAPE  H15R15807   4.347   4.400   9.503  0.5070  0.6554  0.4845
  144SAPE  C21615808   4.427   4.379   9.298 -0.6420 -0.0849 -0.0708
  144SAPE  H16R15809   4.367   4.287   9.288 -1.6539  0.5230  0.3415
  144SAPE  H16S15810   4.526   4.343   9.262  0.3080  2.4284 -0.0763
  144SAPE  C21715811   4.355   4.481   9.211 -0.3117  0.4120 -0.1911
  144SAPE  H17R15812   4.410   4.578   9.218  0.3987  0.0501 -0.6841
  144SAPE  H17S15813   4.248   4.503   9.230 -0.7126 -1.0085 -0.7920
  144SAPE  C21815814   4.362   4.448   9.061 -0.2855 -0.9113  0.7687
  144SAPE  H18R15815   4.461   4.408   9.028 -0.5946 -0.5683 -0.5985
  144SAPE  H18S15816   4.347   4.535   8.994  0.4246 -0.5900  1.0195
  144SAPE  C21915817   4.270   4.329   9.021 -0.3232 -0.0285 -0.5086
  144SAPE  H19R15818   4.162   4.350   9.028 -0.3587 -0.1932 -0.5569
  144SAPE  H19S15819   4.288   4.243   9.090 -1.3691  0.2230  0.0805
  144SAPE  C22015820   4.312   4.279   8.882 -0.0961 -0.3404  0.3275
  144SAPE  H20R15821   4.295   4.369   8.820  0.1193  1.4930  2.8529
  144SAPE  H20S15822   4.240   4.207   8.837  1.5244 -1.5099 -0.4276
  144SAPE  H20T15823   4.412   4.231   8.871  0.5641  0.8428  1.0695
  144SAPE   C3315824   4.252   5.360  10.290  0.5040 -0.0983  0.2474
  144SAPE   H3X15825   4.203   5.428  10.362  1.4714  0.7250  0.1514
  144SAPE   H3Y15826   4.202   5.261  10.286 -1.2803  0.8434 -2.0764
  144SAPE   C3415827   4.238   5.443  10.161  1.0327 -0.1144 -0.1424
  144SAPE   H4X15828   4.326   5.509  10.170  1.9823 -1.3555 -0.1814
  144SAPE   H4Y15829   4.137   5.489  10.160  1.7567  1.5126 -0.0012
  144SAPE   C3515830   4.254   5.357  10.037 -0.0540 -0.5230  0.1074
  144SAPE   H5X15831   4.205   5.259  10.060  0.0959 -0.4991  0.5260
  144SAPE   H5Y15832   4.361   5.335  10.016 -0.2374 -1.6466  0.2886
  144SAPE   C3615833   4.185   5.416   9.918 -0.1294  0.3415  0.6271
  144SAPE   H6X15834   4.185   5.527   9.928 -2.1444  0.7922 -3.3297
  144SAPE   H6Y15835   4.075   5.404   9.923 -0.0657  0.1708  1.7136
  144SAPE   C3715836   4.243   5.368   9.780 -0.3206  0.6907  0.4743
  144SAPE   H7X15837   4.232   5.258   9.771 -1.9922  0.8658  0.1611
  144SAPE   H7Y15838   4.353   5.384   9.783 -0.1296 -0.5216  0.2419
  144SAPE   C3815839   4.168   5.430   9.658 -0.0790  0.7906  0.7881
  144SAPE   H8X15840   4.204   5.535   9.652 -2.0484  1.5051  0.8345
  144SAPE   H8Y15841   4.059   5.433   9.680 -1.0245 -0.1719 -3.4184
  144SAPE   C3915842   4.186   5.353   9.528 -0.9478 -0.4008  0.5358
  144SAPE   H9X15843   4.142   5.254   9.552  0.2016 -1.0298  0.0793
  144SAPE   H9Y15844   4.296   5.339   9.532 -0.6554  0.9231 -2.0912
  144SAPE  C31015845   4.162   5.431   9.403  0.4848  0.3008 -0.7470
  144SAPE  H10X15846   4.167   5.370   9.310 -1.2286  1.8280 -1.8735
  144SAPE  H10Y15847   4.243   5.507   9.405  2.2948 -1.5930  3.0611
  144SAPE  C31115848   4.023   5.495   9.399 -0.5268  0.6675 -0.4094
  144SAPE  H11X15849   4.014   5.572   9.478 -1.4026 -1.2211  1.4018
  144SAPE  H11Y15850   3.941   5.432   9.440  2.0523 -1.1062  2.2289
  144SAPE  C31215851   3.987   5.561   9.269  0.7643  0.3499  0.1616
  144SAPE  H12X15852   4.066   5.628   9.228  0.9567  0.3846  0.5951
  144SAPE  H12Y15853   3.897   5.626   9.282 -1.2061 -2.0077 -1.2425
  144SAPE  C31315854   3.950   5.462   9.152 -0.2690  0.1389 -0.5929
  144SAPE  H13X15855   3.890   5.380   9.198  1.7201 -1.5758 -0.9773
  144SAPE  H13Y15856   4.049   5.425   9.118  0.6829 -0.3554  2.5648
  144SAPE  C31415857   3.866   5.527   9.044  0.3760 -0.6746  1.4920
  144SAPE  H14X15858   3.926   5.593   8.977 -1.7700  0.7137  0.9091
  144SAPE  H14Y15859   3.797   5.599   9.092  0.6026  1.8803 -1.8426
  144SAPE  C31515860   3.777   5.435   8.961  0.1578  0.5066  0.0039
  144SAPE  H15X15861   3.697   5.492   8.908 -1.3092 -0.9142  0.6708
  144SAPE  H15Y15862   3.722   5.372   9.033  1.0054  1.0130  1.1138
  144SAPE  C31615863   3.860   5.352   8.858 -0.4581 -0.2770 -0.0391
  144SAPE  H16X15864   3.931   5.286   8.912 -0.8517  0.1971  1.0827
  144SAPE  H16Y15865   3.930   5.427   8.814 -0.6704 -0.3868 -0.5676
  144SAPE  C31715866   3.773   5.291   8.753 -0.2555 -0.0193 -0.4598
  144SAPE  H17X15867   3.714   5.370   8.702 -0.8773  0.5806  1.1701
  144SAPE  H17Y15868   3.696   5.235   8.810  0.1501  0.9087  1.0307
  144SAPE  C31815869   3.850   5.216   8.651  0.2653  0.4319 -0.4758
  144SAPE  H18X15870   3.908   5.279   8.580 -0.4156  0.7231 -0.7722
  144SAPE  H18Y15871   3.761   5.166   8.606 -0.0399 -0.0146  0.6157
  144SAPE  H18Z15872   3.914   5.137   8.696  2.1683  0.2274 -3.4062
  145SAPE     N15873   2.057   5.419  11.349  0.1686  0.8545  0.2247
  145SAPE   HN115874   1.995   5.390  11.271  1.6854 -0.7165 -0.4453
  145SAPE   HN215875   2.123   5.490  11.310 -0.9473  1.0232 -1.4041
  145SAPE   HN315876   2.112   5.332  11.364  0.7984  1.1666 -0.2711
  145SAPE   C1215877   1.971   5.473  11.469  0.9660 -0.1220  0.7419
  145SAPE  H12A15878   2.041   5.453  11.553  3.2558 -2.0324 -1.5224
  145SAPE  H12B15879   1.884   5.406  11.476 -0.9617  2.2230  0.0632
  145SAPE   C1115880   1.928   5.619  11.443 -1.2001 -0.2771 -0.5174
  145SAPE  H11A15881   1.897   5.665  11.539 -1.6831 -0.5697 -0.5304
  145SAPE  H11B15882   1.847   5.618  11.367 -1.7851 -0.4601  0.1056
  145SAPE     P15883   1.992   5.836  11.321  0.0744 -0.0510 -0.3459
  145SAPE   O1315884   1.851   5.861  11.363 -0.3531 -0.4784  0.2797
  145SAPE   O1415885   2.096   5.929  11.358  0.5874 -1.2706 -0.5513
  145SAPE   O1215886   2.034   5.700  11.387 -0.6008  0.4052  0.3186
  145SAPE   O1115887   1.996   5.802  11.170  0.4430 -0.0763  0.5133
  145SAPE    C115888   2.110   5.808  11.089  0.4014  0.1309  0.3155
  145SAPE    HA15889   2.141   5.915  11.079  1.1640 -0.0862  0.2729
  145SAPE    HB15890   2.196   5.744  11.118 -0.1607  0.8687  3.7795
  145SAPE    C215891   2.077   5.755  10.940 -0.3367  0.2006  0.0396
  145SAPE    HS15892   2.175   5.712  10.910 -0.6844 -0.2147 -0.5236
  145SAPE   O2115893   2.024   5.870  10.857 -0.5158 -0.0631 -0.2376
  145SAPE   C2115894   2.067   5.866  10.729 -0.4564  0.1902  0.3714
  145SAPE   O2215895   2.144   5.782  10.686 -0.5737 -0.0460  0.5354
  145SAPE   C2215896   1.997   5.972  10.648  1.3291 -0.0253  0.1501
  145SAPE   H2R15897   1.890   5.971  10.678  0.7825 -1.1190 -1.8019
  145SAPE   H2S15898   2.031   6.075  10.672  1.1647  0.2194 -0.6565
  145SAPE    C315899   1.976   5.642  10.941  0.3700  1.2995  0.2950
  145SAPE    HX15900   1.872   5.680  10.949  0.0928  0.3667  1.3306
  145SAPE    HY15901   1.992   5.580  11.032 -0.8982  0.5265  0.0065
  145SAPE   O3115902   1.991   5.566  10.815 -0.0954  0.7356 -0.3690
  145SAPE   C3115903   2.076   5.467  10.814  0.5000  0.2981 -0.0576
  145SAPE   O3215904   2.131   5.416  10.912  0.3312 -1.0307 -0.1293
  145SAPE   C3215905   2.091   5.410  10.673 -0.8667  0.3032  0.4503
  145SAPE   H2X15906   2.174   5.474  10.636 -0.0614 -1.3197 -0.6642
  145SAPE   H2Y15907   1.996   5.425  10.618 -1.2465 -1.0073  0.7278
  145SAPE   C2315908   2.004   5.960  10.491 -0.2408  0.1745  0.2994
  145SAPE   H3R15909   1.992   5.854  10.459 -1.9447  0.3154  0.4199
  145SAPE   H3S15910   2.107   5.987  10.458 -0.1188 -0.8809 -0.2219
  145SAPE   C2415911   1.907   6.062  10.423 -0.5983 -0.4008 -0.8178
  145SAPE   H4R15912   1.923   6.068  10.314 -2.2207  0.6447 -1.0037
  145SAPE   H4S15913   1.920   6.167  10.457  0.6912 -0.2024 -1.8807
  145SAPE   C2515914   1.759   6.018  10.442  0.1585 -0.1304  0.4590
  145SAPE   H5R15915   1.721   6.041  10.543 -2.1576  2.7261 -1.0041
  145SAPE   C2615916   1.686   5.950  10.350 -0.7297 -0.0724 -0.0615
  145SAPE   H6R15917   1.583   5.925  10.379 -0.7587  2.0903  1.8604
  145SAPE   C2715918   1.722   5.899  10.212 -0.1579 -0.0457 -0.4253
  145SAPE   H7R15919   1.703   5.791  10.197  0.0943  0.1994 -2.6200
  145SAPE   H7S15920   1.830   5.896  10.186 -0.0860  4.0224 -0.8559
  145SAPE   C2815921   1.648   5.984  10.108  0.2711  0.0168  0.0450
  145SAPE   H8R15922   1.577   6.062  10.139 -0.7777 -1.0811  0.4467
  145SAPE   C2915923   1.664   5.970   9.974  0.7626  0.9025 -0.1522
  145SAPE   H9R15924   1.594   6.020   9.905  0.0146  2.4074  1.6718
  145SAPE  C21015925   1.753   5.869   9.908  0.8660 -0.3593  0.0007
  145SAPE  H10R15926   1.704   5.804   9.833 -1.5825  0.0415  1.1822
  145SAPE  H10S15927   1.804   5.802   9.981  0.4883 -1.1544 -0.4586
  145SAPE  C21115928   1.856   5.956   9.846  0.1205  0.5734 -0.2581
  145SAPE  H11R15929   1.817   6.038   9.783 -0.2640  1.2097  0.7860
  145SAPE  C21215930   1.990   5.955   9.872 -0.1857  0.0930 -0.2848
  145SAPE  H12R15931   2.051   6.038   9.834 -0.2843  0.8224  1.1002
  145SAPE  C21315932   2.075   5.852   9.957  0.2221 -0.5524 -0.5486
  145SAPE  H13R15933   2.165   5.826   9.897 -0.5686 -3.1551 -0.6690
  145SAPE  H13S15934   2.020   5.758   9.978  2.5162 -1.3403  2.2180
  145SAPE  C21415935   2.114   5.916  10.089  0.5550 -0.2962  0.5297
  145SAPE  H14R15936   2.070   6.015  10.105  1.2333  0.2748 -0.9749
  145SAPE  C21515937   2.198   5.875  10.178  0.4175  0.1712 -0.0829
  145SAPE  H15R15938   2.208   5.941  10.266 -1.4345  0.2670  0.0839
  145SAPE  C21615939   2.263   5.742  10.176  0.0720  0.2119 -0.4297
  145SAPE  H16R15940   2.367   5.744  10.138 -0.8667  0.8071 -3.1365
  145SAPE  H16S15941   2.215   5.684  10.094 -0.8828 -0.7966  0.8279
  145SAPE  C21715942   2.259   5.666  10.308  0.1966  0.5731 -0.2242
  145SAPE  H17R15943   2.276   5.559  10.284  1.2602  0.9177 -1.0490
  145SAPE  H17S15944   2.164   5.685  10.362  1.2279  1.2574  1.3764
  145SAPE  C21815945   2.373   5.710  10.400 -0.3809 -0.8763  0.3315
  145SAPE  H18R15946   2.350   5.654  10.494 -1.1527 -1.3311 -0.1185
  145SAPE  H18S15947   2.368   5.819  10.423  0.7795 -0.9117  0.7535
  145SAPE  C21915948   2.512   5.669  10.358  0.3110 -0.1299 -0.6521
  145SAPE  H19R15949   2.554   5.730  10.275 -0.3839  1.3402  0.0615
  145SAPE  H19S15950   2.511   5.561  10.329  2.4984 -0.5975  0.8806
  145SAPE  C22015951   2.602   5.689  10.480  0.0136 -0.2703 -0.6634
  145SAPE  H20R15952   2.614   5.796  10.509 -1.1791 -0.3903  0.3507
  145SAPE  H20S15953   2.694   5.628  10.472 -0.3791 -1.1358  1.0382
  145SAPE  H20T15954   2.557   5.640  10.570  0.0970 -0.8358 -0.9301
  145SAPE   C3315955   2.126   5.252  10.668  0.1083 -0.4113 -0.4363
  145SAPE   H3X15956   2.026   5.210  10.692  0.9905 -2.0762  0.3725
  145SAPE   H3Y15957   2.206   5.227  10.742 -1.6954  1.1624  2.1381
  145SAPE   C3415958   2.168   5.192  10.531  0.2382 -0.0398  0.7805
  145SAPE   H4X15959   2.083   5.170  10.463  1.1036 -0.0156 -0.3241
  145SAPE   H4Y15960   2.216   5.093  10.544  0.7447  0.3460  1.8699
  145SAPE   C3515961   2.270   5.280  10.458 -0.3689  0.7201  0.3515
  145SAPE   H5X15962   2.370   5.271  10.506 -0.2647 -0.7850 -0.1337
  145SAPE   H5Y15963   2.250   5.389  10.467  2.3093  1.3404 -0.6919
  145SAPE   C3615964   2.310   5.257  10.307  0.9258  0.1032  0.0506
  145SAPE   H6X15965   2.355   5.155  10.308  2.1548  0.6193 -2.0033
  145SAPE   H6Y15966   2.377   5.341  10.279  0.5755  0.4256  0.1740
  145SAPE   C3715967   2.182   5.263  10.212 -0.1064  0.5376  0.6350
  145SAPE   H7X15968   2.126   5.360  10.211  1.3107  1.3728 -1.0735
  145SAPE   H7Y15969   2.120   5.177  10.245  0.1719 -0.8141 -2.2062
  145SAPE   C3815970   2.208   5.247  10.064 -0.3050  0.0276  0.0807
  145SAPE   H8X15971   2.107   5.244  10.019 -0.5483 -0.8579  0.6638
  145SAPE   H8Y15972   2.272   5.160  10.038  1.4208  1.3175 -0.0569
  145SAPE   C3915973   2.272   5.374  10.010  0.0752 -0.2527  0.8562
  145SAPE   H9X15974   2.373   5.393  10.053  1.1374 -1.8964 -0.8377
  145SAPE   H9Y15975   2.209   5.459  10.045 -0.3098 -0.8914  1.7184
  145SAPE  C31015976   2.287   5.369   9.855 -0.4839 -0.0371 -0.1185
  145SAPE  H10X15977   2.288   5.477   9.828 -0.6915 -0.3197 -1.3007
  145SAPE  H10Y15978   2.191   5.341   9.806  0.3617 -0.1381 -1.7361
  145SAPE  C31115979   2.423   5.310   9.808 -0.6153 -0.2823  0.5728
  145SAPE  H11X15980   2.413   5.203   9.836 -1.8046 -1.0874 -2.6307
  145SAPE  H11Y15981   2.501   5.361   9.868 -0.2500 -0.4176  0.2129
  145SAPE  C31215982   2.444   5.321   9.657  0.4534 -0.1097  0.7543
  145SAPE  H12X15983   2.441   5.428   9.628 -0.0059  0.4135  2.7057
  145SAPE  H12Y15984   2.362   5.266   9.606 -1.6401  2.2821  1.4522
  145SAPE  C31315985   2.576   5.264   9.619  0.0456  0.3486  0.4544
  145SAPE  H13X15986   2.573   5.159   9.655  1.5502 -0.4495 -1.6863
  145SAPE  H13Y15987   2.653   5.312   9.683 -1.4254 -0.2625  2.7714
  145SAPE  C31415988   2.598   5.273   9.476 -0.5883 -0.0948 -0.5030
  145SAPE  H14X15989   2.522   5.232   9.406 -0.6231 -1.5480  0.3619
  145SAPE  H14Y15990   2.688   5.211   9.459 -0.9298 -0.2942 -1.6209
  145SAPE  C31515991   2.614   5.417   9.433  0.0937 -1.0119 -0.1250
  145SAPE  H15X15992   2.687   5.473   9.496  0.2466  1.2176 -2.2115
  145SAPE  H15Y15993   2.516   5.469   9.439  0.6411 -0.0282  0.5085
  145SAPE  C31615994   2.647   5.430   9.284  0.2537 -0.2174 -0.1347
  145SAPE  H16X15995   2.665   5.540   9.281 -1.4026  0.0661  0.1593
  145SAPE  H16Y15996   2.571   5.416   9.204  1.2314 -0.6823 -1.0040
  145SAPE  C31715997   2.770   5.361   9.229 -0.1744  0.7460 -0.4958
  145SAPE  H17X15998   2.745   5.254   9.245  2.3817 -0.0918 -1.7979
  145SAPE  H17Y15999   2.859   5.396   9.285  2.1036  0.8515 -3.9790
  145SAPE  C31816000   2.788   5.372   9.073 -0.2520  0.0049 -0.2107
  145SAPE  H18X16001   2.814   5.478   9.056  1.3452 -0.3511 -0.0314
  145SAPE  H18Y16002   2.698   5.338   9.017  0.1563  0.7008 -1.3079
  145SAPE  H18Z16003   2.879   5.322   9.034  0.9211  1.7393  0.2780
  146SAPE     N16004   6.638   4.218  10.882  0.3359  0.1259  0.0448
  146SAPE   HN116005   6.731   4.263  10.872  0.3821  0.2517  1.0140
  146SAPE   HN216006   6.582   4.284  10.938 -1.6463 -0.7943 -0.8061
  146SAPE   HN316007   6.650   4.129  10.934  0.1571  0.7927  1.2317
  146SAPE   C1216008   6.566   4.204  10.754 -0.8524 -0.2472 -0.2206
  146SAPE  H12A16009   6.459   4.179  10.769 -0.8574 -0.8735 -1.2295
  146SAPE  H12B16010   6.614   4.119  10.701 -0.3081 -0.8882  1.2572
  146SAPE   C1116011   6.592   4.329  10.674  0.0904 -0.0303  0.1553
  146SAPE  H11A16012   6.567   4.322  10.566 -1.8391 -0.5212  0.6160
  146SAPE  H11B16013   6.701   4.347  10.662  0.2564  1.8021  3.7070
  146SAPE     P16014   6.385   4.480  10.720  0.3040  0.1832 -0.5274
  146SAPE   O1316015   6.297   4.359  10.739 -0.2677 -0.3288 -0.3227
  146SAPE   O1416016   6.355   4.597  10.802 -0.3615 -0.0564  0.0860
  146SAPE   O1216017   6.535   4.442  10.741  0.4491 -0.0230  0.2879
  146SAPE   O1116018   6.374   4.507  10.568  0.4398 -0.4662 -0.9101
  146SAPE    C116019   6.441   4.623  10.527 -0.2338  0.1699  0.6125
  146SAPE    HA16020   6.413   4.721  10.571 -1.8272  0.8559 -1.8056
  146SAPE    HB16021   6.550   4.613  10.545  0.0953  2.5951  0.0391
  146SAPE    C216022   6.413   4.640  10.377 -0.0742  0.3763 -0.3039
  146SAPE    HS16023   6.446   4.550  10.322  0.2021 -0.2550  0.8863
  146SAPE   O2116024   6.464   4.766  10.324  0.1109  0.4196 -0.6346
  146SAPE   C2116025   6.595   4.760  10.307 -0.6511  0.3951  0.1921
  146SAPE   O2216026   6.661   4.654  10.314  0.3521 -0.0940  0.0007
  146SAPE   C2216027   6.638   4.901  10.271 -0.7196 -0.0604  0.1003
  146SAPE   H2R16028   6.559   4.946  10.208 -0.7579 -1.1382 -0.6343
  146SAPE   H2S16029   6.642   4.959  10.365 -1.3992 -0.0389  0.1154
  146SAPE    C316030   6.258   4.656  10.350  0.5875  0.1976  0.2447
  146SAPE    HX16031   6.216   4.742  10.405  0.7977  0.1639  0.4572
  146SAPE    HY16032   6.202   4.575  10.402 -0.8685  3.2228  3.6409
  146SAPE   O3116033   6.220   4.677  10.213 -0.0599 -0.3977  0.1969
  146SAPE   C3116034   6.188   4.570  10.140  0.7855 -0.2032 -0.0698
  146SAPE   O3216035   6.171   4.460  10.188 -0.2113 -0.2815  0.0069
  146SAPE   C3216036   6.162   4.603   9.996  0.0233  0.1593  0.3241
  146SAPE   H2X16037   6.196   4.513   9.940 -1.8236 -1.2954  1.4584
  146SAPE   H2Y16038   6.240   4.676   9.966 -0.3789  0.3611 -0.2534
  146SAPE   C2316039   6.779   4.913  10.213  0.1505  0.3738  0.0266
  146SAPE   H3R16040   6.850   4.856  10.276 -0.9102  0.1526  1.0331
  146SAPE   H3S16041   6.807   5.020  10.201 -1.4967  0.9215  0.9292
  146SAPE   C2416042   6.788   4.867  10.061  0.6248  0.5132  0.3276
  146SAPE   H4R16043   6.730   4.772  10.054 -1.2117  1.5923  0.5809
  146SAPE   H4S16044   6.890   4.836  10.032  0.4920 -1.3645  1.7397
  146SAPE   C2516045   6.720   4.961   9.968 -0.2824  0.2366 -0.9946
  146SAPE   H5R16046   6.613   4.967   9.996  0.1463 -0.7247  0.9256
  146SAPE   C2616047   6.773   5.044   9.876  0.2920 -1.3711 -0.0338
  146SAPE   H6R16048   6.706   5.109   9.817 -0.1080 -1.2055  0.6007
  146SAPE   C2716049   6.921   5.057   9.836 -0.7155 -0.1319 -0.0585
  146SAPE   H7R16050   6.985   5.014   9.915 -0.2336  0.7472  0.0314
  146SAPE   H7S16051   6.950   5.163   9.824 -0.3918 -0.0793  1.1154
  146SAPE   C2816052   6.935   4.983   9.708 -0.1531  0.1703  0.3467
  146SAPE   H8R16053   6.852   4.977   9.636  2.2024 -2.4162 -2.3180
  146SAPE   C2916054   7.045   4.927   9.662 -0.3203  0.2240  0.6875
  146SAPE   H9R16055   7.027   4.856   9.580  4.0292 -1.9121  1.4469
  146SAPE  C21016056   7.182   4.908   9.729 -0.0845 -0.1016  0.5327
  146SAPE  H10R16057   7.171   4.860   9.829  0.4756 -0.7351  0.2954
  146SAPE  H10S16058   7.230   5.007   9.749  1.2767 -0.3776 -1.1624
  146SAPE  C21116059   7.278   4.832   9.636 -0.5843 -0.7916  0.2262
  146SAPE  H11R16060   7.257   4.726   9.617  0.0994 -0.9014  0.1022
  146SAPE  C21216061   7.392   4.876   9.583 -0.1694  0.1873 -0.4241
  146SAPE  H12R16062   7.450   4.810   9.517  0.2955 -0.9300  1.0638
  146SAPE  C21316063   7.445   5.015   9.610 -0.7958 -0.0570 -0.0734
  146SAPE  H13R16064   7.551   5.020   9.577 -1.0828  1.2860 -0.8052
  146SAPE  H13S16065   7.444   5.040   9.718 -2.4618  3.3263 -0.8084
  146SAPE  C21416066   7.370   5.128   9.548 -0.3569 -0.0854  0.4833
  146SAPE  H14R16067   7.265   5.134   9.582 -0.9304  1.6103 -1.4579
  146SAPE  C21516068   7.430   5.219   9.460 -0.1657  0.8930 -0.3633
  146SAPE  H15R16069   7.387   5.313   9.424  4.8045  2.5525 -2.3319
  146SAPE  C21616070   7.571   5.233   9.406 -0.4566 -0.2303 -0.1313
  146SAPE  H16R16071   7.638   5.232   9.495 -0.2799 -0.5454 -0.2680
  146SAPE  H16S16072   7.584   5.332   9.357 -1.1815 -0.5271 -0.9410
  146SAPE  C21716073   7.622   5.126   9.311  0.3166 -0.2519 -0.2583
  146SAPE  H17R16074   7.553   5.131   9.224 -1.5808 -1.1839  1.1714
  146SAPE  H17S16075   7.600   5.028   9.359 -2.7078  0.3842 -0.2378
  146SAPE  C21816076   7.765   5.126   9.257 -0.8057 -0.4108 -0.5141
  146SAPE  H18R16077   7.784   5.210   9.186 -1.8365 -2.0888 -2.8421
  146SAPE  H18S16078   7.781   5.033   9.198 -1.3863 -1.1701  0.5256
  146SAPE  C21916079   7.872   5.129   9.368 -0.2842 -0.2803  0.0317
  146SAPE  H19R16080   7.834   5.060   9.446 -0.2139  2.5049  2.6037
  146SAPE  H19S16081   7.884   5.229   9.414  1.9562 -0.5045 -0.0123
  146SAPE  C22016082   8.022   5.097   9.321  0.1337  0.0612 -0.0976
  146SAPE  H20R16083   8.045   5.176   9.246 -1.2597 -0.8960 -1.5736
  146SAPE  H20S16084   8.030   4.995   9.278  0.7990  0.5264 -1.0750
  146SAPE  H20T16085   8.086   5.100   9.412 -1.7916 -0.1766  1.3021
  146SAPE   C3316086   6.015   4.662   9.969  1.3314 -1.0056  0.7566
  146SAPE   H3X16087   5.987   4.736  10.047  3.9755 -0.6674  1.4352
  146SAPE   H3Y16088   5.942   4.578   9.971 -0.3567  0.4565  0.8359
  146SAPE   C3416089   6.013   4.732   9.828  0.3919 -0.0178  0.1278
  146SAPE   H4X16090   6.089   4.813   9.835 -1.0061  1.4040 -0.6126
  146SAPE   H4Y16091   5.920   4.786   9.799  0.6934  1.7815  2.2942
  146SAPE   C3516092   6.048   4.624   9.720 -0.0629 -0.4052 -0.0469
  146SAPE   H5X16093   5.962   4.554   9.708 -0.5476 -0.0081  1.0442
  146SAPE   H5Y16094   6.151   4.588   9.740  0.9810  0.7881 -2.9871
  146SAPE   C3616095   6.053   4.701   9.584 -0.0362  0.0462 -0.2284
  146SAPE   H6X16096   6.122   4.788   9.588 -1.3715  1.0708  1.0298
  146SAPE   H6Y16097   5.955   4.752   9.587  0.0127  0.1335 -0.0799
  146SAPE   C3716098   6.065   4.612   9.459  0.2196 -0.6994 -0.0906
  146SAPE   H7X16099   5.984   4.535   9.460 -1.1884  0.7160 -1.4505
  146SAPE   H7Y16100   6.162   4.560   9.449  1.1903  1.4928 -2.4389
  146SAPE   C3816101   6.050   4.696   9.332 -0.0162 -0.0382  0.2706
  146SAPE   H8X16102   6.136   4.764   9.316 -1.2179  1.7266  1.2119
  146SAPE   H8Y16103   5.962   4.762   9.346 -0.2115 -0.1194 -0.5377
  146SAPE   C3916104   6.039   4.608   9.204 -0.2888 -0.0290 -0.3362
  146SAPE   H9X16105   5.943   4.551   9.203 -0.2861 -0.0443  0.0459
  146SAPE   H9Y16106   6.125   4.539   9.198 -1.7395 -2.0590  1.2846
  146SAPE  C31016107   6.049   4.698   9.074 -0.0524  0.0891  0.0244
  146SAPE  H10X16108   6.148   4.747   9.073  0.2906 -0.4833  2.3156
  146SAPE  H10Y16109   5.972   4.777   9.089  0.3459  0.9266 -2.2070
  146SAPE  C31116110   6.025   4.614   8.945  0.5114  0.1083  0.6601
  146SAPE  H11X16111   5.930   4.556   8.949  1.3361 -1.5693 -2.4708
  146SAPE  H11Y16112   6.107   4.540   8.954  1.4748  1.2663  1.5077
  146SAPE  C31216113   6.044   4.679   8.810  0.7775  0.1696 -0.2675
  146SAPE  H12X16114   6.149   4.713   8.797  1.4025 -0.9727  1.6354
  146SAPE  H12Y16115   5.986   4.773   8.799  1.0746  0.3565 -0.2507
  146SAPE  C31316116   6.000   4.589   8.694  0.0492  0.1126  0.8063
  146SAPE  H13X16117   5.896   4.551   8.704  0.5870 -1.3844  0.8038
  146SAPE  H13Y16118   6.071   4.507   8.674  0.2078  0.2849  0.6656
  146SAPE  C31416119   5.994   4.674   8.560 -0.0646 -0.1411 -1.0096
  146SAPE  H14X16120   6.026   4.602   8.481  1.5326  0.6650 -1.1132
  146SAPE  H14Y16121   6.073   4.752   8.554  1.6490 -1.5762  2.0667
  146SAPE  C31516122   5.858   4.733   8.522  0.2493 -0.4832  0.3651
  146SAPE  H15X16123   5.817   4.785   8.611 -3.5660  2.1027 -2.7259
  146SAPE  H15Y16124   5.794   4.661   8.466  0.7042 -0.8218  0.2753
  146SAPE  C31616125   5.877   4.850   8.425  0.1966 -0.5312  0.6596
  146SAPE  H16X16126   5.931   4.814   8.335  0.1742 -0.0564  0.4518
  146SAPE  H16Y16127   5.932   4.931   8.478  1.2489 -1.4958  1.0493
  146SAPE  C31716128   5.748   4.918   8.372  0.8345 -0.0382 -0.0794
  146SAPE  H17X16129   5.696   4.956   8.462  0.4828 -0.5436 -0.0682
  146SAPE  H17Y16130   5.695   4.843   8.309  0.6842  1.9036 -2.3505
  146SAPE  C31816131   5.771   5.039   8.287  0.6545  1.0198 -0.2412
  146SAPE  H18X16132   5.834   5.113   8.341 -0.9442  2.0198  0.2765
  146SAPE  H18Y16133   5.677   5.087   8.252 -0.3506 -0.4636  0.3709
  146SAPE  H18Z16134   5.822   5.003   8.194  0.4156 -1.6985  0.6254
  147SAPE     N16135   3.896   3.351   6.191  0.4665 -0.1337 -0.0403
  147SAPE   HN116136   3.927   3.252   6.196  0.6685 -0.2376 -2.6487
  147SAPE   HN216137   3.851   3.355   6.097 -2.1052  0.4106  1.1738
  147SAPE   HN316138   3.982   3.404   6.166  0.0166  1.9992  2.6819
  147SAPE   C1216139   3.836   3.381   6.324  0.0946 -0.1450  0.0329
  147SAPE  H12A16140   3.924   3.395   6.390 -1.3065  0.1789  1.8929
  147SAPE  H12B16141   3.766   3.302   6.359 -0.4884  0.4384  0.2138
  147SAPE   C1116142   3.776   3.517   6.309  0.6250 -0.1480 -0.3015
  147SAPE  H11A16143   3.861   3.585   6.287 -0.6113  1.5245  0.0166
  147SAPE  H11B16144   3.724   3.549   6.402  1.0166  0.3086 -0.2378
  147SAPE     P16145   3.544   3.468   6.210 -0.1196 -0.0593  0.3532
  147SAPE   O1316146   3.472   3.513   6.085 -0.1790  0.3686 -0.0735
  147SAPE   O1416147   3.562   3.326   6.234 -0.1828  0.1988 -0.0483
  147SAPE   O1216148   3.689   3.536   6.198  0.2874 -0.1053 -0.1085
  147SAPE   O1116149   3.479   3.536   6.335  0.1907  0.4683  0.0367
  147SAPE    C116150   3.344   3.501   6.372 -0.2346  0.6274  0.3061
  147SAPE    HA16151   3.276   3.490   6.285 -0.6434  0.1238  0.6833
  147SAPE    HB16152   3.344   3.402   6.422  2.7409  0.3780 -0.0906
  147SAPE    C216153   3.286   3.604   6.461 -0.8250 -0.2234 -0.2026
  147SAPE    HS16154   3.339   3.613   6.558 -0.5184  0.4719 -0.4333
  147SAPE   O2116155   3.146   3.570   6.485 -0.5959 -0.0276 -0.4618
  147SAPE   C2116156   3.128   3.477   6.574  0.9750  0.0269  0.2802
  147SAPE   O2216157   3.215   3.412   6.625  0.2714 -0.3623  0.1939
  147SAPE   C2216158   2.971   3.466   6.603  0.3885 -0.0017 -0.2663
  147SAPE   H2R16159   2.929   3.568   6.589  1.8193  0.6330 -0.0086
  147SAPE   H2S16160   2.923   3.396   6.531 -0.7697 -1.8520  2.2638
  147SAPE    C316161   3.298   3.740   6.398 -0.6639 -0.7078  0.7889
  147SAPE    HX16162   3.255   3.730   6.296 -2.7401  0.6390  1.4921
  147SAPE    HY16163   3.401   3.776   6.382 -0.8353 -0.2187  0.7671
  147SAPE   O3116164   3.224   3.846   6.462 -0.4085  0.1595 -0.0257
  147SAPE   C3116165   3.246   3.871   6.593  0.2808  0.0101 -0.0465
  147SAPE   O3216166   3.345   3.838   6.654  0.4122  0.2279  0.2133
  147SAPE   C3216167   3.136   3.957   6.643  0.0757  0.4048 -0.0831
  147SAPE   H2X16168   3.054   3.923   6.577  0.8689 -3.1928  0.6345
  147SAPE   H2Y16169   3.154   4.065   6.625 -0.1099  0.1812 -1.6753
  147SAPE   C2316170   2.940   3.417   6.749 -0.3123 -0.3732  1.2932
  147SAPE   H3R16171   3.011   3.462   6.821 -1.4267  1.9879  0.9736
  147SAPE   H3S16172   2.959   3.308   6.749 -2.1960 -0.7189  1.8161
  147SAPE   C2416173   2.801   3.444   6.796 -1.0539 -0.5918  0.0626
  147SAPE   H4R16174   2.791   3.377   6.885  0.6308  0.0382  0.7368
  147SAPE   H4S16175   2.732   3.404   6.719  1.0267 -2.1056 -1.0276
  147SAPE   C2516176   2.763   3.582   6.838 -0.4986 -0.2957 -0.2764
  147SAPE   H5R16177   2.791   3.658   6.764 -0.8246  1.7515  1.6286
  147SAPE   C2616178   2.721   3.622   6.965  0.5811 -0.0614  0.1618
  147SAPE   H6R16179   2.683   3.722   6.990 -2.1034 -0.8257 -0.7110
  147SAPE   C2716180   2.709   3.531   7.085  0.4596  0.3844  0.2500
  147SAPE   H7R16181   2.642   3.444   7.067  1.0570  0.1557 -0.9381
  147SAPE   H7S16182   2.646   3.596   7.149  0.3312  0.7599 -0.2485
  147SAPE   C2816183   2.828   3.484   7.150  0.1578  0.1091  0.0655
  147SAPE   H8R16184   2.913   3.449   7.089  1.3641 -0.6269  2.1150
  147SAPE   C2916185   2.837   3.466   7.277 -0.4299  0.1220  0.8630
  147SAPE   H9R16186   2.934   3.445   7.324 -0.8071  0.3954  1.7979
  147SAPE  C21016187   2.724   3.482   7.377  0.0016  0.4301 -0.7821
  147SAPE  H10R16188   2.742   3.396   7.446 -3.7219 -0.0032 -0.2414
  147SAPE  H10S16189   2.625   3.458   7.332 -0.2044  2.6717 -1.5466
  147SAPE  C21116190   2.713   3.605   7.468 -0.2056  0.4072 -0.4070
  147SAPE  H11R16191   2.803   3.668   7.468 -0.1334  0.3221 -1.7809
  147SAPE  C21216192   2.619   3.633   7.553  0.4968  0.1999 -0.3826
  147SAPE  H12R16193   2.630   3.731   7.602 -1.7370  0.1103  0.3283
  147SAPE  C21316194   2.499   3.560   7.590 -0.5673  0.0219  0.3302
  147SAPE  H13R16195   2.482   3.480   7.515 -0.3875  0.1333  0.1710
  147SAPE  H13S16196   2.421   3.638   7.574  0.1364  0.3278 -1.7150
  147SAPE  C21416197   2.507   3.501   7.729  0.5087 -0.5574 -0.4902
  147SAPE  H14R16198   2.570   3.411   7.729  1.8631  0.3729 -0.8423
  147SAPE  C21516199   2.454   3.550   7.835  0.2825 -0.3178  0.6046
  147SAPE  H15R16200   2.462   3.498   7.931  1.5509 -1.1399  0.0623
  147SAPE  C21616201   2.371   3.673   7.852 -0.0610  0.9600  0.3804
  147SAPE  H16R16202   2.274   3.636   7.893  1.0297 -0.3446  1.8521
  147SAPE  H16S16203   2.351   3.721   7.754  3.0707  0.6849 -0.4309
  147SAPE  C21716204   2.436   3.764   7.959 -0.2664  0.4904  0.3501
  147SAPE  H17R16205   2.524   3.812   7.913 -0.2982 -0.1026 -0.3487
  147SAPE  H17S16206   2.471   3.695   8.039 -0.7975  1.0462  1.0706
  147SAPE  C21816207   2.331   3.863   8.015 -0.2939  0.4348  0.6760
  147SAPE  H18R16208   2.269   3.889   7.927  3.0196 -2.5682 -2.7240
  147SAPE  H18S16209   2.403   3.944   8.041 -0.1886 -0.1305  2.2483
  147SAPE  C21916210   2.261   3.808   8.134  0.3042 -0.8902 -0.4548
  147SAPE  H19R16211   2.185   3.730   8.119 -0.3295 -0.1111 -1.3379
  147SAPE  H19S16212   2.198   3.892   8.171  0.4133 -2.1974  2.9499
  147SAPE  C22016213   2.359   3.767   8.252 -0.6590  0.2099  0.5304
  147SAPE  H20R16214   2.442   3.839   8.268  1.4201 -0.9886 -3.9888
  147SAPE  H20S16215   2.406   3.669   8.227  0.2595  0.1431  2.4654
  147SAPE  H20T16216   2.293   3.758   8.341 -1.1127  0.9968  0.2824
  147SAPE   C3316217   3.096   3.921   6.793 -0.3419 -0.0951 -0.4023
  147SAPE   H3X16218   3.152   3.985   6.865 -0.3836 -1.1191  0.5592
  147SAPE   H3Y16219   3.113   3.813   6.812  0.8001 -0.2849 -2.3960
  147SAPE   C3416220   2.945   3.945   6.827  0.0563 -0.1908 -0.4729
  147SAPE   H4X16221   2.876   3.861   6.805  1.0239 -1.1697  0.2046
  147SAPE   H4Y16222   2.907   4.034   6.773  1.0298 -0.4942 -1.6795
  147SAPE   C3516223   2.937   3.963   6.979 -0.6170 -0.0864  0.1738
  147SAPE   H5X16224   2.828   3.970   6.999 -0.5776 -0.9914  0.7612
  147SAPE   H5Y16225   2.984   4.059   7.008  0.6824 -0.8570  0.6540
  147SAPE   C3616226   2.999   3.853   7.066 -0.9525 -0.1215 -0.4692
  147SAPE   H6X16227   3.101   3.829   7.027  0.0558 -1.9523  3.0718
  147SAPE   H6Y16228   2.940   3.759   7.061 -0.4568 -0.3773 -1.5925
  147SAPE   C3716229   3.028   3.898   7.214 -0.3798 -0.2178  0.8285
  147SAPE   H7X16230   3.092   3.986   7.197  0.6473 -1.4010 -1.6883
  147SAPE   H7Y16231   3.088   3.815   7.258 -1.4489 -0.7742  1.2854
  147SAPE   C3816232   2.909   3.925   7.312  0.5679  0.2863  0.2135
  147SAPE   H8X16233   2.818   3.865   7.287  1.0538 -0.6655  0.7049
  147SAPE   H8Y16234   2.882   4.031   7.291 -0.7276  0.2128  1.4195
  147SAPE   C3916235   2.950   3.929   7.453  0.1303 -0.2977  0.1347
  147SAPE   H9X16236   3.045   3.985   7.463  0.0044  0.1675 -1.2049
  147SAPE   H9Y16237   2.979   3.829   7.490 -0.3064 -0.2420  0.6533
  147SAPE  C31016238   2.849   3.991   7.551 -0.5692 -0.7827  0.2813
  147SAPE  H10X16239   2.756   3.931   7.569 -2.0283  0.8105 -1.7382
  147SAPE  H10Y16240   2.801   4.085   7.515  1.7717 -0.0079 -0.8500
  147SAPE  C31116241   2.899   4.021   7.688 -0.3019  0.7207 -0.1960
  147SAPE  H11X16242   2.978   4.099   7.689  0.4998 -0.0861  1.5669
  147SAPE  H11Y16243   2.949   3.935   7.739  1.0805  0.3234 -2.1760
  147SAPE  C31216244   2.790   4.055   7.792  0.2081  0.0341  0.4835
  147SAPE  H12X16245   2.726   3.966   7.806  0.9488 -0.7515 -0.9650
  147SAPE  H12Y16246   2.725   4.134   7.748  0.1908  0.0314  0.5046
  147SAPE  C31316247   2.843   4.099   7.925  0.0705  0.0206  0.5765
  147SAPE  H13X16248   2.930   4.163   7.900  0.6025 -1.1007 -0.4506
  147SAPE  H13Y16249   2.870   4.005   7.977  1.8288 -0.9091 -1.9540
  147SAPE  C31416250   2.734   4.180   8.006 -0.1576 -0.6334 -0.9931
  147SAPE  H14X16251   2.665   4.103   8.047 -1.1000  1.7616  2.0047
  147SAPE  H14Y16252   2.673   4.244   7.938  0.0383 -1.0099 -1.5298
  147SAPE  C31516253   2.785   4.267   8.126 -0.0240  0.0383  0.0046
  147SAPE  H15X16254   2.877   4.321   8.096  1.8914 -2.2438  1.6577
  147SAPE  H15Y16255   2.816   4.197   8.206 -1.8644  1.2566  1.8506
  147SAPE  C31616256   2.672   4.345   8.183  0.2478  0.4418  0.6075
  147SAPE  H16X16257   2.599   4.273   8.226 -1.3773  0.4082 -2.0199
  147SAPE  H16Y16258   2.621   4.414   8.111  0.6307  1.0366  0.9007
  147SAPE  C31716259   2.727   4.433   8.292  0.2868  0.7173  0.4503
  147SAPE  H17X16260   2.818   4.485   8.256 -0.5764  1.5454 -0.5770
  147SAPE  H17Y16261   2.766   4.363   8.368  1.3704  0.4859 -0.3045
  147SAPE  C31816262   2.625   4.529   8.352 -0.3719 -0.2128  0.1581
  147SAPE  H18X16263   2.562   4.577   8.274 -0.2828 -2.6297 -1.4492
  147SAPE  H18Y16264   2.670   4.615   8.407  1.2091 -0.8524 -0.1062
  147SAPE  H18Z16265   2.541   4.475   8.401 -1.2815  1.4942  0.5375
  148SAPE     N16266   2.931   1.107   6.594 -0.5241 -0.3532 -0.8237
  148SAPE   HN116267   2.893   1.200   6.569  1.3551  0.8578  0.6290
  148SAPE   HN216268   2.992   1.082   6.514  0.3105 -0.5678 -0.1326
  148SAPE   HN316269   2.859   1.034   6.606 -0.9302  0.1705 -0.0274
  148SAPE   C1216270   3.000   1.112   6.727 -0.0536 -0.0911 -0.0832
  148SAPE  H12A16271   3.085   1.184   6.718 -0.8826  0.9364  0.2978
  148SAPE  H12B16272   3.045   1.013   6.753  0.2582  0.2277  0.5943
  148SAPE   C1116273   2.897   1.165   6.831  0.3500 -0.1381 -0.2758
  148SAPE  H11A16274   2.941   1.144   6.931  0.1974 -1.4408 -0.4729
  148SAPE  H11B16275   2.805   1.104   6.819  0.4415 -0.6295  1.4018
  148SAPE     P16276   2.795   1.377   6.931  0.4861  0.2561 -0.2487
  148SAPE   O1316277   2.773   1.522   6.898 -0.0291 -0.2062 -0.3912
  148SAPE   O1416278   2.673   1.295   6.956  0.1674 -0.6388 -0.5555
  148SAPE   O1216279   2.884   1.307   6.814 -0.2284  0.3610 -0.3104
  148SAPE   O1116280   2.895   1.356   7.047  0.6056 -0.5684 -0.2418
  148SAPE    C116281   3.028   1.405   7.035 -0.4810 -0.7656 -0.4707
  148SAPE    HA16282   3.088   1.367   7.120 -2.2014 -1.3440  0.5245
  148SAPE    HB16283   3.078   1.360   6.947  1.3060 -2.1152  1.1929
  148SAPE    C216284   3.025   1.559   7.054 -0.6551 -0.3567  0.1312
  148SAPE    HS16285   2.987   1.602   6.959 -1.1189  0.2431  0.5888
  148SAPE   O2116286   3.159   1.605   7.076  0.5777 -0.1779 -0.2624
  148SAPE   C2116287   3.176   1.739   7.077  0.1675 -0.0233 -0.8839
  148SAPE   O2216288   3.089   1.820   7.048 -0.3493 -0.2113 -0.1688
  148SAPE   C2216289   3.321   1.778   7.121 -0.0260 -0.1990 -0.5465
  148SAPE   H2R16290   3.365   1.828   7.032 -0.7176  2.8594  0.7807
  148SAPE   H2S16291   3.308   1.855   7.200  4.2281  1.1987 -1.0899
  148SAPE    C316292   2.929   1.599   7.177  0.1583 -0.8874  0.9840
  148SAPE    HX16293   2.829   1.552   7.166  0.2432 -0.4549 -1.8419
  148SAPE    HY16294   2.911   1.708   7.168  0.7369 -0.7789  1.1411
  148SAPE   O3116295   2.994   1.577   7.306 -0.1396 -0.2873 -0.0314
  148SAPE   C3116296   2.944   1.627   7.411 -0.0402  0.3389 -0.0504
  148SAPE   O3216297   2.852   1.705   7.416 -0.7194 -0.6728  0.0020
  148SAPE   C3216298   3.041   1.593   7.527  0.3369 -0.2104  1.3674
  148SAPE   H2X16299   3.133   1.653   7.514  0.6891 -1.0834 -0.3065
  148SAPE   H2Y16300   3.058   1.483   7.530  0.2098 -0.2657  0.1648
  148SAPE   C2316301   3.403   1.659   7.172  0.3099 -0.6066 -0.0528
  148SAPE   H3R16302   3.385   1.586   7.090 -0.7719 -0.5806  0.1558
  148SAPE   H3S16303   3.357   1.623   7.267 -0.3935  0.2156 -0.0748
  148SAPE   C2416304   3.564   1.681   7.181 -0.1845  0.3579 -0.3077
  148SAPE   H4R16305   3.609   1.716   7.086  0.0984  1.3873  0.1963
  148SAPE   H4S16306   3.615   1.584   7.197 -2.0219 -0.7253 -0.7820
  148SAPE   C2516307   3.622   1.765   7.291  0.0112 -0.0426  0.0457
  148SAPE   H5R16308   3.590   1.870   7.286  1.5242  0.5015  1.5367
  148SAPE   C2616309   3.694   1.734   7.405  0.0671  0.4010  0.3914
  148SAPE   H6R16310   3.707   1.814   7.478 -4.0369 -0.0298  1.7336
  148SAPE   C2716311   3.750   1.601   7.444 -0.4857 -0.0126 -0.4587
  148SAPE   H7R16312   3.739   1.516   7.375 -1.4769 -1.2292  1.1420
  148SAPE   H7S16313   3.701   1.565   7.538  0.5015  0.3358  0.2009
  148SAPE   C2816314   3.895   1.630   7.489  0.0367 -0.0754 -0.9619
  148SAPE   H8R16315   3.961   1.678   7.416  0.9562  1.2963  0.7364
  148SAPE   C2916316   3.949   1.598   7.608 -0.5039  0.4900 -0.0255
  148SAPE   H9R16317   4.054   1.632   7.611  0.4562 -2.3426  0.5942
  148SAPE  C21016318   3.887   1.523   7.727 -0.2077  0.2470 -0.1206
  148SAPE  H10R16319   3.965   1.459   7.774  2.1358  2.0888 -1.4451
  148SAPE  H10S16320   3.836   1.437   7.679  0.9239  0.3429 -1.5215
  148SAPE  C21116321   3.803   1.600   7.830 -0.5763 -0.5592  0.2094
  148SAPE  H11R16322   3.798   1.710   7.824 -2.0955 -0.4837  2.1165
  148SAPE  C21216323   3.748   1.543   7.940  0.6576 -0.2310 -0.4614
  148SAPE  H12R16324   3.677   1.608   7.994 -0.3119 -2.1396  0.5763
  148SAPE  C21316325   3.742   1.400   7.978 -0.1323 -0.0538 -0.0482
  148SAPE  H13R16326   3.752   1.396   8.088 -3.3950 -0.5512  0.2632
  148SAPE  H13S16327   3.833   1.360   7.928 -1.7640 -1.0115 -2.3370
  148SAPE  C21416328   3.618   1.337   7.909  0.7447  0.4479 -0.3655
  148SAPE  H14R16329   3.645   1.266   7.830 -1.7486 -0.8164 -0.1098
  148SAPE  C21516330   3.493   1.331   7.951 -0.4388  0.2581  0.3314
  148SAPE  H15R16331   3.425   1.295   7.872  0.0088  3.3395 -1.5466
  148SAPE  C21616332   3.432   1.401   8.075  0.3299 -0.2341  0.5678
  148SAPE  H16R16333   3.409   1.503   8.037  1.0717 -0.4432 -0.4885
  148SAPE  H16S16334   3.508   1.411   8.156 -1.7796 -0.0902  2.5678
  148SAPE  C21716335   3.310   1.336   8.135  0.4952  0.0886  0.6675
  148SAPE  H17R16336   3.343   1.233   8.158 -1.5718 -0.2529  2.2032
  148SAPE  H17S16337   3.222   1.333   8.067  0.1739  0.3083  1.0740
  148SAPE  C21816338   3.260   1.396   8.260 -0.5251  0.0998 -0.7887
  148SAPE  H18R16339   3.343   1.416   8.331  0.8084  0.4806 -2.4194
  148SAPE  H18S16340   3.210   1.317   8.320 -0.8063 -0.6738 -2.0213
  148SAPE  C21916341   3.181   1.520   8.246  0.4050  0.1398  0.3188
  148SAPE  H19R16342   3.096   1.515   8.175  0.7444 -1.3664  0.0007
  148SAPE  H19S16343   3.248   1.591   8.193  0.2257  0.7838  0.9420
  148SAPE  C22016344   3.138   1.580   8.382  0.6407  0.5806  0.3660
  148SAPE  H20R16345   3.082   1.676   8.380 -0.0210  0.1708 -3.4074
  148SAPE  H20S16346   3.226   1.595   8.449  1.7359  1.4793 -1.2305
  148SAPE  H20T16347   3.071   1.503   8.425 -1.4083  1.7723 -0.6690
  148SAPE   C3316348   2.995   1.616   7.675 -0.1393 -0.9806  0.6195
  148SAPE   H3X16349   3.074   1.568   7.736  1.0120  0.3171  0.1703
  148SAPE   H3Y16350   2.897   1.564   7.676 -0.7409  0.1628  0.9708
  148SAPE   C3416351   2.981   1.763   7.709 -0.1265 -0.7412 -0.2305
  148SAPE   H4X16352   2.941   1.812   7.617 -1.8848  0.9909  1.4193
  148SAPE   H4Y16353   3.075   1.818   7.733 -2.6782  1.4812  5.4388
  148SAPE   C3516354   2.891   1.791   7.818 -0.0280 -0.7106  0.0302
  148SAPE   H5X16355   2.791   1.752   7.790 -0.7067  1.0439 -0.0820
  148SAPE   H5Y16356   2.860   1.898   7.821  1.8645 -0.1398  0.1271
  148SAPE   C3616357   2.942   1.739   7.953 -0.3983 -0.3007 -0.5830
  148SAPE   H6X16358   2.964   1.631   7.946 -0.1644 -0.2165 -1.1284
  148SAPE   H6Y16359   2.866   1.743   8.034 -0.5257 -0.0438 -0.7155
  148SAPE   C3716360   3.065   1.809   8.012 -0.0788  0.2235 -0.2773
  148SAPE   H7X16361   3.142   1.809   7.932  1.2623 -2.5895  0.9442
  148SAPE   H7Y16362   3.109   1.746   8.092 -0.9586 -0.6499 -0.4776
  148SAPE   C3816363   3.038   1.952   8.065  0.0398  0.1467 -0.3603
  148SAPE   H8X16364   2.953   1.984   8.001 -0.3214 -1.2441 -0.5998
  148SAPE   H8Y16365   3.111   2.032   8.043  1.5383 -0.4020  2.4185
  148SAPE   C3916366   2.997   1.952   8.210 -0.1655  0.2795  0.2306
  148SAPE   H9X16367   2.996   2.058   8.243  1.5047  0.6385 -0.8396
  148SAPE   H9Y16368   3.076   1.897   8.266 -0.2770  0.2980  0.4074
  148SAPE  C31016369   2.862   1.894   8.246 -0.2906  0.9714 -0.0743
  148SAPE  H10X16370   2.882   1.791   8.282  1.0845  1.6427  1.1127
  148SAPE  H10Y16371   2.795   1.884   8.158 -0.3330 -2.1812  0.2716
  148SAPE  C31116372   2.790   1.961   8.364 -0.1080  0.7239 -0.3454
  148SAPE  H11X16373   2.698   1.904   8.391  1.5231 -1.3474  0.9541
  148SAPE  H11Y16374   2.764   2.064   8.330 -1.2245  1.0164  1.3775
  148SAPE  C31216375   2.879   1.970   8.491  0.0695 -0.2314 -0.0206
  148SAPE  H12X16376   2.971   2.029   8.472  0.0604  1.1777  3.8354
  148SAPE  H12Y16377   2.902   1.877   8.546  1.8831  0.9832  1.3555
  148SAPE  C31316378   2.802   2.046   8.607 -0.5112 -0.2313 -0.1470
  148SAPE  H13X16379   2.710   1.992   8.638 -0.7899  0.0754 -0.4372
  148SAPE  H13Y16380   2.771   2.145   8.566 -0.5010 -0.0674  0.2438
  148SAPE  C31416381   2.880   2.062   8.731 -0.8106 -0.0554  0.1929
  148SAPE  H14X16382   2.981   2.086   8.693 -0.2446 -2.0664  0.3473
  148SAPE  H14Y16383   2.878   1.974   8.799 -0.6982 -0.9801 -0.9875
  148SAPE  C31516384   2.847   2.191   8.815  0.4604  0.4883  0.1426
  148SAPE  H15X16385   2.859   2.272   8.740  0.5588  1.0028  0.7071
  148SAPE  H15Y16386   2.917   2.203   8.901 -0.2056  0.2002  0.7234
  148SAPE  C31616387   2.705   2.183   8.873  0.9488 -0.0842  0.4888
  148SAPE  H16X16388   2.694   2.088   8.929 -0.2075  1.1641  2.4384
  148SAPE  H16Y16389   2.634   2.181   8.787  0.8804  1.0470  0.5154
  148SAPE  C31716390   2.665   2.297   8.961 -0.0853  0.1210 -0.5962
  148SAPE  H17X16391   2.654   2.390   8.901 -1.1058  0.5248  0.2077
  148SAPE  H17Y16392   2.746   2.320   9.033 -1.1802 -0.2526  0.7736
  148SAPE  C31816393   2.528   2.276   9.027 -0.9088 -0.4306 -0.0095
  148SAPE  H18X16394   2.524   2.181   9.085 -0.1797  0.5750  1.7142
  148SAPE  H18Y16395   2.449   2.254   8.952 -0.8438 -0.7630  0.0186
  148SAPE  H18Z16396   2.500   2.360   9.093  0.3084  0.9360 -1.1948
  149SAPE     N16397   2.613   2.114   6.134 -0.1165 -0.2981  0.1701
  149SAPE   HN116398   2.613   2.130   6.032 -1.2465 -0.9831  0.0554
  149SAPE   HN216399   2.621   2.208   6.177 -0.0711 -0.7071  1.0653
  149SAPE   HN316400   2.690   2.052   6.166 -1.1911 -0.7765  1.9140
  149SAPE   C1216401   2.483   2.058   6.170  0.0911 -0.1538 -0.6454
  149SAPE  H12A16402   2.475   1.955   6.127  0.6049 -0.2963 -0.3980
  149SAPE  H12B16403   2.402   2.121   6.127 -1.9928 -2.1879  0.1673
  149SAPE   C1116404   2.439   2.057   6.315 -0.3301 -0.3594  0.2011
  149SAPE  H11A16405   2.333   2.023   6.320 -0.6519  0.4819 -0.7119
  149SAPE  H11B16406   2.440   2.161   6.354 -0.7369 -0.4289  0.4000
  149SAPE     P16407   2.507   1.834   6.436  0.2273  0.2679  0.1293
  149SAPE   O1316408   2.496   1.747   6.315  0.6980 -0.1889  0.4652
  149SAPE   O1416409   2.603   1.783   6.538 -0.3235 -0.0302  0.0909
  149SAPE   O1216410   2.532   1.986   6.397  0.3167  0.0781  0.2662
  149SAPE   O1116411   2.364   1.833   6.504 -0.1676 -0.0987  0.6703
  149SAPE    C116412   2.363   1.881   6.645 -0.0107  0.3299  0.0662
  149SAPE    HA16413   2.300   1.808   6.702 -2.0576  0.6683 -1.6876
  149SAPE    HB16414   2.463   1.876   6.692  0.5608 -0.7355 -1.2558
  149SAPE    C216415   2.293   2.014   6.662 -0.0244 -0.6069  0.0070
  149SAPE    HS16416   2.218   2.022   6.581 -0.8384  1.1540  0.9025
  149SAPE   O2116417   2.402   2.111   6.658  0.0711  0.0036  0.1308
  149SAPE   C2116418   2.357   2.232   6.644 -0.3275  0.0531 -0.2754
  149SAPE   O2216419   2.254   2.269   6.589  0.2723 -0.3758 -0.1226
  149SAPE   C2216420   2.468   2.328   6.710  0.1378  0.5404 -0.1403
  149SAPE   H2R16421   2.548   2.274   6.766  0.8434  0.3576 -1.3184
  149SAPE   H2S16422   2.533   2.375   6.633  1.2176  0.9107  0.9690
  149SAPE    C316423   2.212   2.021   6.802 -0.4374  0.2859 -0.3420
  149SAPE    HX16424   2.136   1.940   6.798  0.8833 -0.9362 -0.9801
  149SAPE    HY16425   2.161   2.120   6.802 -0.0504  0.4850 -0.7931
  149SAPE   O3116426   2.299   2.006   6.922  0.3371 -0.6384 -0.0557
  149SAPE   C3116427   2.288   1.896   6.990 -0.0616 -0.6398  0.9489
  149SAPE   O3216428   2.221   1.794   6.960 -0.1842  0.3351  0.4249
  149SAPE   C3216429   2.377   1.908   7.109  0.1916 -0.2088  0.0330
  149SAPE   H2X16430   2.480   1.930   7.073 -1.1130  1.7454 -2.7074
  149SAPE   H2Y16431   2.369   1.809   7.158 -0.0423 -0.0005  0.4206
  149SAPE   C2316432   2.403   2.442   6.787 -0.2911  0.4252  0.2893
  149SAPE   H3R16433   2.305   2.475   6.748 -0.2839  0.1766  0.0573
  149SAPE   H3S16434   2.469   2.529   6.807  0.1807 -0.1034  1.0505
  149SAPE   C2416435   2.366   2.389   6.932  0.1645  0.2738  0.3392
  149SAPE   H4R16436   2.457   2.360   6.988  2.0131 -0.0551 -2.7298
  149SAPE   H4S16437   2.310   2.298   6.900  0.7233 -0.2758  0.9048
  149SAPE   C2516438   2.277   2.489   7.003 -0.7723  0.4502 -1.0778
  149SAPE   H5R16439   2.199   2.541   6.946 -0.2919  0.6988 -1.5160
  149SAPE   C2616440   2.278   2.506   7.135  0.4115  0.3888  0.0101
  149SAPE   H6R16441   2.218   2.587   7.178  0.4547  0.1619  0.5068
  149SAPE   C2716442   2.373   2.438   7.234 -0.1490 -0.0970  0.9719
  149SAPE   H7R16443   2.445   2.370   7.183 -0.6708  0.1702 -0.1483
  149SAPE   H7S16444   2.318   2.385   7.314  0.0078 -1.9086 -0.1057
  149SAPE   C2816445   2.461   2.543   7.299 -0.0483 -0.4398 -0.1019
  149SAPE   H8R16446   2.505   2.610   7.224 -3.2449  0.1165 -1.5703
  149SAPE   C2916447   2.486   2.557   7.428 -0.2288  0.4810  0.3251
  149SAPE   H9R16448   2.551   2.640   7.456  1.7040 -1.4417  1.7539
  149SAPE  C21016449   2.428   2.471   7.538  0.0360  0.3117  0.7301
  149SAPE  H10R16450   2.413   2.365   7.509 -2.0927  1.0280 -1.0150
  149SAPE  H10S16451   2.331   2.507   7.581  0.3032  0.4399  1.2241
  149SAPE  C21116452   2.528   2.462   7.655  0.4453  0.5921  0.0699
  149SAPE  H11R16453   2.593   2.373   7.659  0.7022  0.8131  0.8720
  149SAPE  C21216454   2.543   2.561   7.748  0.2716  0.7764 -0.2746
  149SAPE  H12R16455   2.608   2.532   7.832  0.2350  0.9634 -0.1813
  149SAPE  C21316456   2.473   2.698   7.763  0.1127  0.1494 -0.0545
  149SAPE  H13R16457   2.443   2.736   7.663  0.3734 -0.0464 -0.2118
  149SAPE  H13S16458   2.546   2.769   7.807 -0.3825 -0.7412  2.2569
  149SAPE  C21416459   2.360   2.698   7.862 -0.6138 -0.0184  0.6573
  149SAPE  H14R16460   2.265   2.732   7.818 -0.7934 -0.8298  0.4008
  149SAPE  C21516461   2.365   2.674   7.998 -0.4734 -0.0590  0.7278
  149SAPE  H15R16462   2.271   2.676   8.054  0.4930  1.9374  2.3300
  149SAPE  C21616463   2.487   2.634   8.074  0.2607 -0.1924  0.3290
  149SAPE  H16R16464   2.576   2.676   8.022  0.2175  0.6813  0.9477
  149SAPE  H16S16465   2.491   2.523   8.082 -3.1703 -0.4408 -0.8224
  149SAPE  C21716466   2.516   2.695   8.214 -0.1349 -0.3542  0.2993
  149SAPE  H17R16467   2.607   2.642   8.249  0.6128  0.7691  0.0732
  149SAPE  H17S16468   2.437   2.674   8.289 -0.9445 -0.6123 -0.6213
  149SAPE  C21816469   2.544   2.841   8.221  0.3725 -0.2736  0.3786
  149SAPE  H18R16470   2.448   2.893   8.201  0.2378 -0.2716  1.0194
  149SAPE  H18S16471   2.594   2.864   8.124 -0.5429  1.1477  0.2353
  149SAPE  C21916472   2.624   2.886   8.341  0.0908  0.1502  0.3596
  149SAPE  H19R16473   2.716   2.933   8.299 -0.5249  2.1953  1.2506
  149SAPE  H19S16474   2.657   2.800   8.404 -1.4926  0.0921  1.1224
  149SAPE  C22016475   2.554   2.994   8.424 -0.1750  0.2222  0.2903
  149SAPE  H20R16476   2.582   2.979   8.530  0.2392 -0.0568  0.1403
  149SAPE  H20S16477   2.443   2.992   8.412 -0.0975  2.5741 -1.0610
  149SAPE  H20T16478   2.572   3.097   8.387 -3.0413  0.4698 -0.5661
  149SAPE   C3316479   2.342   2.012   7.207 -0.8232  0.4339 -0.0333
  149SAPE   H3X16480   2.245   1.975   7.246 -1.0850  1.1886  0.0391
  149SAPE   H3Y16481   2.308   2.115   7.183  0.8943  0.8964 -0.5707
  149SAPE   C3416482   2.450   2.030   7.314  0.0364 -0.0168 -0.2253
  149SAPE   H4X16483   2.496   2.126   7.284 -0.7967  0.0659 -1.2733
  149SAPE   H4Y16484   2.520   1.944   7.313  0.3543  0.2424 -0.4345
  149SAPE   C3516485   2.385   2.037   7.454 -0.1008  0.3417 -0.3250
  149SAPE   H5X16486   2.314   1.953   7.464  0.8216 -0.3202  0.7820
  149SAPE   H5Y16487   2.330   2.134   7.456 -1.6924 -0.4249 -3.3831
  149SAPE   C3616488   2.471   2.016   7.575  0.3882 -0.8422  0.3461
  149SAPE   H6X16489   2.561   2.080   7.565 -0.1998 -0.0570  0.0574
  149SAPE   H6Y16490   2.500   1.909   7.587 -0.8944 -1.5803 -2.6711
  149SAPE   C3716491   2.409   2.080   7.705  0.1269  0.0735  0.0047
  149SAPE   H7X16492   2.303   2.051   7.725  0.3893 -1.2952 -0.5298
  149SAPE   H7Y16493   2.399   2.189   7.689 -1.2075  0.1481  1.2028
  149SAPE   C3816494   2.515   2.054   7.815  0.6783 -1.0508 -0.3365
  149SAPE   H8X16495   2.618   2.065   7.774  1.4464  0.5791  1.8778
  149SAPE   H8Y16496   2.500   1.952   7.855  0.8125 -0.8038  0.3595
  149SAPE   C3916497   2.495   2.154   7.927  0.3036  0.8625 -0.3972
  149SAPE   H9X16498   2.391   2.153   7.968  0.6463  0.6921  0.4683
  149SAPE   H9Y16499   2.504   2.259   7.891 -1.4330  1.1998  0.0524
  149SAPE  C31016500   2.594   2.132   8.037 -0.5051 -0.5735  0.1257
  149SAPE  H10X16501   2.690   2.091   7.997 -0.6834 -0.1100 -0.7978
  149SAPE  H10Y16502   2.563   2.043   8.096  0.8077 -0.6219  0.7576
  149SAPE  C31116503   2.613   2.258   8.115 -0.9108  0.0652  0.4893
  149SAPE  H11X16504   2.602   2.349   8.053  0.9022 -1.0202 -1.4832
  149SAPE  H11Y16505   2.719   2.255   8.148  0.9994  1.0614 -5.0788
  149SAPE  C31216506   2.507   2.268   8.233  0.0655  0.2595  0.4429
  149SAPE  H12X16507   2.470   2.164   8.249 -0.5857  0.5639  0.9137
  149SAPE  H12Y16508   2.419   2.324   8.196  0.0143 -0.1422 -0.0573
  149SAPE  C31316509   2.563   2.342   8.357  0.0718  0.0756 -0.0614
  149SAPE  H13X16510   2.600   2.439   8.320  0.2198 -0.1864 -0.6007
  149SAPE  H13Y16511   2.644   2.282   8.403 -0.4590 -0.1869  0.5442
  149SAPE  C31416512   2.458   2.373   8.458  0.4157  0.4932  0.2835
  149SAPE  H14X16513   2.425   2.276   8.500  1.2895  0.0350 -0.0925
  149SAPE  H14Y16514   2.367   2.415   8.409  0.9348  0.6689 -0.5331
  149SAPE  C31516515   2.501   2.482   8.564 -0.5024  0.1762  0.1565
  149SAPE  H15X16516   2.569   2.555   8.516 -1.5350  0.3330 -1.1088
  149SAPE  H15Y16517   2.575   2.425   8.624  0.2328  2.0941  1.1029
  149SAPE  C31616518   2.391   2.544   8.641 -0.3886 -0.3788 -0.0594
  149SAPE  H16X16519   2.355   2.484   8.727  0.0126 -0.9994 -0.3183
  149SAPE  H16Y16520   2.302   2.552   8.576  0.8925  0.4619 -1.7688
  149SAPE  C31716521   2.439   2.684   8.699  0.2809 -0.0273  0.0570
  149SAPE  H17X16522   2.363   2.731   8.765  0.7062  0.1539  0.4245
  149SAPE  H17Y16523   2.431   2.749   8.610  0.1470 -0.4035 -0.2085
  149SAPE  C31816524   2.573   2.683   8.772  0.4376  0.5082 -0.5438
  149SAPE  H18X16525   2.595   2.581   8.808 -2.1819 -0.2342 -0.9470
  149SAPE  H18Y16526   2.590   2.764   8.847 -0.4021 -0.5382  0.7865
  149SAPE  H18Z16527   2.644   2.706   8.689  0.5681 -0.0937 -0.6024
  150SAPE     N16528   1.678   3.634   6.383  0.5735 -0.1557  0.5967
  150SAPE   HN116529   1.699   3.604   6.480  1.7157 -4.1492 -0.7788
  150SAPE   HN216530   1.755   3.590   6.328  0.3446 -1.6637  1.4599
  150SAPE   HN316531   1.683   3.735   6.361 -1.9007  0.3284  2.0179
  150SAPE   C1216532   1.536   3.574   6.367 -0.3021  0.6436 -0.2261
  150SAPE  H12A16533   1.505   3.566   6.261 -1.6472 -0.6937  0.2385
  150SAPE  H12B16534   1.463   3.632   6.427 -0.4051  0.4521 -0.1644
  150SAPE   C1116535   1.540   3.431   6.428  0.6189 -0.1835 -0.3022
  150SAPE  H11A16536   1.571   3.440   6.534 -1.3597  0.4895  0.2418
  150SAPE  H11B16537   1.620   3.371   6.379 -1.1174 -2.3338 -0.5855
  150SAPE     P16538   1.291   3.380   6.483 -0.4531 -0.2475  0.1457
  150SAPE   O1316539   1.328   3.477   6.588 -0.6235  0.5782  0.0634
  150SAPE   O1416540   1.185   3.426   6.391 -0.1310  0.1081 -0.1416
  150SAPE   O1216541   1.419   3.351   6.402  0.5173  0.0908  0.3485
  150SAPE   O1116542   1.246   3.239   6.546  0.0914  0.3806  0.2470
  150SAPE    C116543   1.342   3.162   6.622 -0.1355 -0.2286  0.2373
  150SAPE    HA16544   1.359   3.062   6.576 -0.0242 -0.7260  1.3425
  150SAPE    HB16545   1.443   3.208   6.622  0.7192 -2.0691  0.3762
  150SAPE    C216546   1.298   3.150   6.769  0.4740 -0.1451 -0.5977
  150SAPE    HS16547   1.204   3.091   6.765  0.1984  0.1570  0.9840
  150SAPE   O2116548   1.275   3.282   6.821 -1.3459  0.6725 -0.2151
  150SAPE   C2116549   1.155   3.330   6.823 -0.7098  0.1140 -0.0996
  150SAPE   O2216550   1.049   3.273   6.806 -0.3412 -0.1079  0.1840
  150SAPE   C2216551   1.160   3.477   6.870 -0.3165 -0.2452  0.1369
  150SAPE   H2R16552   1.217   3.536   6.794 -1.3937 -0.0685 -0.5541
  150SAPE   H2S16553   1.057   3.511   6.849  0.1387  1.1183  0.0765
  150SAPE    C316554   1.387   3.072   6.856 -0.3297 -0.3798  0.9877
  150SAPE    HX16555   1.488   3.117   6.852  0.1040 -1.4425 -0.6227
  150SAPE    HY16556   1.407   2.973   6.810  2.3629 -0.6524  2.6637
  150SAPE   O3116557   1.343   3.067   6.994 -0.5554 -0.2088  0.0658
  150SAPE   C3116558   1.231   2.993   7.018 -0.3306 -0.6552  0.6361
  150SAPE   O3216559   1.166   2.931   6.936 -0.0910  0.6858 -0.2790
  150SAPE   C3216560   1.183   2.998   7.166 -0.2885  0.0406  0.2754
  150SAPE   H2X16561   1.091   2.937   7.171 -0.6891  0.6103 -0.1655
  150SAPE   H2Y16562   1.146   3.100   7.192 -1.5608 -0.2229 -0.4812
  150SAPE   C2316563   1.203   3.501   7.014  0.6440 -0.6172 -0.2584
  150SAPE   H3R16564   1.298   3.446   7.036 -0.1196 -2.2647 -0.9773
  150SAPE   H3S16565   1.131   3.463   7.090  0.2276 -2.9619 -1.7851
  150SAPE   C2416566   1.229   3.648   7.054 -0.5478 -0.0088  0.2033
  150SAPE   H4R16567   1.287   3.694   6.971 -0.3726 -0.3817  0.1189
  150SAPE   H4S16568   1.297   3.645   7.141 -1.1928 -2.5919  0.6682
  150SAPE   C2516569   1.108   3.728   7.083 -0.1404 -0.3246  0.0086
  150SAPE   H5R16570   1.058   3.733   6.985  0.4137 -0.6052 -0.2876
  150SAPE   C2616571   1.069   3.795   7.192 -0.3754 -0.6144 -1.4957
  150SAPE   H6R16572   0.984   3.864   7.184  1.0551  1.2629 -0.8184
  150SAPE   C2716573   1.148   3.814   7.323  0.1642  0.4446 -0.3996
  150SAPE   H7R16574   1.163   3.924   7.330 -1.1248  0.6419 -0.6851
  150SAPE   H7S16575   1.253   3.779   7.310  0.6877  1.9339 -0.2059
  150SAPE   C2816576   1.091   3.761   7.450 -0.1694 -0.1854  0.6224
  150SAPE   H8R16577   1.153   3.681   7.494  0.3224 -0.1584 -0.0100
  150SAPE   C2916578   1.002   3.823   7.525 -0.1062 -0.0995  0.1393
  150SAPE   H9R16579   0.997   3.777   7.625 -1.8647  1.1535  0.6507
  150SAPE  C21016580   0.918   3.948   7.508  0.2800 -0.1751  0.0086
  150SAPE  H10R16581   0.863   3.959   7.604 -0.6200 -1.9740 -0.2883
  150SAPE  H10S16582   0.841   3.938   7.429  0.3613 -1.5008  0.0937
  150SAPE  C21116583   0.992   4.071   7.468  0.5685  0.4559  0.0176
  150SAPE  H11R16584   1.057   4.103   7.551  1.6798 -0.5724 -0.4391
  150SAPE  C21216585   0.985   4.146   7.353 -0.1465  0.1265  0.2077
  150SAPE  H12R16586   1.052   4.232   7.341  1.1894 -1.0211 -0.6148
  150SAPE  C21316587   0.891   4.131   7.230 -0.7097  0.5666 -0.3212
  150SAPE  H13R16588   0.816   4.054   7.258  0.8018 -0.7221  0.2752
  150SAPE  H13S16589   0.955   4.092   7.148 -0.0425 -0.9293  0.8832
  150SAPE  C21416590   0.807   4.250   7.176  0.7383 -0.3040 -0.4103
  150SAPE  H14R16591   0.802   4.262   7.067  2.7119  1.6620 -0.3318
  150SAPE  C21516592   0.737   4.341   7.243  0.4403  0.1570  0.2707
  150SAPE  H15R16593   0.692   4.429   7.193 -0.0146 -0.5365 -0.5537
  150SAPE  C21616594   0.730   4.349   7.391  0.5720 -0.1916 -0.7561
  150SAPE  H16R16595   0.822   4.316   7.444  0.9486  0.0893 -1.2280
  150SAPE  H16S16596   0.644   4.286   7.421 -0.0203 -0.1397 -2.3004
  150SAPE  C21716597   0.698   4.494   7.441  0.2070 -0.5684  0.6346
  150SAPE  H17R16598   0.625   4.531   7.366  1.9583  0.7674 -0.4533
  150SAPE  H17S16599   0.787   4.559   7.435 -1.0675  1.2407  1.1434
  150SAPE  C21816600   0.646   4.509   7.587 -0.4241  0.5429 -0.0105
  150SAPE  H18R16601   0.558   4.443   7.600  1.4297 -2.3372 -1.6284
  150SAPE  H18S16602   0.613   4.614   7.603 -0.4324  0.4230  0.7640
  150SAPE  C21916603   0.742   4.482   7.698  0.1578  0.3906  0.1747
  150SAPE  H19R16604   0.825   4.556   7.695 -0.4827  1.1546  1.2086
  150SAPE  H19S16605   0.782   4.382   7.671  0.3073  0.1393  1.3396
  150SAPE  C22016606   0.677   4.482   7.836  0.3097  0.7103 -0.4851
  150SAPE  H20R16607   0.735   4.428   7.913 -1.1401 -0.1231  0.0353
  150SAPE  H20S16608   0.576   4.437   7.825  1.6721 -2.6741  0.3573
  150SAPE  H20T16609   0.667   4.585   7.876 -3.3993  0.5591 -0.8526
  150SAPE   C3316610   1.283   2.952   7.269  0.1274  0.5302  0.1560
  150SAPE   H3X16611   1.343   2.860   7.253 -2.1858 -0.9590 -0.0996
  150SAPE   H3Y16612   1.224   2.925   7.359  1.5198 -3.4581 -0.0364
  150SAPE   C3416613   1.383   3.067   7.304  0.4893 -1.7375  0.0134
  150SAPE   H4X16614   1.339   3.166   7.330  1.2738 -1.4248  0.1739
  150SAPE   H4Y16615   1.448   3.095   7.218 -0.6700  0.5093 -0.1519
  150SAPE   C3516616   1.485   3.030   7.408 -0.1513 -0.1093  0.5056
  150SAPE   H5X16617   1.580   3.086   7.397  2.0217 -3.7559 -0.0631
  150SAPE   H5Y16618   1.523   2.929   7.380 -0.2764 -0.2784  0.9357
  150SAPE   C3616619   1.444   3.024   7.560 -1.0391  0.8291 -0.5961
  150SAPE   H6X16620   1.372   2.944   7.587  1.2911 -0.5810  1.7300
  150SAPE   H6Y16621   1.406   3.124   7.592  1.0433  0.9455  1.6345
  150SAPE   C3716622   1.560   2.993   7.663  0.2065 -0.4529 -0.2961
  150SAPE   H7X16623   1.648   3.051   7.627 -1.0205  1.9230  0.4681
  150SAPE   H7Y16624   1.587   2.885   7.650 -0.5039 -0.7840  0.9489
  150SAPE   C3816625   1.517   3.032   7.806 -0.6830  0.5863 -0.1545
  150SAPE   H8X16626   1.441   2.963   7.848  0.3804 -0.7450 -0.4104
  150SAPE   H8Y16627   1.462   3.129   7.796  1.3965  1.5280 -3.1369
  150SAPE   C3916628   1.629   3.052   7.912  0.6374 -0.9354 -0.1778
  150SAPE   H9X16629   1.691   3.141   7.886  2.9079 -2.0576  1.2043
  150SAPE   H9Y16630   1.695   2.963   7.903  2.7647  0.6009 -0.1556
  150SAPE  C31016631   1.586   3.052   8.060  1.3769 -0.0608  0.0167
  150SAPE  H10X16632   1.526   2.962   8.080  0.2803  0.4868 -0.7735
  150SAPE  H10Y16633   1.517   3.136   8.082 -0.2151 -0.9535 -1.4699
  150SAPE  C31116634   1.707   3.027   8.159 -0.1124 -0.0248 -0.4932
  150SAPE  H11X16635   1.769   3.118   8.152  0.8879 -0.5152  1.5386
  150SAPE  H11Y16636   1.759   2.930   8.140  1.8149  0.4205  2.2787
  150SAPE  C31216637   1.661   3.027   8.308  0.6753  0.2388  0.3609
  150SAPE  H12X16638   1.621   2.930   8.343 -2.5330  1.3068 -0.1120
  150SAPE  H12Y16639   1.584   3.106   8.326  1.5038  0.9483  0.8697
  150SAPE  C31316640   1.772   3.057   8.408  0.3580 -0.3322  0.3057
  150SAPE  H13X16641   1.804   3.156   8.369 -0.8754  0.2185  0.6622
  150SAPE  H13Y16642   1.854   2.984   8.392  0.2069 -0.4398  0.0196
  150SAPE  C31416643   1.727   3.051   8.556  0.1605 -0.0735 -0.3473
  150SAPE  H14X16644   1.667   2.958   8.564  1.7437 -1.2405 -1.7701
  150SAPE  H14Y16645   1.674   3.139   8.599 -1.5083 -0.5467 -1.3881
  150SAPE  C31516646   1.850   3.040   8.649 -0.1218  0.1774 -0.6007
  150SAPE  H15X16647   1.918   3.127   8.652 -1.0617  0.9333 -1.2553
  150SAPE  H15Y16648   1.924   2.968   8.607 -0.4988  0.1267 -1.1724
  150SAPE  C31616649   1.820   2.994   8.791 -1.1193 -0.1535 -0.5480
  150SAPE  H16X16650   1.750   2.908   8.795 -1.9030  0.5291  0.6444
  150SAPE  H16Y16651   1.761   3.066   8.851  0.3416  0.4248  0.2206
  150SAPE  C31716652   1.944   2.965   8.873  0.0069  0.5607 -0.3720
  150SAPE  H17X16653   1.893   2.942   8.969 -1.0282  0.9772 -0.8277
  150SAPE  H17Y16654   2.022   3.044   8.885  0.9149 -0.2793 -0.7005
  150SAPE  C31816655   2.017   2.840   8.826  0.8600 -0.6126  0.3572
  150SAPE  H18X16656   1.943   2.765   8.790  0.0965  0.4442 -0.3203
  150SAPE  H18Y16657   2.081   2.804   8.909 -0.8451  2.1159  2.9416
  150SAPE  H18Z16658   2.080   2.855   8.736 -2.6932 -0.3562 -2.1995
  151SAPE     N16659   3.859   1.487   6.030  0.6241 -0.8565 -0.6707
  151SAPE   HN116660   3.805   1.542   5.960  1.3420 -0.0523 -0.5971
  151SAPE   HN216661   3.803   1.400   6.040  1.2321 -1.0336  1.5542
  151SAPE   HN316662   3.860   1.542   6.119 -3.0638  1.4424 -1.8970
  151SAPE   C1216663   4.002   1.458   5.980  0.1969  0.1047 -0.1203
  151SAPE  H12A16664   4.043   1.545   5.923 -2.8800  1.3348 -0.5242
  151SAPE  H12B16665   3.992   1.363   5.924  1.5486 -1.5657  2.3840
  151SAPE   C1116666   4.099   1.429   6.099  0.1629 -0.4233 -0.2264
  151SAPE  H11A16667   4.206   1.417   6.069 -0.2984 -1.6100 -1.4582
  151SAPE  H11B16668   4.076   1.339   6.160  0.1103  0.4311  1.0151
  151SAPE     P16669   4.028   1.564   6.315  0.0930  0.0874 -0.2190
  151SAPE   O1316670   4.072   1.696   6.371 -0.5559  0.0803 -0.2188
  151SAPE   O1416671   3.885   1.547   6.289  0.3657  0.2984 -0.6577
  151SAPE   O1216672   4.101   1.542   6.181 -0.6376 -0.3177 -0.2923
  151SAPE   O1116673   4.075   1.452   6.406 -0.0307  0.4823  0.5652
  151SAPE    C116674   4.216   1.420   6.436  1.0617 -0.0651  0.2314
  151SAPE    HA16675   4.246   1.321   6.395  0.2063 -1.5198  3.0244
  151SAPE    HB16676   4.282   1.492   6.382  0.4737 -0.0878 -0.5374
  151SAPE    C216677   4.249   1.420   6.588  0.0907  0.1750  0.0157
  151SAPE    HS16678   4.360   1.412   6.586  0.0633  0.1372 -1.7939
  151SAPE   O2116679   4.185   1.307   6.647 -0.5488 -0.3515  0.5555
  151SAPE   C2116680   4.257   1.234   6.728 -0.4365  0.1206  0.3161
  151SAPE   O2216681   4.376   1.250   6.760 -0.7607 -1.0740  0.1889
  151SAPE   C2216682   4.167   1.128   6.799  0.0775 -0.5321 -0.1047
  151SAPE   H2R16683   4.077   1.171   6.849  1.7079  2.2477  0.4822
  151SAPE   H2S16684   4.125   1.054   6.727 -0.4762 -0.3832  0.0600
  151SAPE    C316685   4.220   1.549   6.670  0.2607  0.5067  0.2196
  151SAPE    HX16686   4.112   1.576   6.669  0.0464 -0.3116 -0.2572
  151SAPE    HY16687   4.284   1.628   6.626  1.3632  0.0923  1.0729
  151SAPE   O3116688   4.252   1.536   6.814  0.6245  0.0276 -0.4462
  151SAPE   C3116689   4.375   1.554   6.848 -0.1883 -0.0530  0.4942
  151SAPE   O3216690   4.469   1.577   6.774  0.1023  0.3324 -0.2878
  151SAPE   C3216691   4.375   1.545   7.002  0.9069 -0.5996 -0.4984
  151SAPE   H2X16692   4.367   1.439   7.036  0.5620 -0.8687 -1.4137
  151SAPE   H2Y16693   4.287   1.609   7.026  1.4107 -0.5494  1.2730
  151SAPE   C2316694   4.240   1.048   6.909 -0.3003  0.1276 -0.4312
  151SAPE   H3R16695   4.252   1.117   6.995  1.7554 -0.5751 -0.1375
  151SAPE   H3S16696   4.342   1.020   6.876 -1.6217 -0.0278 -4.7365
  151SAPE   C2416697   4.171   0.917   6.955 -1.0427 -0.0207 -0.9987
  151SAPE   H4R16698   4.085   0.948   7.019 -0.1912 -1.7854  1.0932
  151SAPE   H4S16699   4.243   0.868   7.024 -0.2457  3.1788  0.5865
  151SAPE   C2516700   4.132   0.812   6.847 -0.5845  1.1448 -0.9061
  151SAPE   H5R16701   4.218   0.781   6.787 -0.4114 -0.5178  0.1710
  151SAPE   C2616702   4.013   0.763   6.820 -0.0753  0.2019 -0.0688
  151SAPE   H6R16703   4.009   0.687   6.741  3.4874 -0.5004  0.3636
  151SAPE   C2716704   3.883   0.806   6.888 -0.8678  1.0347 -0.9430
  151SAPE   H7R16705   3.810   0.823   6.806 -1.2415 -1.3033 -1.1127
  151SAPE   H7S16706   3.894   0.905   6.937 -0.4982  0.4749  0.1055
  151SAPE   C2816707   3.834   0.698   6.985 -0.4815 -0.5557  0.5497
  151SAPE   H8R16708   3.811   0.608   6.926 -1.0962 -0.2561  0.3377
  151SAPE   C2916709   3.820   0.691   7.119 -0.7307  0.4022 -0.2229
  151SAPE   H9R16710   3.769   0.604   7.162 -0.4992  0.0792 -0.5951
  151SAPE  C21016711   3.852   0.795   7.224  0.1539 -0.0242 -0.4126
  151SAPE  H10R16712   3.761   0.828   7.277 -0.9393  0.5584 -2.5998
  151SAPE  H10S16713   3.875   0.891   7.173 -1.2348  1.1452  1.1560
  151SAPE  C21116714   3.958   0.748   7.315 -0.5779  0.3505 -0.3641
  151SAPE  H11R16715   4.050   0.706   7.272 -0.0185  1.0429  0.1499
  151SAPE  C21216716   3.953   0.745   7.450 -0.1696  0.3515  0.5289
  151SAPE  H12R16717   4.047   0.737   7.506 -2.4043  1.5666  4.6487
  151SAPE  C21316718   3.836   0.786   7.541 -0.5615  0.3808 -0.0874
  151SAPE  H13R16719   3.734   0.761   7.503  0.1567  1.2687 -2.7013
  151SAPE  H13S16720   3.832   0.896   7.555 -0.6443  0.4944 -0.9762
  151SAPE  C21416721   3.848   0.716   7.670 -0.2649 -0.0584 -0.6814
  151SAPE  H14R16722   3.865   0.607   7.666 -1.8629 -0.3494  0.1480
  151SAPE  C21516723   3.850   0.759   7.794  0.0148 -0.2064  0.2405
  151SAPE  H15R16724   3.854   0.692   7.881  0.7640 -0.3707  0.0798
  151SAPE  C21616725   3.837   0.902   7.832  0.0911 -0.0175  0.7065
  151SAPE  H16R16726   3.865   0.977   7.755 -1.5216  1.0151  1.0941
  151SAPE  H16S16727   3.919   0.915   7.906  0.6761  1.6278 -0.2072
  151SAPE  C21716728   3.705   0.923   7.900  0.0433 -0.6609  0.2339
  151SAPE  H17R16729   3.701   1.021   7.951  0.6166 -2.6113  4.2215
  151SAPE  H17S16730   3.683   0.850   7.981  0.6121 -0.8956  0.1733
  151SAPE  C21816731   3.595   0.938   7.792 -0.4121  0.2443 -0.0342
  151SAPE  H18R16732   3.610   0.862   7.712  2.7878 -0.2997  1.0041
  151SAPE  H18S16733   3.615   1.036   7.744  1.5610  0.3495  0.9583
  151SAPE  C21916734   3.454   0.939   7.849  0.3380 -0.3557 -0.8766
  151SAPE  H19R16735   3.447   1.029   7.914 -0.0344 -2.1706  1.6692
  151SAPE  H19S16736   3.437   0.849   7.912  0.2298 -0.5178 -1.1351
  151SAPE  C22016737   3.346   0.953   7.749 -0.9875 -0.2099 -0.1526
  151SAPE  H20R16738   3.249   0.931   7.799 -1.5566  1.1243 -0.6458
  151SAPE  H20S16739   3.342   1.054   7.704  3.3258  1.2741  2.5275
  151SAPE  H20T16740   3.349   0.873   7.672  0.6612 -1.1109  0.8133
  151SAPE   C3316741   4.504   1.599   7.061 -0.9212  0.5660 -0.1142
  151SAPE   H3X16742   4.565   1.651   6.985 -1.9327  1.6094 -0.2349
  151SAPE   H3Y16743   4.567   1.514   7.094 -0.1141  1.6566  1.2319
  151SAPE   C3416744   4.485   1.687   7.185  0.3301 -0.8388 -0.3671
  151SAPE   H4X16745   4.434   1.783   7.164  0.3342 -0.5224  1.0449
  151SAPE   H4Y16746   4.590   1.709   7.212  0.6672  0.0491 -2.2808
  151SAPE   C3516747   4.410   1.608   7.292  0.1709  0.4632  0.5688
  151SAPE   H5X16748   4.451   1.505   7.290  2.3250  1.3146 -0.5753
  151SAPE   H5Y16749   4.301   1.605   7.269 -0.1211  0.3637  1.9321
  151SAPE   C3616750   4.426   1.670   7.432 -0.0232  0.0640 -0.1092
  151SAPE   H6X16751   4.376   1.768   7.441 -0.3834 -0.2267  1.1472
  151SAPE   H6Y16752   4.532   1.698   7.449  0.0573 -0.5976  0.4795
  151SAPE   C3716753   4.385   1.571   7.545 -0.0843 -0.1590 -0.6967
  151SAPE   H7X16754   4.411   1.467   7.515  0.3597 -0.0426 -0.7205
  151SAPE   H7Y16755   4.274   1.561   7.544 -0.0539 -0.5018 -0.8706
  151SAPE   C3816756   4.429   1.612   7.685 -0.5848  0.0689 -0.3578
  151SAPE   H8X16757   4.532   1.652   7.675  0.1032 -0.8211  2.6989
  151SAPE   H8Y16758   4.448   1.528   7.756 -2.5427 -1.0150 -1.0773
  151SAPE   C3916759   4.330   1.711   7.748 -0.0493 -0.5295  0.7309
  151SAPE   H9X16760   4.235   1.656   7.766  1.1081 -1.7027  3.7061
  151SAPE   H9Y16761   4.312   1.789   7.671  0.5606 -0.5500  0.5663
  151SAPE  C31016762   4.369   1.786   7.870 -0.0353 -0.2921  0.6866
  151SAPE  H10X16763   4.407   1.886   7.839 -0.0358 -0.0952  1.3013
  151SAPE  H10Y16764   4.450   1.746   7.934  2.4982  0.1366 -2.1977
  151SAPE  C31116765   4.232   1.811   7.950 -0.6335  0.4038 -0.0424
  151SAPE  H11X16766   4.155   1.865   7.891 -0.8109 -0.6009 -0.7326
  151SAPE  H11Y16767   4.245   1.889   8.028 -0.3997 -0.8554  1.1828
  151SAPE  C31216768   4.179   1.690   8.020 -0.2323  0.1979 -0.2270
  151SAPE  H12X16769   4.266   1.644   8.071  0.3276  1.3157 -0.1547
  151SAPE  H12Y16770   4.141   1.611   7.951 -0.2640  0.5322 -0.5974
  151SAPE  C31316771   4.067   1.723   8.114 -0.1698 -0.2849  0.7443
  151SAPE  H13X16772   3.993   1.771   8.045 -0.1712  0.4059  1.2197
  151SAPE  H13Y16773   4.107   1.792   8.191  0.8271 -1.3428  1.1882
  151SAPE  C31416774   4.012   1.600   8.195  0.3223  0.2507  0.3112
  151SAPE  H14X16775   4.100   1.577   8.259  1.0438 -2.0768 -1.5055
  151SAPE  H14Y16776   3.998   1.520   8.120 -0.2664 -0.9619  1.6954
  151SAPE  C31516777   3.886   1.622   8.281  0.7482 -0.6573  0.0165
  151SAPE  H15X16778   3.809   1.641   8.203  0.4551  1.2313  0.7203
  151SAPE  H15Y16779   3.912   1.716   8.335 -1.8042  0.4748 -0.6338
  151SAPE  C31616780   3.864   1.493   8.362 -0.1572  0.0171 -0.4767
  151SAPE  H16X16781   3.872   1.404   8.296  1.1222 -0.4378  0.2881
  151SAPE  H16Y16782   3.760   1.484   8.401  0.5984 -2.1028  1.0707
  151SAPE  C31716783   3.965   1.472   8.479  0.0580  0.3254 -0.5889
  151SAPE  H17X16784   3.941   1.555   8.549 -0.9462  0.0448 -0.5997
  151SAPE  H17Y16785   4.074   1.479   8.457  0.0043 -1.2136 -1.4409
  151SAPE  C31816786   3.927   1.345   8.556 -0.1698  0.6614 -0.0934
  151SAPE  H18X16787   3.905   1.261   8.487  1.6956  0.3747 -0.3662
  151SAPE  H18Y16788   3.844   1.360   8.629 -0.1308 -2.4131  0.6541
  151SAPE  H18Z16789   4.021   1.320   8.610  0.8717  1.3790 -1.5332
  152SAPE     N16790   0.856   5.196   6.261 -0.2878 -0.0956 -0.0411
  152SAPE   HN116791   0.856   5.228   6.360  2.7494  0.8242 -0.2851
  152SAPE   HN216792   0.943   5.140   6.247  1.0274  2.1877 -1.2569
  152SAPE   HN316793   0.853   5.277   6.196 -1.1866  1.3253  1.7230
  152SAPE   C1216794   0.730   5.116   6.223  0.6378  0.2137  0.1990
  152SAPE  H12A16795   0.738   5.112   6.112 -0.4427 -0.1205  0.1271
  152SAPE  H12B16796   0.639   5.177   6.239 -0.8230 -1.4984 -1.4175
  152SAPE   C1116797   0.731   4.973   6.282 -0.2550 -0.1806 -0.5684
  152SAPE  H11A16798   0.738   4.973   6.393  1.0258  2.1780 -0.6280
  152SAPE  H11B16799   0.814   4.917   6.234 -0.7271 -0.4332 -1.0961
  152SAPE     P16800   0.593   4.759   6.258  0.1351  0.4157  0.7401
  152SAPE   O1316801   0.465   4.717   6.192  0.1865 -0.5126 -0.2629
  152SAPE   O1416802   0.707   4.686   6.208  0.6640 -0.1792 -0.2578
  152SAPE   O1216803   0.607   4.913   6.238  0.3046  0.0993 -0.2693
  152SAPE   O1116804   0.583   4.747   6.420 -0.0009  0.2308  0.2120
  152SAPE    C116805   0.450   4.721   6.474 -0.0605 -0.6447 -0.1608
  152SAPE    HA16806   0.402   4.821   6.475 -0.8973 -1.0276 -0.6433
  152SAPE    HB16807   0.391   4.645   6.417 -0.1453 -0.2537 -0.5934
  152SAPE    C216808   0.455   4.688   6.631  0.5225  0.2923 -0.5770
  152SAPE    HS16809   0.359   4.728   6.670 -0.5122 -2.0859 -0.6401
  152SAPE   O2116810   0.572   4.752   6.689 -0.0033  0.0937 -0.3228
  152SAPE   C2116811   0.553   4.882   6.712  0.4080 -0.2541  0.3626
  152SAPE   O2216812   0.447   4.936   6.701 -0.5149  0.8085 -0.6071
  152SAPE   C2216813   0.676   4.955   6.762 -0.0651 -0.4673 -0.0093
  152SAPE   H2R16814   0.758   4.881   6.777  0.5744 -0.1077 -1.6140
  152SAPE   H2S16815   0.716   5.012   6.675  2.4638 -2.3680 -0.1430
  152SAPE    C316816   0.459   4.544   6.666  0.0389 -0.2137  0.1391
  152SAPE    HX16817   0.555   4.504   6.627 -0.7283 -3.8827  1.8087
  152SAPE    HY16818   0.375   4.495   6.613 -2.1193 -0.7139  3.8951
  152SAPE   O3116819   0.455   4.535   6.806 -0.2655  0.6508  0.2922
  152SAPE   C3116820   0.334   4.502   6.859  0.8366  0.5019 -0.0445
  152SAPE   O3216821   0.235   4.471   6.796 -0.1540 -0.2416 -0.3587
  152SAPE   C3216822   0.348   4.502   7.011  0.2526  1.1406 -0.1008
  152SAPE   H2X16823   0.347   4.607   7.046  0.7705  1.0766  0.1100
  152SAPE   H2Y16824   0.448   4.459   7.033  0.0447  0.5618 -0.2629
  152SAPE   C2316825   0.650   5.032   6.897 -0.4972 -0.3027 -0.0550
  152SAPE   H3R16826   0.587   5.120   6.871 -0.5775 -0.8402 -1.7312
  152SAPE   H3S16827   0.747   5.076   6.930  0.2128 -1.6250 -0.3455
  152SAPE   C2416828   0.589   4.953   7.017  0.2276 -0.8691  0.3844
  152SAPE   H4R16829   0.488   4.919   6.985 -0.3183 -0.4378  1.5720
  152SAPE   H4S16830   0.564   5.026   7.097  1.4064  0.3097 -0.3211
  152SAPE   C2516831   0.674   4.838   7.061  0.6084  0.1508  0.0829
  152SAPE   H5R16832   0.721   4.780   6.981  0.9124  1.9809 -1.0858
  152SAPE   C2616833   0.692   4.796   7.190 -0.1717  0.0713 -0.2078
  152SAPE   H6R16834   0.761   4.712   7.208 -1.5950 -1.5462 -1.9954
  152SAPE   C2716835   0.631   4.861   7.307  0.4002 -0.7143 -0.0601
  152SAPE   H7R16836   0.630   4.795   7.397  0.6791 -0.5316  0.0747
  152SAPE   H7S16837   0.524   4.885   7.286  0.5669 -0.9676 -1.2343
  152SAPE   C2816838   0.715   4.984   7.336 -0.5350 -0.0604 -0.3224
  152SAPE   H8R16839   0.772   5.031   7.255 -0.3530  1.1123  0.4726
  152SAPE   C2916840   0.725   5.032   7.463  0.5028 -0.9834 -0.6095
  152SAPE   H9R16841   0.782   5.126   7.469 -1.7954  0.6469 -3.1340
  152SAPE  C21016842   0.666   4.979   7.591  0.3147  0.4008  0.2912
  152SAPE  H10R16843   0.563   4.943   7.570  1.2453 -1.2474 -1.6035
  152SAPE  H10S16844   0.644   5.064   7.659  1.5883  2.6490 -1.9905
  152SAPE  C21116845   0.749   4.875   7.663 -0.0897 -0.8334 -0.1222
  152SAPE  H11R16846   0.815   4.809   7.604 -0.8785 -1.1447 -0.6718
  152SAPE  C21216847   0.753   4.851   7.799  0.0981 -0.8828 -0.6016
  152SAPE  H12R16848   0.801   4.758   7.835 -3.0674 -1.4358  2.4593
  152SAPE  C21316849   0.672   4.929   7.903  0.0729  0.2592 -0.0981
  152SAPE  H13R16850   0.584   4.979   7.858 -0.9906 -0.2408  1.4036
  152SAPE  H13S16851   0.740   5.003   7.950  1.9974 -0.9174 -0.9525
  152SAPE  C21416852   0.615   4.834   8.007 -0.1076 -0.1937 -0.1668
  152SAPE  H14R16853   0.519   4.789   7.975  0.0236  0.1903 -1.1157
  152SAPE  C21516854   0.665   4.801   8.123  0.6096 -0.1236  0.7454
  152SAPE  H15R16855   0.625   4.716   8.180  0.2034  1.4625  2.9309
  152SAPE  C21616856   0.796   4.860   8.179  0.8116  0.0196  0.6988
  152SAPE  H16R16857   0.802   4.965   8.143 -0.8269  0.1345  0.7191
  152SAPE  H16S16858   0.887   4.804   8.149 -0.0428 -0.1930 -1.6328
  152SAPE  C21716859   0.781   4.873   8.337 -0.0814  0.2611 -0.1448
  152SAPE  H17R16860   0.691   4.930   8.369 -0.1839 -0.3754  0.7309
  152SAPE  H17S16861   0.867   4.928   8.381  1.2367  0.1432 -2.5011
  152SAPE  C21816862   0.775   4.737   8.415 -0.5226  0.3255  0.0816
  152SAPE  H18R16863   0.867   4.676   8.397  0.2124  1.7464 -1.1143
  152SAPE  H18S16864   0.692   4.672   8.380 -0.3478  1.0733 -1.7647
  152SAPE  C21916865   0.756   4.748   8.567  0.2101  0.0593  0.0107
  152SAPE  H19R16866   0.741   4.653   8.621 -2.9306  1.3647  1.5579
  152SAPE  H19S16867   0.664   4.811   8.567  0.4839  0.4683 -0.0448
  152SAPE  C22016868   0.869   4.828   8.641 -0.8298  0.0149 -0.0616
  152SAPE  H20R16869   0.858   4.821   8.751 -1.6457  2.3730  0.0452
  152SAPE  H20S16870   0.850   4.931   8.602  2.3976  0.5526 -0.3033
  152SAPE  H20T16871   0.967   4.787   8.608 -0.9861  1.1236 -2.0214
  152SAPE   C3316872   0.251   4.420   7.095  0.0574 -0.0421 -0.2531
  152SAPE   H3X16873   0.254   4.318   7.052 -1.2735 -1.1526  2.1667
  152SAPE   H3Y16874   0.145   4.453   7.088 -0.2576 -0.2843  2.7939
  152SAPE   C3416875   0.283   4.427   7.247  0.3807  0.9292 -0.1620
  152SAPE   H4X16876   0.291   4.529   7.290 -0.1131 -0.1849  2.7139
  152SAPE   H4Y16877   0.387   4.391   7.260 -0.0726 -0.6573 -0.8266
  152SAPE   C3516878   0.193   4.334   7.322 -0.5769  0.2421 -0.0030
  152SAPE   H5X16879   0.221   4.230   7.295 -2.3111 -0.1648 -0.3442
  152SAPE   H5Y16880   0.094   4.346   7.272  0.2026  3.0172 -0.9209
  152SAPE   C3616881   0.184   4.364   7.464 -0.0024 -0.1764  0.0729
  152SAPE   H6X16882   0.106   4.289   7.490 -1.9487  1.7853  0.0514
  152SAPE   H6Y16883   0.159   4.469   7.488  1.6192  0.2019  0.1511
  152SAPE   C3716884   0.314   4.329   7.538 -0.9980  0.1870  0.9569
  152SAPE   H7X16885   0.375   4.422   7.528  2.9879 -2.1466  2.3725
  152SAPE   H7Y16886   0.353   4.241   7.483  2.0104  1.1277  1.4582
  152SAPE   C3816887   0.299   4.291   7.684 -0.0896  0.1071 -0.1848
  152SAPE   H8X16888   0.395   4.249   7.720 -0.7269 -1.2919 -0.0890
  152SAPE   H8Y16889   0.223   4.211   7.694  0.3955 -0.4385 -0.7595
  152SAPE   C3916890   0.267   4.419   7.777  0.1239  0.2936  0.2847
  152SAPE   H9X16891   0.168   4.465   7.754  0.1881  0.4370  0.2954
  152SAPE   H9Y16892   0.354   4.487   7.767  0.4832 -0.2348 -0.1462
  152SAPE  C31016893   0.257   4.375   7.924  0.3127 -0.3704 -0.1236
  152SAPE  H10X16894   0.356   4.325   7.939  0.8684  1.1592  1.4816
  152SAPE  H10Y16895   0.181   4.296   7.941  0.0408  0.2924  1.8613
  152SAPE  C31116896   0.235   4.494   8.022 -0.2567 -0.0662  0.7939
  152SAPE  H11X16897   0.310   4.566   7.983 -0.7195 -1.1414 -2.1429
  152SAPE  H11Y16898   0.271   4.446   8.116  2.8254 -1.8435 -1.2017
  152SAPE  C31216899   0.089   4.538   8.037 -0.2241 -0.3638 -0.3170
  152SAPE  H12X16900   0.030   4.444   8.042  0.3157 -0.5887  3.3773
  152SAPE  H12Y16901   0.066   4.592   7.943 -0.3885  0.8310  0.4038
  152SAPE  C31316902   0.056   4.626   8.154 -0.1572 -0.2186 -0.2293
  152SAPE  H13X16903   0.114   4.720   8.144  1.1407 -0.9290  0.4509
  152SAPE  H13Y16904   0.100   4.584   8.247  0.1408  1.2851  0.3330
  152SAPE  C31416905  -0.093   4.633   8.181  0.0275 -0.9229 -0.5782
  152SAPE  H14X16906  -0.144   4.535   8.187 -2.0181  0.1857  0.7697
  152SAPE  H14Y16907  -0.150   4.674   8.095 -4.1628 -0.2422  2.3856
  152SAPE  C31516908  -0.133   4.710   8.306  0.4426 -0.2146  0.8105
  152SAPE  H15X16909  -0.104   4.817   8.298 -1.2850  0.2790  0.9950
  152SAPE  H15Y16910  -0.093   4.667   8.401  1.0926  2.6830  1.8941
  152SAPE  C31616911  -0.289   4.704   8.319  0.3839 -0.4355 -0.7144
  152SAPE  H16X16912  -0.324   4.599   8.317  0.3733 -0.5153  2.4456
  152SAPE  H16Y16913  -0.328   4.766   8.234  1.4731 -0.8645 -1.5306
  152SAPE  C31716914  -0.338   4.770   8.451 -0.0744 -0.1616  0.0190
  152SAPE  H17X16915  -0.271   4.858   8.462 -1.6298  0.8652  1.5546
  152SAPE  H17Y16916  -0.321   4.703   8.538  0.0303 -0.1406  0.0148
  152SAPE  C31816917  -0.484   4.810   8.425 -0.5073 -0.3697  0.0299
  152SAPE  H18X16918  -0.537   4.831   8.521 -0.3479 -1.0558  0.2722
  152SAPE  H18Y16919  -0.540   4.732   8.369 -1.9211  1.1883 -0.7659
  152SAPE  H18Z16920  -0.492   4.897   8.357  0.7169 -0.2444  0.0294
  153SAPE     N16921   4.053   4.940   6.104 -0.4852 -0.1173  0.1887
  153SAPE   HN116922   4.127   4.926   6.032 -0.5306 -0.9926  0.3101
  153SAPE   HN216923   3.967   4.899   6.064  0.4872 -0.8442 -1.2213
  153SAPE   HN316924   4.044   5.043   6.115  0.3678 -0.1807  1.6108
  153SAPE   C1216925   4.095   4.877   6.233  0.5339 -0.7069  1.1626
  153SAPE  H12A16926   4.204   4.899   6.234  0.2984  0.6133 -0.4043
  153SAPE  H12B16927   4.074   4.769   6.218 -1.3966 -0.0958 -0.8129
  153SAPE   C1116928   4.013   4.941   6.349 -0.0822 -0.5833  0.3235
  153SAPE  H11A16929   4.023   5.050   6.363 -1.3363 -0.5027  0.6229
  153SAPE  H11B16930   4.049   4.901   6.447 -1.4058  0.0259  1.0750
  153SAPE     P16931   3.782   4.816   6.402 -0.1127  0.4036  0.1487
  153SAPE   O1316932   3.635   4.833   6.377 -0.4390 -0.3754 -0.1514
  153SAPE   O1416933   3.849   4.690   6.359 -0.1842  0.5389  0.4818
  153SAPE   O1216934   3.871   4.927   6.338 -0.8734  0.2227  0.2181
  153SAPE   O1116935   3.804   4.838   6.554 -0.1114 -0.7347 -0.3936
  153SAPE    C116936   3.767   4.964   6.616  0.0751  0.7068 -0.2273
  153SAPE    HA16937   3.837   5.049   6.605 -0.2471  1.2503  1.6358
  153SAPE    HB16938   3.675   4.993   6.561 -0.7691 -2.4934 -0.5965
  153SAPE    C216939   3.728   4.938   6.765 -0.3393 -0.7699 -0.3622
  153SAPE    HS16940   3.661   5.020   6.798  1.2603  1.1978 -1.9057
  153SAPE   O2116941   3.850   4.933   6.847 -0.4424  0.2555 -0.5221
  153SAPE   C2116942   3.909   5.050   6.872 -0.2356 -0.2693  0.5772
  153SAPE   O2216943   3.863   5.162   6.847 -0.2610 -0.6188  0.2195
  153SAPE   C2216944   4.025   5.022   6.957 -0.3478  0.0114 -0.0758
  153SAPE   H2R16945   3.986   4.970   7.047  0.6995 -0.5278  0.0708
  153SAPE   H2S16946   4.094   4.947   6.913  0.7362 -0.3560  2.2108
  153SAPE    C316947   3.638   4.810   6.775  0.0220  0.6965  0.1182
  153SAPE    HX16948   3.711   4.726   6.764 -2.4188 -1.5485  0.5449
  153SAPE    HY16949   3.569   4.800   6.688  0.8249 -2.3570 -0.2401
  153SAPE   O3116950   3.577   4.806   6.903 -0.8654 -0.1041 -0.2530
  153SAPE   C3116951   3.529   4.688   6.932  0.4205  0.2209 -0.1805
  153SAPE   O3216952   3.522   4.597   6.850 -0.4015 -0.1199 -0.5561
  153SAPE   C3216953   3.483   4.672   7.071 -0.1372 -0.3067  0.6956
  153SAPE   H2X16954   3.412   4.587   7.074  1.5529 -1.8410 -1.3067
  153SAPE   H2Y16955   3.437   4.766   7.108  0.5084 -0.3426  1.6087
  153SAPE   C2316956   4.096   5.156   6.987 -0.1430 -0.1949  0.4281
  153SAPE   H3R16957   4.029   5.233   7.030  0.3780  1.4032 -1.5388
  153SAPE   H3S16958   4.132   5.211   6.898  1.3387  0.2160  1.2643
  153SAPE   C2416959   4.234   5.126   7.067 -0.2212 -0.6214 -0.2481
  153SAPE   H4R16960   4.305   5.068   7.004 -0.4956  0.9595 -2.0440
  153SAPE   H4S16961   4.201   5.062   7.152  1.9582  0.4566  1.4588
  153SAPE   C2516962   4.312   5.238   7.132 -0.0953  0.6879 -0.2183
  153SAPE   H5R16963   4.355   5.302   7.053  1.0928  0.0282 -0.1185
  153SAPE   C2616964   4.350   5.253   7.259  0.0185  0.1235  0.0423
  153SAPE   H6R16965   4.394   5.349   7.287  0.0867 -0.2001  1.0684
  153SAPE   C2716966   4.307   5.161   7.368  0.3958  0.1915  0.5010
  153SAPE   H7R16967   4.375   5.176   7.454  0.4733  1.8082  0.1705
  153SAPE   H7S16968   4.298   5.057   7.330 -0.9760 -0.5133  2.6319
  153SAPE   C2816969   4.162   5.182   7.422 -0.2699 -0.7631  0.3154
  153SAPE   H8R16970   4.092   5.190   7.338  0.5619  2.1427 -0.1518
  153SAPE   C2916971   4.119   5.200   7.545 -0.2274  0.0708  0.2594
  153SAPE   H9R16972   4.012   5.227   7.554 -0.0188  0.6174  1.2258
  153SAPE  C21016973   4.205   5.201   7.669 -0.3703  0.1640  0.1578
  153SAPE  H10R16974   4.252   5.299   7.693 -1.6557  0.8259 -0.0276
  153SAPE  H10S16975   4.291   5.135   7.643  0.2792  0.9925  0.1512
  153SAPE  C21116976   4.124   5.156   7.790  0.3845  0.6588  0.3614
  153SAPE  H11R16977   4.024   5.111   7.779  0.8671 -0.5883  0.9450
  153SAPE  C21216978   4.171   5.160   7.918 -0.0778  0.6289 -0.5299
  153SAPE  H12R16979   4.114   5.106   7.995  0.2390  0.4213 -0.4402
  153SAPE  C21316980   4.301   5.210   7.975 -0.2586 -0.3418 -0.5210
  153SAPE  H13R16981   4.380   5.225   7.898 -1.0314 -0.2522 -1.3167
  153SAPE  H13S16982   4.341   5.141   8.051  0.1119 -0.0152 -0.4181
  153SAPE  C21416983   4.266   5.345   8.044  0.3823  0.7029 -0.1221
  153SAPE  H14R16984   4.209   5.415   7.981 -1.0110  1.7696  2.2547
  153SAPE  C21516985   4.300   5.386   8.168 -0.7280  0.5582 -0.5866
  153SAPE  H15R16986   4.260   5.485   8.194 -3.0497 -0.1061 -1.5106
  153SAPE  C21616987   4.372   5.312   8.280  0.6243  0.0183  0.6655
  153SAPE  H16R16988   4.432   5.381   8.343  0.8050  1.3822 -0.9341
  153SAPE  H16S16989   4.444   5.240   8.237  1.5544  1.0191  0.5280
  153SAPE  C21716990   4.266   5.228   8.360  0.1900 -0.6579  0.2613
  153SAPE  H17R16991   4.227   5.137   8.311 -0.8275 -0.5377  0.8353
  153SAPE  H17S16992   4.180   5.293   8.388  0.5698  0.4883 -1.1528
  153SAPE  C21816993   4.312   5.184   8.495  0.2192 -0.4147  0.3990
  153SAPE  H18R16994   4.351   5.277   8.542 -1.2692  0.5266 -0.1942
  153SAPE  H18S16995   4.403   5.121   8.491  0.2894 -0.1954 -2.6351
  153SAPE  C21916996   4.199   5.119   8.564  0.1092 -0.5479  0.3184
  153SAPE  H19R16997   4.108   5.182   8.567  0.2886 -0.0050 -3.0128
  153SAPE  H19S16998   4.224   5.110   8.672  0.2674  1.8504  0.5011
  153SAPE  C22016999   4.157   4.983   8.522  0.7531 -0.1527 -0.2818
  153SAPE  H20R17000   4.106   4.973   8.424  1.3853 -0.0249 -0.6231
  153SAPE  H20S17001   4.085   4.942   8.596  2.1683 -0.4019  0.9800
  153SAPE  H20T17002   4.245   4.914   8.524  0.5912 -0.3691 -0.5541
  153SAPE   C3317003   3.604   4.657   7.171 -0.0848 -0.1041 -0.0635
  153SAPE   H3X17004   3.679   4.735   7.147 -0.8864  0.3406 -1.1935
  153SAPE   H3Y17005   3.648   4.557   7.155 -0.6694 -0.6422  1.5816
  153SAPE   C3417006   3.567   4.663   7.321 -0.4038 -0.3741  0.0517
  153SAPE   H4X17007   3.489   4.740   7.337  0.8015  1.1882 -1.4288
  153SAPE   H4Y17008   3.651   4.701   7.383 -1.1967 -0.3980  1.1421
  153SAPE   C3517009   3.502   4.529   7.381  0.1470 -0.6317 -0.0914
  153SAPE   H5X17010   3.574   4.445   7.375 -0.0373 -0.8824  1.0724
  153SAPE   H5Y17011   3.417   4.511   7.312 -0.0652  4.2834 -1.3162
  153SAPE   C3617012   3.456   4.573   7.519  0.4869 -0.3337  0.0911
  153SAPE   H6X17013   3.363   4.517   7.542  0.2678 -0.2935 -0.6838
  153SAPE   H6Y17014   3.429   4.680   7.525  3.4034  0.6209 -2.2690
  153SAPE   C3717015   3.545   4.535   7.639  0.4741  0.0021  0.1968
  153SAPE   H7X17016   3.646   4.579   7.624 -0.5779  3.0132  1.4371
  153SAPE   H7Y17017   3.553   4.424   7.638 -0.2283 -0.0778  1.5434
  153SAPE   C3817018   3.480   4.586   7.776  0.1571 -0.0332 -0.0089
  153SAPE   H8X17019   3.382   4.536   7.790 -0.7558  1.4881 -0.8906
  153SAPE   H8Y17020   3.460   4.694   7.765 -2.2574 -0.5481 -0.9778
  153SAPE   C3917021   3.571   4.564   7.890 -0.2556  0.1072  0.2520
  153SAPE   H9X17022   3.520   4.606   7.979 -0.0660 -1.5040  1.1329
  153SAPE   H9Y17023   3.666   4.618   7.869 -0.1070  0.2676  1.3028
  153SAPE  C31017024   3.594   4.418   7.935  0.1993 -0.3361  0.2201
  153SAPE  H10X17025   3.687   4.383   7.885  0.1992 -0.1162  0.0680
  153SAPE  H10Y17026   3.526   4.344   7.887  2.1707 -2.2721  0.3038
  153SAPE  C31117027   3.603   4.396   8.088  0.5552 -0.0161 -0.3590
  153SAPE  H11X17028   3.500   4.409   8.126 -0.4828 -0.5440 -2.8769
  153SAPE  H11Y17029   3.682   4.448   8.147  1.0113  0.6760 -1.5665
  153SAPE  C31217030   3.628   4.243   8.109 -0.4594 -0.1619 -0.3445
  153SAPE  H12X17031   3.726   4.210   8.069  1.1830  2.3507  1.4059
  153SAPE  H12Y17032   3.544   4.197   8.053 -2.0270  2.5852 -0.3607
  153SAPE  C31317033   3.642   4.201   8.260  0.0751 -0.3700  0.0305
  153SAPE  H13X17034   3.685   4.099   8.261  0.6455 -0.2015 -2.3681
  153SAPE  H13Y17035   3.541   4.204   8.306 -0.0965 -1.7243 -0.2356
  153SAPE  C31417036   3.735   4.284   8.347  0.4686 -0.1009  0.6792
  153SAPE  H14X17037   3.706   4.391   8.361  1.6478  0.2920  0.1828
  153SAPE  H14Y17038   3.838   4.283   8.306 -0.3274 -1.8017 -1.3839
  153SAPE  C31517039   3.749   4.220   8.490  0.1438 -0.1027 -0.3812
  153SAPE  H15X17040   3.782   4.115   8.474  1.8322 -0.2274  3.5360
  153SAPE  H15Y17041   3.647   4.221   8.534  0.9058  2.8218  1.4482
  153SAPE  C31617042   3.857   4.289   8.580  0.0870  0.4451 -0.1498
  153SAPE  H16X17043   3.811   4.381   8.622 -0.5618  1.0293 -2.0687
  153SAPE  H16Y17044   3.941   4.320   8.514  0.1832 -0.6002 -0.5337
  153SAPE  C31717045   3.910   4.208   8.693 -0.2787  0.2733 -0.1503
  153SAPE  H17X17046   4.003   4.255   8.731 -0.1855 -0.7414  0.9101
  153SAPE  H17Y17047   3.944   4.111   8.651  0.2351 -0.0707  1.0532
  153SAPE  C31817048   3.812   4.186   8.806 -0.3472  0.4639 -0.0084
  153SAPE  H18X17049   3.812   4.285   8.857  1.3608 -0.1087  1.1545
  153SAPE  H18Y17050   3.848   4.104   8.872 -0.1939 -0.0915 -0.7651
  153SAPE  H18Z17051   3.705   4.167   8.785  0.6708 -3.2308 -2.4582
  154SAPE     N17052   2.430   4.507   5.966  0.0137  0.4343 -0.2969
  154SAPE   HN117053   2.481   4.569   5.899  0.8836 -0.3492 -0.3675
  154SAPE   HN217054   2.355   4.554   6.020 -1.3786 -1.1265 -0.8486
  154SAPE   HN317055   2.502   4.482   6.037  0.5674 -2.4728 -1.8263
  154SAPE   C1217056   2.372   4.402   5.875 -0.3537  0.9424 -0.3720
  154SAPE  H12A17057   2.467   4.362   5.834 -1.0952  0.9706 -2.1797
  154SAPE  H12B17058   2.314   4.445   5.791  1.6775 -0.1497 -2.3672
  154SAPE   C1117059   2.286   4.291   5.943 -0.1833 -0.1374  0.4272
  154SAPE  H11A17060   2.359   4.220   5.987 -1.7676 -2.1389 -0.0979
  154SAPE  H11B17061   2.235   4.236   5.861 -0.1237  0.5681 -0.0876
  154SAPE     P17062   2.157   4.266   6.157 -0.1064 -0.1552 -0.3396
  154SAPE   O1317063   2.149   4.126   6.122  0.0594  0.2808  0.6324
  154SAPE   O1417064   2.256   4.300   6.265  0.7348  0.1567  0.4355
  154SAPE   O1217065   2.194   4.352   6.035 -0.7128  0.2487 -0.5011
  154SAPE   O1117066   2.007   4.314   6.198  0.3479 -0.9200 -0.0244
  154SAPE    C117067   1.987   4.443   6.260 -0.1069 -0.2214 -0.0210
  154SAPE    HA17068   2.078   4.505   6.247 -1.0199  0.9636 -0.9226
  154SAPE    HB17069   1.902   4.494   6.209 -1.5895 -1.5588  1.0819
  154SAPE    C217070   1.958   4.429   6.412 -0.2795  0.9774  0.2291
  154SAPE    HS17071   1.919   4.522   6.458  1.1671  1.2390  0.9677
  154SAPE   O2117072   2.066   4.387   6.487 -0.2194  0.2262 -0.7115
  154SAPE   C2117073   2.155   4.478   6.517 -0.2837 -0.0078 -0.1187
  154SAPE   O2217074   2.143   4.599   6.491  0.1166 -0.3669 -0.5200
  154SAPE   C2217075   2.274   4.427   6.588 -0.0363 -0.2425  0.5616
  154SAPE   H2R17076   2.243   4.363   6.674 -1.4321 -0.2275  0.0886
  154SAPE   H2S17077   2.337   4.362   6.524 -0.7452 -0.4126  0.0233
  154SAPE    C317078   1.840   4.330   6.433 -0.2002  0.8974 -0.1698
  154SAPE    HX17079   1.845   4.251   6.355 -1.6342  0.0553  0.5650
  154SAPE    HY17080   1.755   4.397   6.406 -1.3144  0.7390  2.7445
  154SAPE   O3117081   1.826   4.278   6.574  0.6511  0.3256 -1.1741
  154SAPE   C3117082   1.875   4.159   6.591  0.4065  0.0205 -0.1574
  154SAPE   O3217083   1.896   4.076   6.505 -0.3955 -0.0122 -0.3881
  154SAPE   C3217084   1.893   4.120   6.742  0.5869  0.1874  0.4136
  154SAPE   H2X17085   1.890   4.214   6.801  0.5267  0.2998  0.2342
  154SAPE   H2Y17086   1.980   4.053   6.752  0.1525 -0.4346  0.0693
  154SAPE   C2317087   2.360   4.536   6.646 -0.0568  0.6155 -0.9033
  154SAPE   H3R17088   2.300   4.621   6.686 -0.5885  1.2283 -2.9551
  154SAPE   H3S17089   2.410   4.572   6.554  0.8287 -0.5287 -0.8799
  154SAPE   C2417090   2.460   4.479   6.740 -0.1229 -0.0641 -0.2496
  154SAPE   H4R17091   2.496   4.382   6.698 -0.0269  0.4187 -1.3033
  154SAPE   H4S17092   2.417   4.458   6.840 -1.7765  0.1670 -0.8908
  154SAPE   C2517093   2.585   4.573   6.748 -0.4889 -0.5156  0.4654
  154SAPE   H5R17094   2.655   4.561   6.664  1.7274  0.3335  2.1507
  154SAPE   C2617095   2.623   4.663   6.840  0.0921  0.2621  0.0453
  154SAPE   H6R17096   2.716   4.720   6.830  0.7388 -0.7980  0.0269
  154SAPE   C2717097   2.552   4.700   6.968 -0.0765  0.7279 -0.1570
  154SAPE   H7R17098   2.443   4.694   6.947 -0.4071 -0.2485  1.7014
  154SAPE   H7S17099   2.563   4.806   6.997  2.2824  0.0744  1.5151
  154SAPE   C2817100   2.588   4.606   7.080  0.0101 -0.1186  0.4103
  154SAPE   H8R17101   2.639   4.515   7.044  1.3723  0.4065  0.9786
  154SAPE   C2917102   2.582   4.615   7.212  0.1883  0.3256  0.3026
  154SAPE   H9R17103   2.612   4.527   7.271  1.2283  1.7545  1.9610
  154SAPE  C21017104   2.521   4.731   7.284  0.8057  0.4470 -0.4285
  154SAPE  H10R17105   2.436   4.696   7.347 -0.2703  2.5702 -0.6433
  154SAPE  H10S17106   2.470   4.802   7.215  0.7092 -0.5385 -1.3778
  154SAPE  C21117107   2.635   4.795   7.361  0.5088  0.2257 -0.5736
  154SAPE  H11R17108   2.719   4.822   7.297  1.4836 -0.6994  0.2899
  154SAPE  C21217109   2.649   4.814   7.496  0.7419 -0.4811 -0.1745
  154SAPE  H12R17110   2.744   4.857   7.531 -1.3261  1.4208  3.4473
  154SAPE  C21317111   2.557   4.770   7.608  0.9382  0.1547  0.3709
  154SAPE  H13R17112   2.464   4.726   7.566  0.6084  0.8843  0.3287
  154SAPE  H13S17113   2.536   4.859   7.671  2.8637  0.1825  1.0062
  154SAPE  C21417114   2.611   4.666   7.700 -0.0169 -0.3629 -0.1774
  154SAPE  H14R17115   2.695   4.614   7.652  1.0310  3.0713 -2.2798
  154SAPE  C21517116   2.555   4.637   7.823 -0.3598  0.5289 -0.0393
  154SAPE  H15R17117   2.601   4.565   7.892  0.0103  1.4107  0.6403
  154SAPE  C21617118   2.423   4.687   7.864  0.8252  0.1403  0.2419
  154SAPE  H16R17119   2.374   4.608   7.925 -1.2357  0.9774 -0.2652
  154SAPE  H16S17120   2.355   4.715   7.781  0.6796 -1.3565 -0.1584
  154SAPE  C21717121   2.441   4.809   7.956  0.1278 -0.6450  0.6454
  154SAPE  H17R17122   2.467   4.895   7.891 -2.4037 -0.5440 -0.3035
  154SAPE  H17S17123   2.518   4.784   8.032  0.7886  0.0527  0.2175
  154SAPE  C21817124   2.312   4.833   8.029 -0.5002 -0.2218 -0.4851
  154SAPE  H18R17125   2.226   4.817   7.961 -0.4372 -0.8192 -0.4186
  154SAPE  H18S17126   2.300   4.941   8.053 -0.8053 -0.1372 -0.9993
  154SAPE  C21917127   2.286   4.749   8.150 -0.0727 -0.5798 -0.3211
  154SAPE  H19R17128   2.358   4.776   8.230  0.6825 -4.0682  0.2422
  154SAPE  H19S17129   2.300   4.643   8.119  0.0211 -0.6059 -0.1859
  154SAPE  C22017130   2.141   4.755   8.193  0.5041 -0.6683 -0.3667
  154SAPE  H20R17131   2.093   4.855   8.206  2.3614  0.3510 -1.2283
  154SAPE  H20S17132   2.130   4.696   8.286  3.1736  0.6121  0.8249
  154SAPE  H20T17133   2.063   4.716   8.124 -0.6853  2.3926 -0.8326
  154SAPE   C3317134   1.785   4.024   6.795  0.1626 -0.3659 -0.2746
  154SAPE   H3X17135   1.809   3.976   6.892  2.6402 -0.3923 -0.8487
  154SAPE   H3Y17136   1.782   3.933   6.730  0.1945 -0.5678  0.0085
  154SAPE   C3417137   1.652   4.101   6.816 -0.5627 -0.5115 -0.1630
  154SAPE   H4X17138   1.631   4.150   6.718 -1.1978 -0.2865  0.0776
  154SAPE   H4Y17139   1.666   4.165   6.906  1.7495 -0.3813 -0.5978
  154SAPE   C3517140   1.529   4.007   6.836 -0.1277 -0.2176 -0.0221
  154SAPE   H5X17141   1.517   3.943   6.746  0.2803  0.3939 -0.5162
  154SAPE   H5Y17142   1.434   4.064   6.838 -0.5636 -0.9331 -0.1796
  154SAPE   C3617143   1.548   3.909   6.959  0.4123  0.7589 -0.0549
  154SAPE   H6X17144   1.641   3.851   6.943  0.8479  1.1855  0.8606
  154SAPE   H6Y17145   1.455   3.848   6.961  2.1087 -1.8650  1.3738
  154SAPE   C3717146   1.551   3.980   7.101 -0.1172  1.0556 -0.4957
  154SAPE   H7X17147   1.625   4.063   7.101 -1.5619  2.3617  1.2894
  154SAPE   H7Y17148   1.580   3.898   7.171 -2.3552  0.9686  0.3723
  154SAPE   C3817149   1.417   4.023   7.157  0.6166 -0.2967 -0.4092
  154SAPE   H8X17150   1.341   3.942   7.156  1.8582 -1.4586 -1.7628
  154SAPE   H8Y17151   1.372   4.101   7.091  1.1608  2.4846  2.3654
  154SAPE   C3917152   1.433   4.084   7.300  0.1366  0.3742  0.4998
  154SAPE   H9X17153   1.336   4.136   7.317 -0.5322 -0.5697 -0.3686
  154SAPE   H9Y17154   1.501   4.172   7.297  0.6476 -0.0665 -2.0420
  154SAPE  C31017155   1.471   3.991   7.406 -0.2568 -0.0321  0.1472
  154SAPE  H10X17156   1.573   3.947   7.399 -0.6554 -0.5193 -3.1586
  154SAPE  H10Y17157   1.400   3.906   7.401 -1.6887  1.1388  0.3482
  154SAPE  C31117158   1.458   4.053   7.541  0.2444 -0.4734  0.3483
  154SAPE  H11X17159   1.357   4.098   7.547 -0.1456 -1.2034 -0.6142
  154SAPE  H11Y17160   1.520   4.145   7.553 -0.0084 -0.1079 -1.0342
  154SAPE  C31217161   1.479   3.954   7.654 -0.4627 -0.0641 -1.1556
  154SAPE  H12X17162   1.575   3.899   7.653 -0.9272 -1.0632  1.9962
  154SAPE  H12Y17163   1.410   3.868   7.639  0.7166 -0.7973 -2.4679
  154SAPE  C31317164   1.453   4.016   7.791 -0.4470  0.9500 -0.0548
  154SAPE  H13X17165   1.371   4.088   7.773 -1.8912 -0.6299  0.0427
  154SAPE  H13Y17166   1.545   4.072   7.818  0.1775  0.4247 -1.0744
  154SAPE  C31417167   1.423   3.912   7.898 -0.1713 -0.4229  0.2539
  154SAPE  H14X17168   1.509   3.841   7.897  0.0681 -0.1687  1.9216
  154SAPE  H14Y17169   1.339   3.843   7.875 -0.1832 -0.0742 -0.7909
  154SAPE  C31517170   1.395   3.971   8.041 -0.3111 -0.4145 -0.0965
  154SAPE  H15X17171   1.307   4.039   8.032 -0.1354 -0.3743 -1.5395
  154SAPE  H15Y17172   1.482   4.032   8.072  0.0148 -0.9583  0.0604
  154SAPE  C31617173   1.372   3.866   8.146  0.0271  0.6458  0.8154
  154SAPE  H16X17174   1.469   3.813   8.159  0.0274  0.3890 -0.1582
  154SAPE  H16Y17175   1.307   3.789   8.100 -0.0906  0.9002  0.5526
  154SAPE  C31717176   1.306   3.923   8.273  0.3586 -0.5020  0.1237
  154SAPE  H17X17177   1.197   3.942   8.261  0.7283  0.7901 -1.2056
  154SAPE  H17Y17178   1.352   4.020   8.299 -1.0704  0.3596 -0.5069
  154SAPE  C31817179   1.327   3.827   8.397 -0.7674 -0.0535 -0.8222
  154SAPE  H18X17180   1.430   3.836   8.436 -1.5044  1.4623  0.8388
  154SAPE  H18Y17181   1.299   3.723   8.372  2.7647 -1.2388 -0.0060
  154SAPE  H18Z17182   1.261   3.850   8.484  1.0457 -1.3790  0.9313
  155SAPE     N17183   2.194   5.929   6.594 -0.3392 -0.4079 -0.1843
  155SAPE   HN117184   2.265   5.873   6.543  2.1757  0.1867  2.5581
  155SAPE   HN217185   2.227   6.026   6.579 -1.5825  0.1198  0.4033
  155SAPE   HN317186   2.196   5.911   6.697  2.0769 -0.0830 -0.1581
  155SAPE   C1217187   2.050   5.891   6.540 -0.2145  0.3329 -0.5294
  155SAPE  H12A17188   2.057   5.925   6.435 -0.0784  2.1432  0.0522
  155SAPE  H12B17189   1.976   5.936   6.611 -0.3191 -2.4682  1.2318
  155SAPE   C1117190   2.031   5.742   6.554  0.2232  0.4318  0.0371
  155SAPE  H11A17191   1.924   5.728   6.529  0.6132 -1.7933 -0.5120
  155SAPE  H11B17192   2.031   5.707   6.660 -1.3387  0.8025  0.1649
  155SAPE     P17193   2.092   5.598   6.345 -0.5517 -0.2778  0.1924
  155SAPE   O1317194   1.966   5.658   6.290 -0.1178 -0.2894 -0.4438
  155SAPE   O1417195   2.219   5.602   6.264 -0.6329  0.1863  0.2982
  155SAPE   O1217196   2.128   5.667   6.482 -0.0120 -0.5105 -0.2838
  155SAPE   O1117197   2.064   5.446   6.366 -0.1038 -0.1139  0.6479
  155SAPE    C117198   1.992   5.385   6.472  0.3259 -0.3714  0.5711
  155SAPE    HA17199   1.903   5.450   6.485 -0.4690 -1.1593 -0.9907
  155SAPE    HB17200   1.957   5.283   6.448 -1.0063  0.1967  0.0923
  155SAPE    C217201   2.061   5.383   6.606 -0.5240 -0.1544  0.5031
  155SAPE    HS17202   2.137   5.464   6.605 -3.1830  2.3844 -1.1442
  155SAPE   O2117203   2.125   5.250   6.631 -0.0607 -0.3310  0.2717
  155SAPE   C2117204   2.237   5.266   6.702  0.3598  0.5287  0.4530
  155SAPE   O2217205   2.287   5.367   6.747 -0.2502 -0.0404  0.0508
  155SAPE   C2217206   2.299   5.124   6.724 -0.4570 -0.1833  0.1302
  155SAPE   H2R17207   2.298   5.078   6.623 -0.6916 -1.9556  0.9280
  155SAPE   H2S17208   2.405   5.130   6.758  0.5323 -1.2732 -2.6598
  155SAPE    C317209   1.961   5.421   6.721  0.1222  0.1321  0.7636
  155SAPE    HX17210   1.882   5.344   6.714  0.6445 -0.3247 -0.1622
  155SAPE    HY17211   1.926   5.522   6.692 -1.1680 -1.0188 -1.8194
  155SAPE   O3117212   2.012   5.423   6.854  0.0868  0.0942  0.2037
  155SAPE   C3117213   1.921   5.424   6.947 -0.5767 -0.5175 -0.1783
  155SAPE   O3217214   1.800   5.422   6.930  0.0167  0.1069  0.1244
  155SAPE   C3217215   1.978   5.454   7.084 -0.2321 -0.0967  0.5120
  155SAPE   H2X17216   2.031   5.552   7.088 -0.2961 -0.0679  0.6454
  155SAPE   H2Y17217   2.051   5.379   7.118  1.2146  1.0937  0.0991
  155SAPE   C2317218   2.215   5.030   6.807  0.0085  0.2378  0.2681
  155SAPE   H3R17219   2.264   4.930   6.811 -1.3950 -0.6837 -3.4339
  155SAPE   H3S17220   2.124   5.003   6.748  0.6227 -3.7453  1.0068
  155SAPE   C2417221   2.192   5.069   6.952  0.4350 -0.5625  0.2800
  155SAPE   H4R17222   2.124   4.998   7.003 -1.8236  2.7719  2.0717
  155SAPE   H4S17223   2.130   5.161   6.945 -0.4670 -1.2909 -1.8748
  155SAPE   C2517224   2.315   5.092   7.035  0.5335 -0.0108 -0.1764
  155SAPE   H5R17225   2.401   5.139   6.985  1.3666  0.6517  1.8454
  155SAPE   C2617226   2.322   5.051   7.165 -0.2299  0.2847 -0.2459
  155SAPE   H6R17227   2.410   5.081   7.224 -1.5475 -1.5453  2.8018
  155SAPE   C2717228   2.225   4.958   7.238 -0.3349 -0.1689  0.4790
  155SAPE   H7R17229   2.279   4.872   7.284 -2.4073 -1.0737  1.3009
  155SAPE   H7S17230   2.150   4.905   7.176 -0.9861  2.5602 -1.1323
  155SAPE   C2817231   2.147   5.044   7.331  0.4156 -0.2853 -0.0538
  155SAPE   H8R17232   2.087   5.110   7.267 -1.3855 -1.7353  0.0815
  155SAPE   C2917233   2.146   5.043   7.464 -0.1933 -0.0165 -0.3650
  155SAPE   H9R17234   2.092   5.129   7.506  0.6550  0.8369 -1.0093
  155SAPE  C21017235   2.227   4.958   7.563 -0.4668 -0.4781  0.3195
  155SAPE  H10R17236   2.285   4.877   7.514  1.6975 -0.0168  2.0335
  155SAPE  H10S17237   2.156   4.897   7.622 -1.6893  0.2991 -0.3202
  155SAPE  C21117238   2.308   5.057   7.644 -0.3208  0.2306  0.1169
  155SAPE  H11R17239   2.407   5.085   7.605 -0.2572 -0.1691 -0.0047
  155SAPE  C21217240   2.269   5.119   7.758 -0.5699 -0.0036  0.1916
  155SAPE  H12R17241   2.337   5.197   7.794  0.0731 -0.6703  0.4423
  155SAPE  C21317242   2.147   5.094   7.835 -0.0975 -0.5897 -0.2479
  155SAPE  H13R17243   2.172   5.032   7.924  0.2636 -1.6363 -1.0682
  155SAPE  H13S17244   2.085   5.024   7.776  1.0455 -1.2633 -0.6721
  155SAPE  C21417245   2.086   5.226   7.880 -0.6303 -1.0434 -0.4600
  155SAPE  H14R17246   2.031   5.278   7.801  1.3796 -0.6587 -1.6341
  155SAPE  C21517247   2.090   5.286   8.001 -0.5339 -0.0800 -0.0535
  155SAPE  H15R17248   2.035   5.378   8.026  1.8245  1.8286 -1.5276
  155SAPE  C21617249   2.159   5.231   8.117 -0.3764  0.4480  0.0461
  155SAPE  H16R17250   2.258   5.275   8.141 -0.4483  0.3470  0.5406
  155SAPE  H16S17251   2.178   5.122   8.109  0.0041  0.5827 -0.9891
  155SAPE  C21717252   2.068   5.230   8.242 -0.5998 -0.1934 -0.1589
  155SAPE  H17R17253   1.975   5.171   8.230 -2.1272  2.3978 -1.7050
  155SAPE  H17S17254   2.030   5.332   8.263 -1.5088 -0.8856  1.6148
  155SAPE  C21817255   2.152   5.181   8.367  0.5294  0.4697  0.2246
  155SAPE  H18R17256   2.249   5.231   8.347  0.0323  1.8315  1.1152
  155SAPE  H18S17257   2.167   5.071   8.369 -1.6514  0.1521  0.7655
  155SAPE  C21917258   2.106   5.244   8.498 -0.1730  0.3228 -0.8141
  155SAPE  H19R17259   2.005   5.220   8.536  0.5916  0.7371  1.5814
  155SAPE  H19S17260   2.110   5.355   8.488 -0.3583  0.1481 -3.1743
  155SAPE  C22017261   2.219   5.201   8.597 -0.1043  0.9013 -0.1741
  155SAPE  H20R17262   2.217   5.091   8.609 -0.4445  0.9063 -0.1985
  155SAPE  H20S17263   2.184   5.253   8.689 -1.0974  0.5812 -0.3660
  155SAPE  H20T17264   2.322   5.229   8.565 -0.5864  2.0237 -0.7720
  155SAPE   C3317265   1.866   5.468   7.184  0.6380 -0.1075 -0.2432
  155SAPE   H3X17266   1.792   5.386   7.176  1.2415 -0.6466 -0.2945
  155SAPE   H3Y17267   1.806   5.561   7.171  1.1161  0.0162 -1.6430
  155SAPE   C3417268   1.917   5.467   7.329 -0.2463 -0.0215 -0.7956
  155SAPE   H4X17269   1.960   5.569   7.327  2.3555 -1.0068  1.4691
  155SAPE   H4Y17270   2.006   5.402   7.344  1.0239  1.6402 -0.9926
  155SAPE   C3517271   1.818   5.448   7.440 -0.2188  0.0509  0.6296
  155SAPE   H5X17272   1.749   5.363   7.424 -0.9023  0.5012  1.1486
  155SAPE   H5Y17273   1.759   5.542   7.437  3.2356  2.3091 -0.2369
  155SAPE   C3617274   1.872   5.444   7.580 -0.4199 -0.1625  0.0549
  155SAPE   H6X17275   1.954   5.519   7.583  0.2324 -0.9239  1.3149
  155SAPE   H6Y17276   1.926   5.348   7.591 -0.3014 -0.1048 -0.0224
  155SAPE   C3717277   1.767   5.474   7.689 -0.3079  0.3080  0.4187
  155SAPE   H7X17278   1.694   5.392   7.674 -3.6301  2.8751  1.8148
  155SAPE   H7Y17279   1.713   5.568   7.664 -0.7106 -0.3361 -1.2153
  155SAPE   C3817280   1.819   5.488   7.829 -0.2116  0.9424 -0.4054
  155SAPE   H8X17281   1.847   5.592   7.854  1.5318  0.1722  0.9295
  155SAPE   H8Y17282   1.912   5.428   7.831  2.0291  4.3577  0.2605
  155SAPE   C3917283   1.713   5.444   7.928  0.3495 -0.2351 -0.0147
  155SAPE   H9X17284   1.691   5.337   7.905  0.0828  0.2546 -2.1121
  155SAPE   H9Y17285   1.611   5.485   7.911  0.5067  0.1480 -0.0398
  155SAPE  C31017286   1.755   5.472   8.071 -0.1119  0.5889 -0.5534
  155SAPE  H10X17287   1.755   5.582   8.087  1.2313  0.5893 -0.4965
  155SAPE  H10Y17288   1.857   5.438   8.097 -0.7367 -1.1600 -0.3112
  155SAPE  C31117289   1.648   5.417   8.166 -0.4435 -0.4851 -0.2884
  155SAPE  H11X17290   1.642   5.307   8.155  0.3629 -0.7848  2.0204
  155SAPE  H11Y17291   1.544   5.452   8.143 -0.1422 -0.3819 -1.5493
  155SAPE  C31217292   1.677   5.441   8.314  0.0361  0.5309 -0.1160
  155SAPE  H12X17293   1.773   5.386   8.325  0.5204  1.3073 -0.3887
  155SAPE  H12Y17294   1.593   5.392   8.368  0.4949  0.1618  0.2663
  155SAPE  C31317295   1.699   5.578   8.371 -0.1535 -0.0009 -0.2267
  155SAPE  H13X17296   1.599   5.610   8.408 -0.7223 -1.1778 -0.6996
  155SAPE  H13Y17297   1.723   5.649   8.289  1.6938 -1.2516 -0.7926
  155SAPE  C31417298   1.793   5.595   8.482  0.2870  0.3748  0.1798
  155SAPE  H14X17299   1.792   5.699   8.523 -1.3152  0.8493 -1.0190
  155SAPE  H14Y17300   1.898   5.578   8.449 -0.5644 -1.8209 -1.4783
  155SAPE  C31517301   1.754   5.496   8.598  0.2408  0.0195 -0.1151
  155SAPE  H15X17302   1.759   5.389   8.571  0.5041 -0.9530  3.5467
  155SAPE  H15Y17303   1.646   5.513   8.618 -0.0165 -0.6638 -0.8918
  155SAPE  C31617304   1.832   5.531   8.728 -0.0623 -0.2028 -0.2539
  155SAPE  H16X17305   1.772   5.504   8.818 -1.6802 -1.0521 -1.5754
  155SAPE  H16Y17306   1.825   5.642   8.731 -0.8053 -0.2530 -0.0801
  155SAPE  C31717307   1.972   5.476   8.722  0.1539 -0.4374 -0.4235
  155SAPE  H17X17308   2.013   5.505   8.623  1.2267  2.1532  0.7245
  155SAPE  H17Y17309   1.978   5.366   8.740  0.9031  0.0943  3.0306
  155SAPE  C31817310   2.059   5.540   8.836  0.4952  0.3516  0.7455
  155SAPE  H18X17311   2.054   5.651   8.841 -1.9271  0.3957 -1.2558
  155SAPE  H18Y17312   2.167   5.517   8.823  0.2458 -0.4633  0.0506
  155SAPE  H18Z17313   2.024   5.510   8.937  2.2320  0.5494  1.4283
  156SAPE     N17314   0.556   6.347   6.508 -0.1695 -0.2984  0.1556
  156SAPE   HN117315   0.613   6.313   6.428  1.3472  2.9279 -0.2160
  156SAPE   HN217316   0.515   6.430   6.460  2.4711  0.7666 -0.3887
  156SAPE   HN317317   0.629   6.370   6.578 -0.2455  0.8998 -0.1463
  156SAPE   C1217318   0.452   6.253   6.560 -0.0455 -0.4351  0.0637
  156SAPE  H12A17319   0.390   6.233   6.469 -1.7152 -0.8428  1.2698
  156SAPE  H12B17320   0.401   6.316   6.636  0.8172 -0.4952  0.6932
  156SAPE   C1117321   0.502   6.130   6.626 -0.8414  0.2295  0.8179
  156SAPE  H11A17322   0.414   6.067   6.652 -0.4761  0.3741  2.4346
  156SAPE  H11B17323   0.549   6.165   6.720  0.3295  1.6023 -0.2658
  156SAPE     P17324   0.740   6.022   6.563 -0.3601 -0.1200 -0.3585
  156SAPE   O1317325   0.794   5.926   6.466 -0.0863 -0.0169 -0.0259
  156SAPE   O1417326   0.813   6.147   6.581  0.5900  0.5099  0.1186
  156SAPE   O1217327   0.590   6.054   6.537 -0.2100 -0.2579  0.0298
  156SAPE   O1117328   0.744   5.960   6.710 -0.1134  0.3352 -0.4085
  156SAPE    C117329   0.672   5.833   6.735 -0.3075  0.3853  0.2979
  156SAPE    HA17330   0.581   5.823   6.673  0.7844  0.7495 -1.3870
  156SAPE    HB17331   0.732   5.743   6.710  0.7797  1.1250  0.1809
  156SAPE    C217332   0.626   5.813   6.882 -0.1808 -0.0555 -0.1667
  156SAPE    HS17333   0.565   5.899   6.917  0.6162  0.6199 -0.4165
  156SAPE   O2117334   0.749   5.795   6.955  0.3877  0.5909 -0.8087
  156SAPE   C2117335   0.766   5.887   7.050  0.0198  0.5636  0.2439
  156SAPE   O2217336   0.696   5.983   7.070 -0.4658  0.3224 -0.6412
  156SAPE   C2217337   0.881   5.839   7.145  0.3654 -0.4697  0.0306
  156SAPE   H2R17338   0.854   5.749   7.205 -2.8233  0.9351  0.8143
  156SAPE   H2S17339   0.955   5.803   7.071 -0.4695 -2.1007 -0.0298
  156SAPE    C317340   0.537   5.683   6.909  0.0193  0.4016  0.0850
  156SAPE    HX17341   0.595   5.590   6.888 -0.5645  0.3125 -1.1486
  156SAPE    HY17342   0.457   5.686   6.832  2.1676 -1.3353 -2.3173
  156SAPE   O3117343   0.496   5.690   7.042  0.2342 -0.4632 -0.4502
  156SAPE   C3117344   0.396   5.783   7.065 -0.5631 -0.7127  0.7047
  156SAPE   O3217345   0.355   5.860   6.983 -0.2803  0.6335 -0.6122
  156SAPE   C3217346   0.370   5.797   7.222 -0.3183 -0.1698  0.4918
  156SAPE   H2X17347   0.445   5.870   7.258 -0.1299 -0.4235  0.6081
  156SAPE   H2Y17348   0.385   5.698   7.271 -0.9505 -0.0452  0.9437
  156SAPE   C2317349   0.938   5.950   7.235 -0.5753  0.1928  0.2055
  156SAPE   H3R17350   0.860   5.972   7.311 -1.0947  0.0776 -0.2885
  156SAPE   H3S17351   0.967   6.036   7.172 -1.8804  0.4779 -0.0198
  156SAPE   C2417352   1.060   5.896   7.315 -0.5202 -0.3656 -0.1790
  156SAPE   H4R17353   1.094   5.988   7.368 -1.7478  0.6743 -1.1541
  156SAPE   H4S17354   1.143   5.855   7.254 -0.4174  1.0201 -1.0124
  156SAPE   C2517355   1.018   5.787   7.410  0.4050 -0.7551  0.3960
  156SAPE   H5R17356   1.015   5.684   7.371  0.1785 -0.7541  0.4115
  156SAPE   C2617357   0.971   5.811   7.539 -0.5470 -0.3424  0.3298
  156SAPE   H6R17358   0.948   5.722   7.599  1.2687 -0.3886  0.9753
  156SAPE   C2717359   0.949   5.940   7.623 -0.6065 -0.2532 -0.2725
  156SAPE   H7R17360   0.842   5.947   7.651 -0.8643 -2.8053 -0.4483
  156SAPE   H7S17361   0.977   6.033   7.568  0.0184 -1.8652 -2.7725
  156SAPE   C2817362   1.039   5.941   7.746  1.0193  0.5500 -0.6459
  156SAPE   H8R17363   1.139   5.988   7.737  2.3717 -1.7476  1.6670
  156SAPE   C2917364   1.012   5.896   7.868  0.2985 -0.6574  0.6685
  156SAPE   H9R17365   1.082   5.928   7.946 -1.6160  1.9473  1.3724
  156SAPE  C21017366   0.880   5.841   7.912 -0.2358 -0.1789 -0.1810
  156SAPE  H10R17367   0.897   5.765   7.991 -1.8615 -1.4945 -1.0643
  156SAPE  H10S17368   0.835   5.782   7.829 -1.3730  0.3643  0.0380
  156SAPE  C21117369   0.786   5.954   7.946 -0.7767 -0.0648  0.1917
  156SAPE  H11R17370   0.785   6.038   7.874  1.9495  0.4440  0.7201
  156SAPE  C21217371   0.708   5.964   8.052 -0.0343 -0.2987 -0.0039
  156SAPE  H12R17372   0.644   6.052   8.065  1.2883  1.0100 -2.0980
  156SAPE  C21317373   0.680   5.856   8.155 -0.2935  0.4499 -0.8872
  156SAPE  H13R17374   0.661   5.761   8.100 -1.1402 -0.1558  0.4371
  156SAPE  H13S17375   0.586   5.879   8.209 -0.1477 -1.2190  0.1063
  156SAPE  C21417376   0.797   5.834   8.248  0.1093  0.5194  0.3066
  156SAPE  H14R17377   0.891   5.827   8.191 -2.1990  2.2520 -3.9837
  156SAPE  C21517378   0.796   5.824   8.382  0.6388 -0.9258 -0.9922
  156SAPE  H15R17379   0.886   5.805   8.443  0.3958  0.3780 -0.1908
  156SAPE  C21617380   0.678   5.833   8.474 -0.3295 -0.0081  0.1016
  156SAPE  H16R17381   0.716   5.821   8.578  2.4272  0.8238 -0.7816
  156SAPE  H16S17382   0.611   5.748   8.447  2.4535 -1.0355 -4.0086
  156SAPE  C21717383   0.589   5.957   8.488  0.3454 -0.1599  0.5252
  156SAPE  H17R17384   0.541   5.963   8.388  2.1381 -4.5303 -0.7032
  156SAPE  H17S17385   0.653   6.048   8.497 -2.5927  2.0298  0.1899
  156SAPE  C21817386   0.489   5.960   8.605 -0.2261  0.6321  0.6780
  156SAPE  H18R17387   0.428   5.867   8.605 -1.8565  1.6297 -2.8027
  156SAPE  H18S17388   0.417   6.039   8.576  1.5079  1.1496 -2.4988
  156SAPE  C21917389   0.554   5.989   8.742  0.0005 -0.3939  0.2470
  156SAPE  H19R17390   0.606   6.086   8.728 -0.5669 -0.1695 -0.3364
  156SAPE  H19S17391   0.634   5.913   8.754 -0.1920 -0.3133  2.2970
  156SAPE  C22017392   0.458   5.981   8.864 -0.7667 -0.3735 -0.0948
  156SAPE  H20R17393   0.368   5.922   8.838 -2.5427  1.5828  1.4384
  156SAPE  H20S17394   0.420   6.079   8.900 -0.0742  0.3985 -1.4176
  156SAPE  H20T17395   0.498   5.916   8.944  0.6844 -0.5915 -0.9656
  156SAPE   C3317396   0.232   5.847   7.262  0.6230  0.5166 -0.4874
  156SAPE   H3X17397   0.209   5.943   7.211 -0.5142 -0.3930 -1.6981
  156SAPE   H3Y17398   0.239   5.873   7.370  2.6397  0.4255 -0.5695
  156SAPE   C3417399   0.111   5.752   7.239 -0.8909  0.2334 -0.7627
  156SAPE   H4X17400   0.157   5.656   7.271 -0.9508  1.0980  2.0517
  156SAPE   H4Y17401   0.097   5.741   7.129  3.1472 -0.4663 -1.3043
  156SAPE   C3517402  -0.024   5.800   7.300  0.2741  0.3310  0.5155
  156SAPE   H5X17403  -0.090   5.739   7.235 -0.0634 -0.9688  2.0614
  156SAPE   H5Y17404  -0.029   5.905   7.263 -0.6006 -0.4777 -1.7092
  156SAPE   C3617405  -0.034   5.800   7.448 -0.4309  0.3801 -0.0224
  156SAPE   H6X17406  -0.135   5.800   7.494 -0.2677  0.0051  0.3429
  156SAPE   H6Y17407   0.021   5.889   7.484 -0.8615  1.0872 -1.1007
  156SAPE   C3717408   0.046   5.678   7.516  0.3057 -0.3315  0.0061
  156SAPE   H7X17409   0.152   5.695   7.488 -0.1201  1.2532 -0.6595
  156SAPE   H7Y17410   0.014   5.581   7.471 -1.7518 -0.1068  0.9155
  156SAPE   C3817411   0.008   5.682   7.662 -0.6158  0.5497 -0.4478
  156SAPE   H8X17412  -0.085   5.735   7.689 -1.2114  0.8613 -2.9668
  156SAPE   H8Y17413   0.083   5.743   7.717  1.4020  0.3942 -2.8847
  156SAPE   C3917414   0.016   5.539   7.729 -0.4409 -0.6751 -0.4165
  156SAPE   H9X17415   0.117   5.530   7.775 -1.2290  1.0363  1.7247
  156SAPE   H9Y17416   0.008   5.467   7.645  2.2246  0.9620 -2.1487
  156SAPE  C31017417  -0.085   5.510   7.841 -0.1503  0.1970  0.2978
  156SAPE  H10X17418  -0.089   5.401   7.862 -0.4495  0.2878  0.7309
  156SAPE  H10Y17419  -0.180   5.544   7.795 -0.1435  0.2409  0.3148
  156SAPE  C31117420  -0.063   5.594   7.969  0.5339 -0.8084  0.1258
  156SAPE  H11X17421  -0.058   5.699   7.935 -0.4015 -1.1907 -1.2491
  156SAPE  H11Y17422   0.035   5.558   8.007  0.4965 -0.6825  0.3379
  156SAPE  C31217423  -0.159   5.590   8.090  0.4385  0.1392 -0.5965
  156SAPE  H12X17424  -0.103   5.643   8.170  0.4148  2.0364 -1.7978
  156SAPE  H12Y17425  -0.169   5.482   8.115  0.2616  0.3578  0.3066
  156SAPE  C31317426  -0.289   5.663   8.070  0.4853  0.1391 -0.1178
  156SAPE  H13X17427  -0.336   5.611   7.984  1.0337  0.1299 -0.4151
  156SAPE  H13Y17428  -0.271   5.769   8.040  1.2207  0.2686  0.7768
  156SAPE  C31417429  -0.383   5.631   8.193 -0.1355 -0.5227  0.0420
  156SAPE  H14X17430  -0.320   5.672   8.274 -0.3098  1.8297 -0.9564
  156SAPE  H14Y17431  -0.396   5.525   8.223  3.2825 -0.6964  1.1026
  156SAPE  C31517432  -0.516   5.701   8.197 -0.4953 -0.5200  0.0558
  156SAPE  H15X17433  -0.575   5.698   8.102  0.3191  1.5000 -0.5326
  156SAPE  H15Y17434  -0.496   5.810   8.209 -3.3380  0.1847 -1.0120
  156SAPE  C31617435  -0.601   5.663   8.325 -0.1506 -0.2799 -0.4519
  156SAPE  H16X17436  -0.535   5.678   8.413 -1.0637  1.4795 -0.0460
  156SAPE  H16Y17437  -0.638   5.558   8.325  0.2253 -0.4277 -2.3133
  156SAPE  C31717438  -0.720   5.764   8.332 -0.6067  0.3236  0.5923
  156SAPE  H17X17439  -0.778   5.732   8.242  0.4208  1.3028 -0.4364
  156SAPE  H17Y17440  -0.701   5.872   8.315 -0.2673  0.6074  2.6150
  156SAPE  C31817441  -0.810   5.758   8.449 -0.0756  0.1854 -0.4953
  156SAPE  H18X17442  -0.868   5.664   8.454  0.3692 -0.0408  0.4868
  156SAPE  H18Y17443  -0.884   5.841   8.454 -0.8798 -0.6435  2.2813
  156SAPE  H18Z17444  -0.752   5.771   8.543 -2.3362 -3.6733  1.5486
  157SAPE     N17445   4.446   6.645   6.122 -0.0616  0.4807 -0.4329
  157SAPE   HN117446   4.368   6.586   6.085  0.1440  0.2462 -0.4860
  157SAPE   HN217447   4.407   6.739   6.141 -1.4693  0.8480 -4.5721
  157SAPE   HN317448   4.510   6.659   6.042  0.9855 -2.2996 -0.1527
  157SAPE   C1217449   4.521   6.579   6.232  0.3024 -1.0271 -0.5907
  157SAPE  H12A17450   4.559   6.481   6.195  1.1770 -0.7205 -0.5161
  157SAPE  H12B17451   4.445   6.564   6.312  2.2548 -2.1749  1.1139
  157SAPE   C1117452   4.646   6.659   6.294  0.2392 -0.1398  0.3023
  157SAPE  H11A17453   4.699   6.586   6.358 -1.3647 -1.7823 -0.2082
  157SAPE  H11B17454   4.598   6.740   6.354  0.6591 -0.3606  0.9422
  157SAPE     P17455   4.894   6.696   6.193 -0.1689  0.4123 -0.1522
  157SAPE   O1317456   4.932   6.558   6.220 -0.4679 -0.3992 -0.2619
  157SAPE   O1417457   4.948   6.751   6.069 -0.2914 -0.5952  0.3574
  157SAPE   O1217458   4.734   6.709   6.186  0.1302 -0.1706  0.1879
  157SAPE   O1117459   4.925   6.796   6.315  0.3006  0.1082  0.1534
  157SAPE    C117460   4.899   6.933   6.280  0.1303  0.3861  0.1335
  157SAPE    HA17461   4.989   6.980   6.235 -0.2176  1.7302  0.8050
  157SAPE    HB17462   4.818   6.938   6.204 -0.4401 -2.1311  0.5215
  157SAPE    C217463   4.844   7.011   6.403 -0.3442 -0.3623 -0.0435
  157SAPE    HS17464   4.821   7.114   6.369 -2.0864 -0.2581  1.3432
  157SAPE   O2117465   4.942   7.008   6.511 -0.1738 -0.0817 -0.2586
  157SAPE   C2117466   4.941   7.106   6.595 -0.9466 -0.4336  0.5472
  157SAPE   O2217467   4.884   7.215   6.583 -0.3888 -0.4134 -0.0823
  157SAPE   C2217468   5.017   7.060   6.721 -0.0157  0.6434 -0.4365
  157SAPE   H2R17469   4.953   6.981   6.767  0.5221 -0.5206 -1.6490
  157SAPE   H2S17470   5.112   7.007   6.699 -1.2935 -0.4554 -3.5980
  157SAPE    C317471   4.717   6.944   6.454 -0.9999  0.0530 -0.6469
  157SAPE    HX17472   4.739   6.838   6.479 -3.2959 -0.0480  1.1549
  157SAPE    HY17473   4.649   6.947   6.366  0.0489  1.8669 -1.4118
  157SAPE   O3117474   4.655   7.014   6.560 -0.3329  0.0460 -0.3440
  157SAPE   C3117475   4.585   7.119   6.524  0.1879 -0.7006  0.1734
  157SAPE   O3217476   4.583   7.165   6.410  0.3611 -0.0280  0.0413
  157SAPE   C3217477   4.511   7.182   6.641 -0.6107 -0.4187 -0.2472
  157SAPE   H2X17478   4.519   7.122   6.735 -1.3798  0.5565  0.4519
  157SAPE   H2Y17479   4.403   7.171   6.618 -1.1657  0.9090  1.6173
  157SAPE   C2317480   5.033   7.168   6.825  0.0393 -0.2672 -0.0228
  157SAPE   H3R17481   4.933   7.201   6.862 -0.8043 -1.7560 -0.9083
  157SAPE   H3S17482   5.084   7.255   6.780  0.0748  0.5815  1.6218
  157SAPE   C2417483   5.108   7.126   6.958  0.2535 -0.3240 -0.3578
  157SAPE   H4R17484   5.078   7.192   7.042  1.2097 -0.2115 -0.0995
  157SAPE   H4S17485   5.216   7.146   6.945  0.5285 -1.4213  0.1987
  157SAPE   C2517486   5.105   6.980   6.998 -0.4279 -0.4993 -0.1711
  157SAPE   H5R17487   5.137   6.907   6.923 -0.8657 -2.9646  1.9863
  157SAPE   C2617488   5.063   6.933   7.115  0.4690  0.1377 -0.1237
  157SAPE   H6R17489   5.068   6.826   7.139 -1.2030 -0.0764 -0.6742
  157SAPE   C2717490   5.006   7.011   7.231  0.2272  0.6884  0.2545
  157SAPE   H7R17491   5.082   7.078   7.277  0.9641  0.9512 -1.3123
  157SAPE   H7S17492   4.989   6.931   7.306  0.2335  0.8145  0.3922
  157SAPE   C2817493   4.881   7.080   7.206  0.5871 -0.2851  0.4235
  157SAPE   H8R17494   4.821   7.045   7.120 -0.6162 -1.3817  1.6976
  157SAPE   C2917495   4.843   7.202   7.260  0.1630  0.4708  0.2340
  157SAPE   H9R17496   4.763   7.254   7.206 -0.4159 -1.0770 -0.4287
  157SAPE  C21017497   4.918   7.279   7.365 -0.1471 -0.7628 -0.2072
  157SAPE  H10R17498   5.005   7.320   7.311 -0.0730  1.8525  1.8038
  157SAPE  H10S17499   4.951   7.196   7.431 -2.0257 -0.4448  1.1699
  157SAPE  C21117500   4.829   7.381   7.422 -0.6552 -0.0796  0.1953
  157SAPE  H11R17501   4.816   7.472   7.362 -1.6028 -0.2449  0.1469
  157SAPE  C21217502   4.775   7.389   7.544 -0.5528 -0.6268  0.6720
  157SAPE  H12R17503   4.705   7.470   7.569 -0.9611 -0.5771 -0.6360
  157SAPE  C21317504   4.784   7.280   7.650 -0.2395  0.2769  0.2400
  157SAPE  H13R17505   4.887   7.238   7.643  0.3304  1.6257  0.4693
  157SAPE  H13S17506   4.708   7.201   7.631 -1.7434  1.7413  0.1160
  157SAPE  C21417507   4.754   7.319   7.799  0.2261 -0.1311  0.0173
  157SAPE  H14R17508   4.712   7.420   7.813  1.3115  0.1782  1.0318
  157SAPE  C21517509   4.797   7.258   7.915 -0.5999 -0.0030  0.3128
  157SAPE  H15R17510   4.782   7.306   8.013  0.5567 -0.4519  0.7149
  157SAPE  C21617511   4.882   7.131   7.912  0.4152 -0.9611 -0.0176
  157SAPE  H16R17512   4.904   7.112   7.805 -1.8490 -0.7269 -0.5485
  157SAPE  H16S17513   4.814   7.050   7.947  1.4798 -0.5714  3.1163
  157SAPE  C21717514   5.013   7.126   7.994  0.8253 -0.1368 -0.1417
  157SAPE  H17R17515   5.074   7.216   7.975  2.2089 -0.6980  1.4508
  157SAPE  H17S17516   5.069   7.034   7.967  0.0545 -0.3075 -1.1506
  157SAPE  C21817517   4.996   7.138   8.148  0.1781  0.8039  0.1136
  157SAPE  H18R17518   4.944   7.235   8.165 -2.1982 -0.7402  2.0653
  157SAPE  H18S17519   5.096   7.126   8.193 -0.2076 -4.3016 -0.1404
  157SAPE  C21917520   4.913   7.029   8.214  0.1478 -0.1362  0.6176
  157SAPE  H19R17521   4.968   6.934   8.198 -1.3617 -1.0671  0.9293
  157SAPE  H19S17522   4.814   7.009   8.168  0.6257  0.3649 -0.6295
  157SAPE  C22017523   4.892   7.062   8.359  0.0343  0.0539  0.3190
  157SAPE  H20R17524   4.889   6.972   8.425  2.2206 -0.3138 -0.0396
  157SAPE  H20S17525   4.810   7.137   8.367 -0.6407 -0.5035 -1.2602
  157SAPE  H20T17526   4.980   7.119   8.396  0.9900 -0.1655 -1.5898
  157SAPE   C3317527   4.565   7.327   6.653  0.0908 -0.1443  0.0245
  157SAPE   H3X17528   4.549   7.393   6.564 -0.7591 -1.6278 -0.9388
  157SAPE   H3Y17529   4.671   7.331   6.686  0.9640  0.0617 -2.6386
  157SAPE   C3417530   4.486   7.414   6.750 -0.0807  0.2372 -0.3276
  157SAPE   H4X17531   4.378   7.393   6.740 -0.1132  0.5852 -0.7079
  157SAPE   H4Y17532   4.511   7.520   6.727  0.5379  0.3572  0.8199
  157SAPE   C3517533   4.527   7.392   6.898  0.0694  0.2410 -0.0702
  157SAPE   H5X17534   4.638   7.399   6.906  0.1255  0.2622 -0.8814
  157SAPE   H5Y17535   4.515   7.283   6.917 -1.4254  0.7035  1.8494
  157SAPE   C3617536   4.459   7.483   7.001  0.1814  0.5142  0.5254
  157SAPE   H6X17537   4.351   7.473   6.980  0.3009 -1.3401  0.6984
  157SAPE   H6Y17538   4.493   7.588   6.985 -0.3760  0.5592 -0.3611
  157SAPE   C3717539   4.493   7.431   7.137  0.2661 -0.3472 -0.1665
  157SAPE   H7X17540   4.600   7.455   7.157  0.1592 -0.5786  0.6929
  157SAPE   H7Y17541   4.493   7.321   7.151  3.3436 -0.2897  0.5497
  157SAPE   C3817542   4.405   7.500   7.243 -0.5300 -0.0319 -0.2655
  157SAPE   H8X17543   4.298   7.473   7.226 -0.7196  0.1461  0.6513
  157SAPE   H8Y17544   4.416   7.610   7.236 -2.2029  0.1094 -1.0256
  157SAPE   C3917545   4.443   7.450   7.383 -0.5948 -0.6045  0.1415
  157SAPE   H9X17546   4.549   7.477   7.403  0.0796 -2.5193 -0.7898
  157SAPE   H9Y17547   4.461   7.341   7.383  0.7190 -0.3886 -0.0737
  157SAPE  C31017548   4.339   7.477   7.497 -0.0867 -0.3461 -0.2812
  157SAPE  H10X17549   4.235   7.447   7.471 -0.0085 -1.0118  0.1635
  157SAPE  H10Y17550   4.359   7.580   7.533  2.6028 -1.4274  1.5132
  157SAPE  C31117551   4.373   7.380   7.614 -0.1218 -0.5618  0.3597
  157SAPE  H11X17552   4.482   7.384   7.635  0.1985  0.5427 -1.4070
  157SAPE  H11Y17553   4.348   7.279   7.576 -1.1259 -0.1644 -0.0479
  157SAPE  C31217554   4.292   7.409   7.738  0.2238 -0.1092  0.0838
  157SAPE  H12X17555   4.325   7.342   7.821 -2.6378 -1.0902  0.4740
  157SAPE  H12Y17556   4.182   7.393   7.734  0.2033 -0.4297  1.7890
  157SAPE  C31317557   4.315   7.548   7.799  0.0789 -0.6769 -0.2863
  157SAPE  H13X17558   4.290   7.625   7.724 -0.6675 -1.4680 -0.8560
  157SAPE  H13Y17559   4.421   7.558   7.831  0.3329 -1.6898 -0.7799
  157SAPE  C31417560   4.219   7.575   7.914  0.9497 -0.6786 -0.3606
  157SAPE  H14X17561   4.122   7.526   7.887 -0.2628  1.2845  0.3503
  157SAPE  H14Y17562   4.197   7.684   7.911 -1.6449 -1.1664 -0.6877
  157SAPE  C31517563   4.283   7.539   8.045  0.3180  0.3773 -1.0230
  157SAPE  H15X17564   4.373   7.600   8.065 -0.4808  1.0517  0.5703
  157SAPE  H15Y17565   4.318   7.435   8.039 -0.4003  0.1817 -2.1356
  157SAPE  C31617566   4.193   7.558   8.174  0.1432  0.3401  0.0641
  157SAPE  H16X17567   4.122   7.473   8.161 -0.3851  0.7222  0.4712
  157SAPE  H16Y17568   4.142   7.655   8.157 -1.3918 -0.1382  1.7806
  157SAPE  C31717569   4.269   7.585   8.309 -0.9160 -0.8242 -0.1119
  157SAPE  H17X17570   4.328   7.501   8.350 -1.2422 -0.3959  1.2428
  157SAPE  H17Y17571   4.191   7.615   8.382 -1.9068 -0.8053 -1.1568
  157SAPE  C31817572   4.368   7.703   8.312 -0.0665 -0.2027  0.2531
  157SAPE  H18X17573   4.440   7.695   8.228  0.0792  0.8479  0.2712
  157SAPE  H18Y17574   4.435   7.700   8.401  0.2480  0.4762  0.0393
  157SAPE  H18Z17575   4.310   7.798   8.307  0.2959  0.0787  1.1621
  158SAPE     N17576   6.309   5.288   6.090  0.1127  0.1901 -0.3349
  158SAPE   HN117577   6.254   5.339   6.018 -0.5105  1.0521  0.7496
  158SAPE   HN217578   6.300   5.185   6.079  0.4107  0.0856  0.3634
  158SAPE   HN317579   6.264   5.322   6.178 -0.2461  0.1007 -0.4833
  158SAPE   C1217580   6.450   5.320   6.064 -0.2636 -0.1990  0.0785
  158SAPE  H12A17581   6.462   5.278   5.962 -0.7689  0.4770 -0.2648
  158SAPE  H12B17582   6.513   5.276   6.144 -1.8307  0.4549  1.7163
  158SAPE   C1117583   6.466   5.471   6.059 -0.2681  0.2281 -0.6531
  158SAPE  H11A17584   6.402   5.517   5.981  0.9391 -0.0031 -1.7957
  158SAPE  H11B17585   6.569   5.503   6.032 -0.4958  0.8486 -0.7763
  158SAPE     P17586   6.500   5.592   6.286 -0.1528  0.0037 -0.0303
  158SAPE   O1317587   6.589   5.492   6.351 -0.2221  0.6798 -0.3531
  158SAPE   O1417588   6.564   5.713   6.228 -0.0848  0.1384  0.7096
  158SAPE   O1217589   6.410   5.527   6.180  0.3020 -0.6418  0.3161
  158SAPE   O1117590   6.389   5.645   6.385 -0.0745 -0.5191  0.2016
  158SAPE    C117591   6.272   5.576   6.423  0.2390  0.3506  0.0737
  158SAPE    HA17592   6.210   5.652   6.475  0.8484  0.6939  0.3038
  158SAPE    HB17593   6.211   5.537   6.338 -0.1665  0.6593  0.2217
  158SAPE    C217594   6.306   5.464   6.522  0.4602 -0.0175 -0.0515
  158SAPE    HS17595   6.394   5.504   6.577  0.6636  1.5781 -1.4888
  158SAPE   O2117596   6.349   5.341   6.451 -0.1568  0.2585  0.0757
  158SAPE   C2117597   6.423   5.256   6.524 -0.1822 -0.5945  0.3877
  158SAPE   O2217598   6.456   5.272   6.639 -0.4849  0.1478 -0.6375
  158SAPE   C2217599   6.444   5.133   6.430 -0.1597 -0.5059  0.1591
  158SAPE   H2R17600   6.348   5.092   6.393 -0.0964  0.3304 -0.9283
  158SAPE   H2S17601   6.500   5.166   6.340  1.3824 -0.9030  0.9443
  158SAPE    C317602   6.190   5.431   6.612 -0.0106 -0.4558 -0.1784
  158SAPE    HX17603   6.209   5.333   6.662  0.2614 -0.1439  0.3342
  158SAPE    HY17604   6.106   5.408   6.544 -0.9921  0.4497  0.7117
  158SAPE   O3117605   6.148   5.536   6.706 -0.2443  0.4980  0.4340
  158SAPE   C3117606   6.214   5.540   6.823 -0.0593 -0.5763  0.0722
  158SAPE   O3217607   6.291   5.452   6.857  0.2039 -0.0815  0.8583
  158SAPE   C3217608   6.172   5.660   6.905  0.5491  0.4590 -0.3354
  158SAPE   H2X17609   6.063   5.655   6.924  0.8120 -2.1307  0.8007
  158SAPE   H2Y17610   6.188   5.754   6.847  0.5972  0.6142 -0.0692
  158SAPE   C2317611   6.525   5.006   6.486  0.3114  0.1175 -0.0259
  158SAPE   H3R17612   6.591   5.036   6.570  0.6425 -0.1362 -0.1954
  158SAPE   H3S17613   6.587   4.955   6.409 -0.5488  0.5969 -1.0431
  158SAPE   C2417614   6.431   4.900   6.543  0.3293  0.5162  0.0789
  158SAPE   H4R17615   6.484   4.802   6.542 -0.7074 -0.0436 -0.1994
  158SAPE   H4S17616   6.350   4.883   6.469 -1.4571 -0.5138  2.2338
  158SAPE   C2517617   6.369   4.934   6.666  0.3677  0.6153  0.0728
  158SAPE   H5R17618   6.339   5.039   6.670 -0.6490  0.4854 -2.9124
  158SAPE   C2617619   6.357   4.852   6.776  0.2845 -0.1526 -0.5109
  158SAPE   H6R17620   6.324   4.890   6.874  0.9633 -0.1042 -0.2969
  158SAPE   C2717621   6.407   4.706   6.788  0.2123  0.8229  0.3195
  158SAPE   H7R17622   6.517   4.687   6.781  0.1343  0.6220 -0.3203
  158SAPE   H7S17623   6.376   4.655   6.694 -0.3744 -0.8013  1.3681
  158SAPE   C2817624   6.345   4.635   6.903 -0.0494 -0.3928 -0.1301
  158SAPE   H8R17625   6.235   4.628   6.894 -0.4351  3.4217  0.4540
  158SAPE   C2917626   6.403   4.599   7.023  0.1934  0.5348 -0.2551
  158SAPE   H9R17627   6.344   4.571   7.111  0.4792  1.4431  0.2376
  158SAPE  C21017628   6.552   4.614   7.061  1.0962 -0.4655  0.0071
  158SAPE  H10R17629   6.551   4.688   7.144  1.9159 -0.3696 -0.0659
  158SAPE  H10S17630   6.615   4.662   6.982  1.9754 -2.0170 -0.2418
  158SAPE  C21117631   6.613   4.491   7.116  0.2027  0.6667 -0.0584
  158SAPE  H11R17632   6.643   4.417   7.040  0.8614 -0.4828  1.2725
  158SAPE  C21217633   6.614   4.457   7.251 -1.0983  0.9553  0.3323
  158SAPE  H12R17634   6.665   4.365   7.281 -1.9278  0.3458 -0.1093
  158SAPE  C21317635   6.555   4.535   7.368  0.1862  0.0651  0.4632
  158SAPE  H13R17636   6.477   4.480   7.425 -1.6281  1.8618 -0.2197
  158SAPE  H13S17637   6.499   4.624   7.332 -1.6875 -1.2933 -0.0805
  158SAPE  C21417638   6.667   4.582   7.453 -0.1582  0.0268  0.1227
  158SAPE  H14R17639   6.732   4.658   7.406  1.1565  1.1805  3.6038
  158SAPE  C21517640   6.684   4.557   7.587 -0.0142 -0.0026  0.5391
  158SAPE  H15R17641   6.769   4.608   7.634  2.2201 -1.7499 -1.4711
  158SAPE  C21617642   6.592   4.461   7.669  0.0659  0.4767  0.4513
  158SAPE  H16R17643   6.484   4.471   7.645  0.0273 -1.2561 -0.1720
  158SAPE  H16S17644   6.607   4.493   7.774  2.5696 -0.7761  0.5048
  158SAPE  C21717645   6.623   4.317   7.662 -0.9987  0.2279 -0.0614
  158SAPE  H17R17646   6.734   4.310   7.673 -1.0692  1.3521  1.5064
  158SAPE  H17S17647   6.596   4.276   7.562 -0.1920  0.5047 -0.3967
  158SAPE  C21817648   6.554   4.233   7.772  0.4947  0.0707  0.4992
  158SAPE  H18R17649   6.450   4.230   7.733  0.9047 -2.6077 -0.5366
  158SAPE  H18S17650   6.549   4.281   7.872 -0.0686 -1.4879  1.2328
  158SAPE  C21917651   6.625   4.096   7.794  0.1151  0.3959 -0.1324
  158SAPE  H19R17652   6.707   4.105   7.868  0.7818  1.0373 -0.9354
  158SAPE  H19S17653   6.658   4.068   7.691 -0.4980  0.4488 -0.3466
  158SAPE  C22017654   6.525   3.998   7.850 -0.7520  0.7657 -0.1724
  158SAPE  H20R17655   6.573   3.898   7.850  2.4788  2.2284 -2.1503
  158SAPE  H20S17656   6.430   4.005   7.793 -0.4089 -3.9118 -1.5172
  158SAPE  H20T17657   6.508   4.023   7.957  0.5342 -0.0880  0.2479
  158SAPE   C3317658   6.260   5.664   7.033  0.0995  0.9785  0.3311
  158SAPE   H3X17659   6.241   5.766   7.073 -2.7159 -0.2005  2.1609
  158SAPE   H3Y17660   6.367   5.643   7.012 -0.4965 -1.3479 -0.6173
  158SAPE   C3417661   6.215   5.569   7.145 -0.1560  0.1564 -0.6022
  158SAPE   H4X17662   6.244   5.465   7.117 -1.1463 -0.7869  1.7313
  158SAPE   H4Y17663   6.104   5.568   7.152 -0.1758 -0.1568 -0.9677
  158SAPE   C3517664   6.288   5.608   7.279  0.8389 -0.5394 -0.3478
  158SAPE   H5X17665   6.273   5.717   7.296 -2.6872 -1.2082  1.2932
  158SAPE   H5Y17666   6.394   5.579   7.264  1.3751  0.7221  0.8791
  158SAPE   C3617667   6.229   5.528   7.394  0.3550  0.3912  0.4289
  158SAPE   H6X17668   6.256   5.422   7.372  2.1687  0.3180  2.8239
  158SAPE   H6Y17669   6.122   5.555   7.400 -0.0394 -0.1051 -3.3470
  158SAPE   C3717670   6.303   5.556   7.523 -0.8447  0.4401  0.2133
  158SAPE   H7X17671   6.409   5.526   7.510 -1.4168 -2.2736  1.4532
  158SAPE   H7Y17672   6.299   5.663   7.554 -1.3702  0.6594 -0.5777
  158SAPE   C3817673   6.251   5.468   7.641  0.4794  0.5315  1.0214
  158SAPE   H8X17674   6.274   5.361   7.623 -2.1376  0.2305 -0.8275
  158SAPE   H8Y17675   6.140   5.474   7.649  0.3910  3.3487 -1.3920
  158SAPE   C3917676   6.309   5.517   7.772 -0.5490  0.4238 -0.5788
  158SAPE   H9X17677   6.257   5.607   7.813  0.7479  0.5484  0.8715
  158SAPE   H9Y17678   6.415   5.548   7.755  0.4756  0.0413  4.2227
  158SAPE  C31017679   6.297   5.416   7.881  0.3889 -0.6461  0.4362
  158SAPE  H10X17680   6.357   5.445   7.970 -0.6939  0.8400  0.6975
  158SAPE  H10Y17681   6.335   5.322   7.833 -0.1750  0.3486 -2.0390
  158SAPE  C31117682   6.150   5.393   7.916  0.0144 -0.6101 -0.3527
  158SAPE  H11X17683   6.082   5.361   7.834  0.2954 -0.5534 -0.6039
  158SAPE  H11Y17684   6.103   5.489   7.946 -1.2152 -0.5277 -2.4485
  158SAPE  C31217685   6.131   5.302   8.039  0.5738 -0.0712 -0.7322
  158SAPE  H12X17686   6.178   5.342   8.132  2.0953 -2.4948 -0.4159
  158SAPE  H12Y17687   6.176   5.202   8.023  1.5144 -0.2014  2.3711
  158SAPE  C31317688   5.986   5.270   8.074  0.3090 -0.5511 -0.0029
  158SAPE  H13X17689   5.986   5.222   8.174 -3.5275 -1.7178 -0.5010
  158SAPE  H13Y17690   5.964   5.191   7.999 -0.6046  0.6738 -1.0493
  158SAPE  C31417691   5.886   5.390   8.057  0.3957  0.6653 -0.1064
  158SAPE  H14X17692   5.877   5.409   7.948  0.5152  0.0176 -0.2285
  158SAPE  H14Y17693   5.929   5.480   8.106  1.7990  0.6907 -1.3148
  158SAPE  C31517694   5.755   5.354   8.129 -0.3557 -0.5371 -0.1008
  158SAPE  H15X17695   5.763   5.338   8.239 -1.3908  0.4880  0.1409
  158SAPE  H15Y17696   5.692   5.277   8.079 -0.9882  1.1306 -1.9547
  158SAPE  C31617697   5.657   5.469   8.122 -0.1705  0.5322 -0.4360
  158SAPE  H16X17698   5.652   5.496   8.014 -2.5798 -2.1987 -1.0708
  158SAPE  H16Y17699   5.707   5.554   8.173  1.3654  0.1283 -1.2418
  158SAPE  C31717700   5.511   5.435   8.169  0.1213  1.3812  0.1229
  158SAPE  H17X17701   5.463   5.394   8.078 -0.7811  0.6350  0.9233
  158SAPE  H17Y17702   5.456   5.530   8.189  1.1162  2.5850 -2.6927
  158SAPE  C31817703   5.501   5.332   8.283  0.0918 -0.2951  0.0819
  158SAPE  H18X17704   5.396   5.336   8.319  0.5148  1.7106  1.1661
  158SAPE  H18Y17705   5.575   5.361   8.360 -0.7477  2.5703 -0.1384
  158SAPE  H18Z17706   5.521   5.229   8.246  0.0438  0.3609 -1.8162
  159SAPE     N17707   4.835   1.602   6.320  0.8005  0.0374  0.0036
  159SAPE   HN117708   4.838   1.528   6.247 -0.3639 -0.0338  0.0172
  159SAPE   HN217709   4.735   1.624   6.341  0.7314 -0.5127  0.2369
  159SAPE   HN317710   4.897   1.675   6.279  2.6004 -1.0428  0.7836
  159SAPE   C1217711   4.898   1.552   6.447 -0.4021 -0.0190 -0.2727
  159SAPE  H12A17712   4.849   1.456   6.476 -1.0600 -0.1942 -1.8777
  159SAPE  H12B17713   4.886   1.624   6.530 -0.5250  0.9458 -1.1204
  159SAPE   C1117714   5.043   1.528   6.423 -0.2255  0.3498 -0.6427
  159SAPE  H11A17715   5.098   1.493   6.512 -0.4424 -0.2321 -0.7359
  159SAPE  H11B17716   5.083   1.630   6.403 -0.2612  0.1711 -1.6548
  159SAPE     P17717   5.057   1.273   6.321 -0.2458 -0.2624  0.1142
  159SAPE   O1317718   4.919   1.223   6.341  0.0641  0.2649  0.0960
  159SAPE   O1417719   5.126   1.224   6.202  0.2174  0.5647 -0.2500
  159SAPE   O1217720   5.054   1.437   6.310 -0.5507  0.4394 -0.3432
  159SAPE   O1117721   5.146   1.265   6.452  0.8937  0.2335  0.3017
  159SAPE    C117722   5.285   1.308   6.451  0.3183  0.3073 -0.0129
  159SAPE    HA17723   5.342   1.293   6.357 -0.5768  0.9373 -0.6620
  159SAPE    HB17724   5.287   1.418   6.470  2.4340 -0.0461  2.0470
  159SAPE    C217725   5.383   1.233   6.547  0.6931  0.2046 -0.7860
  159SAPE    HS17726   5.396   1.135   6.497 -1.2342 -1.6312  2.1498
  159SAPE   O2117727   5.329   1.206   6.678 -0.4783 -0.3856  0.4970
  159SAPE   C2117728   5.311   1.304   6.753  0.3011 -0.0636 -0.1563
  159SAPE   O2217729   5.308   1.426   6.719  0.3668  0.2957  0.2816
  159SAPE   C2217730   5.295   1.264   6.893 -0.6846  0.0357  0.4821
  159SAPE   H2R17731   5.203   1.203   6.904 -1.2053  0.9618  1.3330
  159SAPE   H2S17732   5.386   1.212   6.930 -0.2789 -2.1420 -3.3667
  159SAPE    C317733   5.525   1.295   6.554 -0.0744 -0.0172 -0.4409
  159SAPE    HX17734   5.542   1.388   6.614  0.8156 -0.3991 -0.0825
  159SAPE    HY17735   5.544   1.324   6.448 -0.1834 -2.2990 -1.0987
  159SAPE   O3117736   5.626   1.197   6.581 -0.1269  0.2944  0.6211
  159SAPE   C3117737   5.687   1.201   6.694  0.0878 -0.1287 -0.1130
  159SAPE   O3217738   5.666   1.274   6.787 -0.0239  0.1303 -0.0469
  159SAPE   C3217739   5.792   1.084   6.702  0.0304  0.2047 -0.4388
  159SAPE   H2X17740   5.851   1.080   6.609  0.4630  2.9429 -0.3094
  159SAPE   H2Y17741   5.732   0.990   6.702  1.2133 -0.5724  0.7516
  159SAPE   C2317742   5.287   1.396   6.980 -0.0123 -0.0376  0.3475
  159SAPE   H3R17743   5.215   1.364   7.058  0.2237 -1.3014  0.0707
  159SAPE   H3S17744   5.238   1.482   6.930 -2.5345 -1.7834 -0.2796
  159SAPE   C2417745   5.423   1.430   7.037  0.7051  0.0335  1.4156
  159SAPE   H4R17746   5.417   1.529   7.085 -0.6534  0.6531  0.0178
  159SAPE   H4S17747   5.477   1.442   6.940 -0.3060 -0.1930  0.8227
  159SAPE   C2517748   5.503   1.348   7.132  0.4509  0.1798  0.6344
  159SAPE   H5R17749   5.589   1.299   7.085 -0.3195  0.1946 -0.8163
  159SAPE   C2617750   5.483   1.328   7.261 -0.3395  0.1028  0.0774
  159SAPE   H6R17751   5.559   1.265   7.310 -0.0535 -1.2409 -2.0138
  159SAPE   C2717752   5.367   1.374   7.354  0.4312  0.1527  0.1355
  159SAPE   H7R17753   5.305   1.444   7.295 -0.0773 -2.4855 -2.5316
  159SAPE   H7S17754   5.388   1.435   7.445  2.6441  0.2007 -0.3740
  159SAPE   C2817755   5.292   1.253   7.402  0.4954  0.6551 -0.5887
  159SAPE   H8R17756   5.231   1.208   7.323  0.8727 -0.6469 -0.1617
  159SAPE   C2917757   5.293   1.199   7.527 -0.3715 -0.0216 -0.4745
  159SAPE   H9R17758   5.225   1.115   7.548 -1.7979  0.3207 -3.4520
  159SAPE  C21017759   5.359   1.265   7.648  0.4961  0.2444 -0.3434
  159SAPE  H10R17760   5.299   1.352   7.683  0.4808  0.3295 -0.5796
  159SAPE  H10S17761   5.460   1.303   7.621 -0.1877  0.5279 -2.5833
  159SAPE  C21117762   5.365   1.171   7.768  0.4267  0.7893  0.5520
  159SAPE  H11R17763   5.439   1.092   7.749 -0.5024  0.3649 -1.4592
  159SAPE  C21217764   5.301   1.196   7.886 -0.3959 -0.0420  0.0004
  159SAPE  H12R17765   5.321   1.119   7.962  1.5424 -0.1092 -0.5671
  159SAPE  C21317766   5.207   1.308   7.930  0.1246 -0.3615 -0.4563
  159SAPE  H13R17767   5.134   1.277   8.008  0.9793 -0.3506  0.3417
  159SAPE  H13S17768   5.144   1.340   7.843 -0.8536  1.0814  0.7439
  159SAPE  C21417769   5.266   1.440   7.977  0.5665 -0.4346 -0.6124
  159SAPE  H14R17770   5.364   1.455   7.928  0.3666 -0.4149 -1.0135
  159SAPE  C21517771   5.225   1.534   8.064  0.0515 -0.5242 -0.0342
  159SAPE  H15R17772   5.293   1.619   8.083 -0.4132 -0.7241  2.6633
  159SAPE  C21617773   5.099   1.518   8.148  0.1777  0.0282  0.0951
  159SAPE  H16R17774   5.048   1.424   8.117  2.7008 -1.2633 -0.2635
  159SAPE  H16S17775   5.029   1.602   8.129  0.1587  0.2197  0.9737
  159SAPE  C21717776   5.143   1.506   8.295 -0.1255 -0.3113  0.4055
  159SAPE  H17R17777   5.213   1.592   8.305  0.1935 -0.8045  2.7087
  159SAPE  H17S17778   5.198   1.411   8.315 -0.5786 -0.4482  1.0361
  159SAPE  C21817779   5.038   1.538   8.401  0.5456  0.0602 -0.6641
  159SAPE  H18R17780   4.960   1.462   8.380 -0.0764 -0.2218  2.3930
  159SAPE  H18S17781   4.989   1.637   8.390  0.3183  0.2668  1.9140
  159SAPE  C21917782   5.095   1.528   8.542  0.6079 -0.0316  0.9245
  159SAPE  H19R17783   5.187   1.590   8.539  0.2042  0.5454 -0.0852
  159SAPE  H19S17784   5.135   1.426   8.558  2.9602  0.5949 -0.5759
  159SAPE  C22017785   5.003   1.569   8.657  0.1286 -0.5751  0.4493
  159SAPE  H20R17786   4.966   1.673   8.641 -0.7036 -0.8330  0.6532
  159SAPE  H20S17787   5.052   1.586   8.756 -0.0496  1.2092  0.2505
  159SAPE  H20T17788   4.918   1.498   8.655 -0.2722 -0.0711 -1.4810
  159SAPE   C3317789   5.883   1.097   6.821 -0.2507 -0.6115 -0.0929
  159SAPE   H3X17790   5.916   1.202   6.826  0.8903 -0.9064 -1.1885
  159SAPE   H3Y17791   5.967   1.026   6.804 -1.2546 -1.6599 -0.7826
  159SAPE   C3417792   5.827   1.040   6.958 -0.5185 -0.2598  0.3496
  159SAPE   H4X17793   5.791   0.936   6.943  1.3425 -1.1909  2.0248
  159SAPE   H4Y17794   5.732   1.092   6.980 -0.8488 -0.4555 -0.5821
  159SAPE   C3517795   5.921   1.062   7.085  0.1547 -0.2428  1.6638
  159SAPE   H5X17796   5.944   1.171   7.091 -2.1296  0.4148 -0.4933
  159SAPE   H5Y17797   6.019   1.016   7.060 -0.3075 -0.0061 -0.8045
  159SAPE   C3617798   5.875   0.999   7.214  0.4847  0.5671  0.1190
  159SAPE   H6X17799   5.839   0.897   7.189  2.2278  0.4453 -2.0683
  159SAPE   H6Y17800   5.788   1.056   7.254  0.3639 -0.0202  0.6920
  159SAPE   C3717801   5.995   0.994   7.313  0.2407  0.4389 -1.0180
  159SAPE   H7X17802   6.026   1.097   7.341 -0.0110 -0.0098  1.0003
  159SAPE   H7Y17803   6.084   0.944   7.268  0.8642 -0.9155  1.6071
  159SAPE   C3817804   5.973   0.919   7.442  0.3655  0.8818 -0.3824
  159SAPE   H8X17805   6.071   0.888   7.485 -0.9530 -1.4578  1.0559
  159SAPE   H8Y17806   5.913   0.827   7.421 -0.8596  1.6400 -0.2674
  159SAPE   C3917807   5.882   1.001   7.540  0.7956 -0.2345 -0.6378
  159SAPE   H9X17808   5.787   1.034   7.493  0.7515 -0.0118 -0.3947
  159SAPE   H9Y17809   5.933   1.093   7.577 -0.9365  1.3215 -2.0279
  159SAPE  C31017810   5.836   0.919   7.653 -0.4540  0.5292 -0.3587
  159SAPE  H10X17811   5.925   0.891   7.713 -2.0418 -0.8652  1.4311
  159SAPE  H10Y17812   5.799   0.825   7.607  0.2085  0.7196 -1.2931
  159SAPE  C31117813   5.747   0.987   7.763 -0.1240 -0.4967 -0.6106
  159SAPE  H11X17814   5.686   0.902   7.800 -0.8753  0.1469 -0.3701
  159SAPE  H11Y17815   5.675   1.050   7.707 -3.4894 -3.8507 -0.3132
  159SAPE  C31217816   5.826   1.059   7.863  0.8969  0.0712  0.4795
  159SAPE  H12X17817   5.905   1.127   7.824  3.0658 -2.2421  0.7097
  159SAPE  H12Y17818   5.888   0.985   7.917  1.3041  0.2735  0.2937
  159SAPE  C31317819   5.748   1.146   7.963 -0.7878 -0.4475  0.0452
  159SAPE  H13X17820   5.706   1.230   7.903  1.9623  0.4827 -0.6530
  159SAPE  H13Y17821   5.813   1.192   8.041  0.8314 -0.1865 -1.4080
  159SAPE  C31417822   5.640   1.064   8.031  0.2293 -0.3928  0.0675
  159SAPE  H14X17823   5.693   0.990   8.095 -1.1196 -1.2542  0.2293
  159SAPE  H14Y17824   5.590   1.003   7.952  0.4128  1.3757 -1.4452
  159SAPE  C31517825   5.554   1.148   8.120 -0.5560  0.3663 -0.8326
  159SAPE  H15X17826   5.501   1.234   8.072 -0.6437  0.6513 -0.2330
  159SAPE  H15Y17827   5.615   1.210   8.189  0.8159 -1.9770  0.0925
  159SAPE  C31617828   5.445   1.074   8.204 -0.5334  0.3525 -0.0383
  159SAPE  H16X17829   5.500   1.008   8.274 -0.4859  0.0750 -0.3318
  159SAPE  H16Y17830   5.380   1.009   8.141 -1.2416 -0.1742  1.2074
  159SAPE  C31717831   5.350   1.166   8.285  0.2869  0.3475  0.2043
  159SAPE  H17X17832   5.307   1.244   8.218 -3.5618 -3.0609 -1.5147
  159SAPE  H17Y17833   5.395   1.223   8.369 -1.1672  1.2397  0.4005
  159SAPE  C31817834   5.228   1.106   8.348  0.1397 -0.2408  0.0727
  159SAPE  H18X17835   5.168   1.177   8.410  1.1983  1.0216 -0.3157
  159SAPE  H18Y17836   5.257   1.019   8.411  1.3446  1.2423  1.6157
  159SAPE  H18Z17837   5.163   1.066   8.267  0.0333 -0.2631  0.1689
  160SAPE     N17838   6.800   6.664   6.347 -0.1899  0.5310  0.0045
  160SAPE   HN117839   6.889   6.717   6.341 -1.2861  2.2640 -1.2455
  160SAPE   HN217840   6.735   6.686   6.426 -0.8820 -1.4728  0.0174
  160SAPE   HN317841   6.807   6.562   6.330  1.8636  0.7182 -0.3661
  160SAPE   C1217842   6.719   6.723   6.235 -0.5540  0.1869  0.2249
  160SAPE  H12A17843   6.620   6.673   6.238 -0.5980  0.1076 -1.7337
  160SAPE  H12B17844   6.772   6.692   6.142  0.6272 -2.9126  1.8457
  160SAPE   C1117845   6.701   6.873   6.255 -0.0015 -0.3412  0.3763
  160SAPE  H11A17846   6.660   6.908   6.158  0.6421  0.0328  0.2333
  160SAPE  H11B17847   6.794   6.931   6.270 -0.9486  1.4588 -0.5839
  160SAPE     P17848   6.552   7.056   6.375  0.4500  0.3124 -0.0646
  160SAPE   O1317849   6.535   7.109   6.239  0.0311 -0.2269  0.0852
  160SAPE   O1417850   6.435   7.047   6.462 -0.0191  0.4962 -0.1207
  160SAPE   O1217851   6.608   6.908   6.362 -0.1935  0.0190 -0.6009
  160SAPE   O1117852   6.669   7.139   6.435  0.1083 -0.5825  0.1024
  160SAPE    C117853   6.748   7.084   6.548 -0.0296  0.4875  0.1917
  160SAPE    HA17854   6.773   6.975   6.546  1.9512  0.9168  0.6400
  160SAPE    HB17855   6.844   7.140   6.537  0.9593 -1.6399 -2.8695
  160SAPE    C217856   6.694   7.134   6.676 -0.7287 -0.2156  0.6100
  160SAPE    HS17857   6.615   7.061   6.705 -2.2377  0.9639 -0.4253
  160SAPE   O2117858   6.628   7.261   6.656  0.2392 -0.1709 -0.4085
  160SAPE   C2117859   6.543   7.290   6.761  0.3415  0.3016  0.3761
  160SAPE   O2217860   6.524   7.218   6.859 -0.1680 -0.6613 -0.1396
  160SAPE   C2217861   6.477   7.424   6.719  0.0868 -0.2484 -0.3806
  160SAPE   H2R17862   6.553   7.504   6.710  0.2079 -0.5740 -2.5983
  160SAPE   H2S17863   6.447   7.412   6.613 -1.1563 -0.1140 -0.0587
  160SAPE    C317864   6.813   7.134   6.786  0.1121 -0.6871  0.7340
  160SAPE    HX17865   6.893   7.199   6.744 -2.3046 -0.3032 -3.5685
  160SAPE    HY17866   6.862   7.035   6.788 -2.6035 -2.1184 -0.2437
  160SAPE   O3117867   6.770   7.175   6.918  0.3286  0.3185  0.2002
  160SAPE   C3117868   6.822   7.288   6.961 -0.0931 -0.1460  0.3827
  160SAPE   O3217869   6.883   7.369   6.894  0.8927  0.1722  0.6357
  160SAPE   C3217870   6.790   7.324   7.102  1.1645 -1.2688  0.3529
  160SAPE   H2X17871   6.761   7.431   7.100 -1.5605 -2.0103 -2.7176
  160SAPE   H2Y17872   6.888   7.326   7.155  0.5305 -0.8418  1.5159
  160SAPE   C2317873   6.353   7.460   6.806  0.2917 -0.3727  0.2744
  160SAPE   H3R17874   6.287   7.370   6.809 -2.2434  1.4193  0.2011
  160SAPE   H3S17875   6.306   7.546   6.754  1.0844 -0.6025 -0.8293
  160SAPE   C2417876   6.391   7.504   6.954  0.3013  0.2480 -0.3610
  160SAPE   H4R17877   6.470   7.581   6.942  1.4034 -1.2838 -3.2375
  160SAPE   H4S17878   6.433   7.417   7.009 -0.0365  0.1472 -0.2598
  160SAPE   C2517879   6.270   7.550   7.034  0.1917 -0.3954 -0.4349
  160SAPE   H5R17880   6.184   7.595   6.983 -0.6344 -0.4714  0.8613
  160SAPE   C2617881   6.243   7.524   7.163  0.0258 -0.0075  0.2680
  160SAPE   H6R17882   6.147   7.552   7.208 -0.5411 -0.1888 -0.8307
  160SAPE   C2717883   6.339   7.446   7.254  0.6958  0.2527  0.5073
  160SAPE   H7R17884   6.436   7.500   7.263  0.9523 -0.0592 -0.3365
  160SAPE   H7S17885   6.371   7.357   7.197  0.5584  0.8739 -0.5431
  160SAPE   C2817886   6.278   7.396   7.373  0.5008 -0.6859  0.2401
  160SAPE   H8R17887   6.222   7.304   7.351 -0.9154  0.6902 -2.0024
  160SAPE   C2917888   6.282   7.453   7.493 -0.0154  0.1164  0.4929
  160SAPE   H9R17889   6.258   7.402   7.588  3.2829  0.0876  1.3637
  160SAPE  C21017890   6.356   7.578   7.535 -0.3785  0.1836 -0.0319
  160SAPE  H10R17891   6.277   7.640   7.580 -1.5254 -0.0879 -1.6305
  160SAPE  H10S17892   6.393   7.631   7.444  0.0251 -0.8472 -0.4788
  160SAPE  C21117893   6.479   7.532   7.612  0.4777 -0.4108 -0.1469
  160SAPE  H11R17894   6.487   7.422   7.607  0.6849 -0.2940 -3.3460
  160SAPE  C21217895   6.568   7.616   7.666  0.9243  0.3691  0.6387
  160SAPE  H12R17896   6.632   7.577   7.747  0.8181 -0.1171  0.4911
  160SAPE  C21317897   6.559   7.761   7.659 -0.0556 -0.3154 -0.4025
  160SAPE  H13R17898   6.466   7.809   7.622 -0.0981 -0.9713 -1.1547
  160SAPE  H13S17899   6.634   7.794   7.584 -0.3790  0.4224 -0.4055
  160SAPE  C21417900   6.582   7.828   7.793  0.6910  0.0180 -0.0347
  160SAPE  H14R17901   6.650   7.914   7.789 -0.3305  1.0513  3.2200
  160SAPE  C21517902   6.519   7.810   7.914  0.2355 -0.6628  0.9726
  160SAPE  H15R17903   6.539   7.877   7.999 -0.8942 -0.9105  1.4507
  160SAPE  C21617904   6.408   7.709   7.944  0.5171  0.7202 -0.4770
  160SAPE  H16R17905   6.430   7.619   7.883 -4.3007 -0.3876 -0.8089
  160SAPE  H16S17906   6.313   7.755   7.909  1.0500  2.6028  0.4891
  160SAPE  C21717907   6.391   7.683   8.092  0.1806 -0.2624 -0.3722
  160SAPE  H17R17908   6.290   7.638   8.103  0.6885 -1.1440  0.8323
  160SAPE  H17S17909   6.380   7.774   8.156 -0.7672 -0.2675 -0.5156
  160SAPE  C21817910   6.494   7.596   8.157  0.2409  0.2807 -0.0461
  160SAPE  H18R17911   6.595   7.636   8.137  0.1645  0.5886  0.1781
  160SAPE  H18S17912   6.485   7.490   8.123 -2.3069 -0.1557  1.8029
  160SAPE  C21917913   6.473   7.582   8.308 -0.2603 -0.3356 -0.3255
  160SAPE  H19R17914   6.485   7.685   8.348  2.3124 -0.7720  0.0934
  160SAPE  H19S17915   6.556   7.521   8.349 -0.2549  0.5927  1.0724
  160SAPE  C22017916   6.340   7.528   8.356  0.3408  1.1460  0.1340
  160SAPE  H20R17917   6.251   7.574   8.309 -0.2718 -0.4127 -0.2676
  160SAPE  H20S17918   6.340   7.538   8.467 -2.4957  0.8851  0.1913
  160SAPE  H20T17919   6.335   7.418   8.339 -0.0247  0.6579  3.0016
  160SAPE   C3317920   6.693   7.221   7.177 -1.3651 -0.0680 -0.0130
  160SAPE   H3X17921   6.731   7.117   7.185 -2.7046 -0.4628  1.3292
  160SAPE   H3Y17922   6.595   7.221   7.125 -0.8977 -1.2770 -0.9112
  160SAPE   C3417923   6.657   7.270   7.319  0.2579  0.1383  0.4044
  160SAPE   H4X17924   6.552   7.255   7.351  1.3588 -1.9647  3.2425
  160SAPE   H4Y17925   6.667   7.381   7.314 -0.5241  0.1513 -0.9922
  160SAPE   C3517926   6.749   7.207   7.430 -0.0901 -0.1904 -0.0973
  160SAPE   H5X17927   6.856   7.225   7.407  0.5105 -0.9589  1.9543
  160SAPE   H5Y17928   6.746   7.096   7.419  3.2917 -0.3601  0.2941
  160SAPE   C3617929   6.733   7.262   7.575 -0.4061 -1.0301  0.3310
  160SAPE   H6X17930   6.638   7.230   7.623  0.0385 -2.2479  0.4240
  160SAPE   H6Y17931   6.725   7.373   7.579  1.7569 -0.7351 -2.4815
  160SAPE   C3717932   6.842   7.218   7.673 -0.6374  0.0422  0.1570
  160SAPE   H7X17933   6.876   7.301   7.738  2.4950 -0.2193 -1.0630
  160SAPE   H7Y17934   6.936   7.185   7.624 -0.3909 -1.7745  1.8389
  160SAPE   C3817935   6.786   7.120   7.780 -0.0544 -0.7673 -0.0675
  160SAPE   H8X17936   6.740   7.033   7.729 -2.3632  0.5444 -0.3219
  160SAPE   H8Y17937   6.703   7.161   7.841  1.6668  0.7713  1.3165
  160SAPE   C3917938   6.903   7.071   7.861 -0.1606  0.3153  0.9326
  160SAPE   H9X17939   6.971   7.155   7.886  2.3263 -1.0949 -0.8739
  160SAPE   H9Y17940   6.958   7.006   7.789 -0.2065 -0.1169  1.2896
  160SAPE  C31017941   6.869   6.976   7.968 -0.9353  0.0436 -0.0243
  160SAPE  H10X17942   6.801   6.896   7.931 -2.0583  0.0387  1.9747
  160SAPE  H10Y17943   6.818   7.024   8.055 -0.8106 -0.1227  0.1424
  160SAPE  C31117944   6.977   6.889   8.023 -0.2779 -0.4878 -0.5063
  160SAPE  H11X17945   7.074   6.942   8.034 -0.6916 -0.0855  1.3908
  160SAPE  H11Y17946   6.993   6.799   7.960 -0.8436 -1.1178  0.2472
  160SAPE  C31217947   6.943   6.836   8.160  0.3042  0.2127 -0.1235
  160SAPE  H12X17948   6.845   6.789   8.141 -0.6473  1.8221  0.7420
  160SAPE  H12Y17949   6.937   6.927   8.222 -0.1746  0.5263 -0.6320
  160SAPE  C31317950   7.039   6.750   8.244 -0.5306 -0.1736  0.9441
  160SAPE  H13X17951   7.144   6.782   8.224 -0.3957 -1.6500 -0.8347
  160SAPE  H13Y17952   7.029   6.640   8.233  0.5539  0.0588 -3.2649
  160SAPE  C31417953   7.014   6.761   8.394  0.2259 -0.7983 -0.1543
  160SAPE  H14X17954   6.917   6.717   8.425 -0.1614  0.2967  0.2214
  160SAPE  H14Y17955   7.000   6.865   8.431  4.0809 -0.1731 -0.3098
  160SAPE  C31517956   7.130   6.698   8.484 -0.3307  1.0592  0.1235
  160SAPE  H15X17957   7.111   6.702   8.593 -0.0158  0.9745  0.1794
  160SAPE  H15Y17958   7.231   6.735   8.457  0.5923 -2.9223 -2.2669
  160SAPE  C31617959   7.151   6.540   8.453 -0.0069  0.7408 -0.1864
  160SAPE  H16X17960   7.158   6.530   8.343  1.2871 -1.8885  0.1117
  160SAPE  H16Y17961   7.060   6.484   8.483  0.5927 -0.4175 -0.4940
  160SAPE  C31717962   7.280   6.482   8.523  0.0144  0.1608 -0.3073
  160SAPE  H17X17963   7.268   6.499   8.631  0.1245 -2.3229  0.1321
  160SAPE  H17Y17964   7.372   6.533   8.486 -0.5780  1.1297 -0.4657
  160SAPE  C31817965   7.297   6.334   8.497  0.3443  0.9783 -0.7215
  160SAPE  H18X17966   7.251   6.309   8.399 -2.2519  1.2887  0.3765
  160SAPE  H18Y17967   7.238   6.279   8.573  3.0965 -0.1140  0.7281
  160SAPE  H18Z17968   7.398   6.287   8.505  0.4298  1.1527 -0.7547
  161SOPE     N17969   4.863   1.147  11.144  0.7840  0.2144 -0.4299
  161SOPE   HN117970   4.792   1.084  11.186  1.4834  0.3287  0.9497
  161SOPE   HN217971   4.945   1.166  11.205  0.9751 -2.1258  0.0847
  161SOPE   HN317972   4.810   1.237  11.140  0.7252  0.1619 -0.8888
  161SOPE   C1217973   4.907   1.095  11.011 -0.5274  0.5759  0.1511
  161SOPE  H12A17974   4.811   1.065  10.963 -0.5753  0.0417  0.5819
  161SOPE  H12B17975   4.981   1.014  11.025 -0.8594  0.7321  3.2537
  161SOPE   C1117976   4.974   1.214  10.939 -0.0087 -0.0084  0.0363
  161SOPE  H11A17977   4.913   1.307  10.947 -1.3007 -0.7712 -0.8110
  161SOPE  H11B17978   4.974   1.182  10.833 -0.5229 -0.0105  0.0376
  161SOPE     P17979   5.202   1.338  10.935  0.0191 -0.0981  0.0625
  161SOPE   O1317980   5.328   1.274  10.917 -0.2781 -0.2633  0.4981
  161SOPE   O1417981   5.194   1.460  11.015  0.2329  0.3949 -0.4300
  161SOPE   O1217982   5.106   1.224  10.990 -0.1105  0.2390  0.1384
  161SOPE   O1117983   5.136   1.358  10.790  0.1506 -0.0181 -0.2175
  161SOPE    C117984   5.080   1.479  10.740  0.2781 -0.2963 -0.5734
  161SOPE    HA17985   5.158   1.536  10.686  0.4191 -0.9120 -1.0224
  161SOPE    HB17986   5.055   1.546  10.825 -0.9796 -0.3853 -0.8603
  161SOPE    C217987   4.960   1.454  10.644  0.3599  0.3816 -0.1766
  161SOPE    HS17988   4.881   1.403  10.703 -0.6141  0.3486 -1.4821
  161SOPE   O2117989   5.011   1.381  10.531 -0.4078  0.4713 -0.9078
  161SOPE   C2117990   4.909   1.303  10.475  0.6201 -0.3280 -0.3257
  161SOPE   O2217991   4.798   1.298  10.516  0.1341  0.8295 -0.4306
  161SOPE   C2217992   4.975   1.232  10.348  0.6267 -0.1309  0.0835
  161SOPE   H2R17993   4.921   1.137  10.330  0.1500  0.3273 -0.9270
  161SOPE   H2S17994   5.081   1.209  10.373  0.7972 -0.0759 -0.5845
  161SOPE    C317995   4.899   1.592  10.594  0.3798 -0.5629  0.2414
  161SOPE    HX17996   4.923   1.658  10.679 -0.5231 -0.0268  0.0783
  161SOPE    HY17997   4.789   1.587  10.583  0.5826 -1.1021 -1.8752
  161SOPE   O3117998   4.954   1.620  10.461 -0.2155  0.5840  0.1400
  161SOPE   C3117999   4.987   1.744  10.434 -0.0657 -1.2084 -0.3597
  161SOPE   O3218000   4.970   1.846  10.506  0.4197  0.4371 -0.6362
  161SOPE   C3218001   5.080   1.743  10.315 -0.1573  0.9390  1.0906
  161SOPE   H2X18002   5.153   1.658  10.312 -2.0382 -0.7216  1.2208
  161SOPE   H2Y18003   5.118   1.847  10.319  0.8481  0.6001  0.6578
  161SOPE   C2318004   4.992   1.337  10.234  0.1516 -0.1386  0.0568
  161SOPE   H3R18005   5.036   1.432  10.270  1.1624 -1.0007  1.1687
  161SOPE   H3S18006   4.894   1.353  10.185  1.2774 -0.5768 -2.4550
  161SOPE   C2418007   5.077   1.292  10.120 -0.0256  0.2386 -0.7287
  161SOPE   H4R18008   5.170   1.243  10.154  0.9183  3.3638  1.4021
  161SOPE   H4S18009   5.016   1.213  10.072  0.1656 -0.1485 -0.3298
  161SOPE   C2518010   5.122   1.402  10.024  0.0567  0.4873  0.2899
  161SOPE   H5R18011   5.031   1.464  10.008 -1.3349 -1.3717  0.6774
  161SOPE   H5S18012   5.201   1.466  10.067  2.1268 -2.2994  0.7559
  161SOPE   C2618013   5.181   1.352   9.889 -0.5948  0.3981  0.0311
  161SOPE   H6R18014   5.239   1.437   9.848  0.6534 -0.2633  0.3940
  161SOPE   H6S18015   5.253   1.270   9.910  0.0069  1.7370  3.5029
  161SOPE   C2718016   5.065   1.308   9.790 -0.3794 -0.7573  0.1961
  161SOPE   H7R18017   5.000   1.235   9.842 -0.7982  1.0898  2.3460
  161SOPE   H7S18018   5.001   1.397   9.773  0.1837 -0.7332 -1.8882
  161SOPE   C2818019   5.103   1.249   9.653  0.1170 -0.0530 -0.4514
  161SOPE   H8R18020   5.191   1.302   9.610 -0.7824  1.4642 -0.4948
  161SOPE   H8S18021   5.124   1.145   9.684  2.4526  0.5691  0.1897
  161SOPE   C2918022   4.988   1.257   9.548  0.0955  0.1021 -0.2105
  161SOPE   H9118023   4.890   1.222   9.583  0.3182 -0.3314 -0.0117
  161SOPE  C21018024   4.995   1.304   9.418  0.3129  0.1002  0.0115
  161SOPE  H10118025   4.901   1.312   9.360  0.6586  0.3012 -0.5224
  161SOPE  C21118026   5.115   1.352   9.342  0.6044  0.0254 -0.1471
  161SOPE  H11R18027   5.212   1.341   9.395  0.8799  1.8538 -0.2202
  161SOPE  H11S18028   5.104   1.463   9.335  0.9639 -0.0771 -2.9175
  161SOPE  C21218029   5.126   1.300   9.200  0.9883  0.2046 -0.4781
  161SOPE  H12R18030   5.025   1.314   9.156  2.0632  2.2688 -2.3717
  161SOPE  H12S18031   5.140   1.191   9.213 -0.6493 -0.2349 -2.1746
  161SOPE  C21318032   5.232   1.375   9.113 -0.1247  0.2835  0.0422
  161SOPE  H13R18033   5.337   1.376   9.151 -0.2894 -0.0737  0.5168
  161SOPE  H13S18034   5.195   1.479   9.108 -1.4145 -0.0504  2.1909
  161SOPE  C21418035   5.250   1.309   8.972 -0.0298  0.3819  0.4300
  161SOPE  H14R18036   5.147   1.291   8.934  1.6051 -2.7431 -2.7951
  161SOPE  H14S18037   5.298   1.210   8.988 -0.6914  0.0477  0.3738
  161SOPE  C21518038   5.346   1.384   8.877  0.5081  0.9463 -0.5961
  161SOPE  H15R18039   5.428   1.417   8.944  0.0685  0.6330  0.1070
  161SOPE  H15S18040   5.295   1.479   8.850 -0.2659  0.4380 -0.9538
  161SOPE  C21618041   5.405   1.311   8.752  0.4298 -0.0452 -0.1445
  161SOPE  H16R18042   5.326   1.293   8.675  0.8154 -0.1275 -0.5237
  161SOPE  H16S18043   5.444   1.213   8.786  1.6885  0.7411  0.7315
  161SOPE  C21718044   5.514   1.395   8.683 -0.1681 -0.4243 -0.5720
  161SOPE  H17R18045   5.578   1.341   8.610 -0.2301 -0.5758 -0.5138
  161SOPE  H17S18046   5.578   1.426   8.768 -0.0085 -1.3649 -0.3386
  161SOPE  C21818047   5.464   1.525   8.608  0.2567  0.0902  0.0164
  161SOPE  H18R18048   5.547   1.594   8.585  0.7158 -0.1683  0.8744
  161SOPE  H18S18049   5.402   1.584   8.679  1.2720  0.6672  0.4360
  161SOPE  H18T18050   5.414   1.494   8.514 -2.2778 -1.7315  1.8972
  161SOPE   C3318051   4.992   1.731  10.188 -0.3551  0.0196  0.2439
  161SOPE   H3X18052   4.910   1.657  10.200  2.2016 -2.8325  0.9035
  161SOPE   H3Y18053   5.062   1.686  10.114  0.9314  4.6519 -1.5368
  161SOPE   C3418054   4.942   1.870  10.132  0.3738  0.3514 -0.2890
  161SOPE   H4X18055   5.010   1.957  10.147 -0.6125  0.9079  1.0858
  161SOPE   H4Y18056   4.853   1.892  10.195  1.1173  1.7225  0.3066
  161SOPE   C3518057   4.912   1.862   9.986 -0.0063 -0.4851  0.5100
  161SOPE   H5X18058   4.881   1.966   9.960  1.7937  0.5671  2.4535
  161SOPE   H5Y18059   4.831   1.791   9.961 -1.3797  1.4723 -0.8094
  161SOPE   C3618060   5.029   1.848   9.887  0.2052 -0.4174  0.4478
  161SOPE   H6X18061   5.065   1.747   9.862  1.0345 -0.2117  0.8007
  161SOPE   H6Y18062   5.117   1.908   9.918  0.9990 -1.0320 -0.6042
  161SOPE   C3718063   5.008   1.903   9.743 -0.6570 -0.5196 -0.3815
  161SOPE   H7X18064   5.015   2.014   9.739 -2.6240 -0.4328 -1.5688
  161SOPE   H7Y18065   4.910   1.870   9.703 -1.1849 -2.6201  2.4728
  161SOPE   C3818066   5.118   1.860   9.642 -0.6000  0.7365  0.0548
  161SOPE   H8X18067   5.136   1.751   9.643  1.4698  1.0647  1.4228
  161SOPE   H8Y18068   5.213   1.909   9.673 -1.1746  0.9602  1.5042
  161SOPE   C3918069   5.083   1.900   9.498 -0.0374  0.0092  0.2890
  161SOPE   H9X18070   5.174   1.891   9.435 -0.5324 -0.9895 -0.2878
  161SOPE   H9Y18071   5.052   2.006   9.500 -0.3097 -0.0937  2.0915
  161SOPE  C31018072   4.981   1.805   9.421  0.0424 -0.3251  0.4638
  161SOPE  H10X18073   4.891   1.783   9.483 -0.0597  1.3444  0.9374
  161SOPE  H10Y18074   5.025   1.706   9.396  0.1572 -0.0124 -0.5698
  161SOPE  C31118075   4.928   1.857   9.284  0.5762  0.1990  0.2643
  161SOPE  H11X18076   4.861   1.944   9.304 -0.6694 -0.1274 -2.2656
  161SOPE  H11Y18077   4.864   1.779   9.238 -1.5049  1.4164  1.0055
  161SOPE  C31218078   5.033   1.900   9.181  0.3807  1.1610 -0.2580
  161SOPE  H12X18079   5.077   1.811   9.130  0.6909 -0.5606  2.8638
  161SOPE  H12Y18080   5.111   1.961   9.232  0.7280 -0.9470  1.8510
  161SOPE  C31318081   4.978   1.985   9.069  0.4650  0.1095 -0.5727
  161SOPE  H13X18082   4.920   2.069   9.113 -0.1672 -0.6356  0.0114
  161SOPE  H13Y18083   4.891   1.938   9.019 -0.9890  0.7605  1.2927
  161SOPE  C31418084   5.098   2.038   8.980 -0.2938 -0.5846 -0.2313
  161SOPE  H14X18085   5.184   2.084   9.034 -0.7982 -0.8326  0.7935
  161SOPE  H14Y18086   5.047   2.110   8.912  1.0871  0.6597  0.0307
  161SOPE  C31518087   5.159   1.916   8.903  0.1702  0.8321  0.2611
  161SOPE  H15X18088   5.078   1.863   8.849  2.0485 -0.2860 -1.5217
  161SOPE  H15Y18089   5.216   1.850   8.973 -0.1513 -0.8052 -0.9882
  161SOPE  C31618090   5.252   1.965   8.788  0.6796  0.0803 -0.5548
  161SOPE  H16X18091   5.347   2.004   8.828  0.5797  0.8961 -1.0832
  161SOPE  H16Y18092   5.200   2.052   8.741 -2.3125 -1.6439 -0.6238
  161SOPE  C31718093   5.291   1.848   8.693  0.3529  0.3799  1.2129
  161SOPE  H17X18094   5.192   1.806   8.664  0.8632 -0.6097  0.8737
  161SOPE  H17Y18095   5.346   1.768   8.749  0.9625  0.6130  0.9516
  161SOPE  C31818096   5.366   1.901   8.574 -0.0912 -1.1066  0.1197
  161SOPE  H18X18097   5.377   1.815   8.504  0.4573 -2.7692  2.1767
  161SOPE  H18Y18098   5.461   1.950   8.606 -1.6556  3.3846 -1.7776
  161SOPE  H18Z18099   5.300   1.976   8.527 -1.0412 -1.3732  0.9951
  162SOPE     N18100   3.707   1.405  11.149  0.4183  0.3282  0.5722
  162SOPE   HN118101   3.643   1.452  11.216 -2.6537 -0.2216 -1.8612
  162SOPE   HN218102   3.762   1.476  11.096  0.0240 -1.2584 -2.0574
  162SOPE   HN318103   3.648   1.359  11.077 -1.3401  1.2952  1.3505
  162SOPE   C1218104   3.808   1.309  11.205  0.3113 -0.0588 -0.9692
  162SOPE  H12A18105   3.757   1.228  11.261 -0.1745  1.3080  0.6043
  162SOPE  H12B18106   3.876   1.365  11.273 -0.8539 -0.5115  0.5812
  162SOPE   C1118107   3.880   1.233  11.094  0.3191 -0.4083 -0.0613
  162SOPE  H11A18108   3.955   1.171  11.147  1.7096  0.1424 -1.3438
  162SOPE  H11B18109   3.935   1.301  11.025  0.8454 -0.4415  0.3185
  162SOPE     P18110   3.840   1.055  10.908  0.0105 -0.2586  0.1536
  162SOPE   O1318111   3.725   0.993  10.842  0.4821  0.9604  0.5592
  162SOPE   O1418112   3.949   0.969  10.958 -0.4014 -0.0940 -0.1659
  162SOPE   O1218113   3.787   1.141  11.035 -0.3453  0.2303 -0.0154
  162SOPE   O1118114   3.900   1.164  10.821 -0.2748 -0.3577  0.2222
  162SOPE    C118115   3.820   1.274  10.775  0.1780  0.1825  0.3001
  162SOPE    HA18116   3.874   1.366  10.805  0.0363  0.8745 -1.5454
  162SOPE    HB18117   3.722   1.278  10.828 -0.2672  0.6267 -0.5469
  162SOPE    C218118   3.790   1.265  10.623  0.3217 -0.9410  0.7732
  162SOPE    HS18119   3.724   1.177  10.606 -0.6447 -0.0025 -0.4229
  162SOPE   O2118120   3.911   1.253  10.542 -0.4433 -0.2182 -0.5624
  162SOPE   C2118121   3.911   1.180  10.438 -0.5184 -0.1398 -0.7008
  162SOPE   O2218122   3.813   1.113  10.405 -0.2253 -0.6765 -0.0033
  162SOPE   C2218123   4.052   1.162  10.373 -0.1217 -0.7435  0.0492
  162SOPE   H2R18124   4.099   1.084  10.437 -0.9883 -2.0020 -0.8302
  162SOPE   H2S18125   4.098   1.263  10.380 -0.7741 -0.4401  0.0136
  162SOPE    C318126   3.705   1.389  10.576 -0.7478  0.3695 -0.3319
  162SOPE    HX18127   3.765   1.477  10.607 -1.3926  0.6054  0.2596
  162SOPE    HY18128   3.607   1.396  10.629 -0.6908 -3.1487  0.3460
  162SOPE   O3118129   3.694   1.397  10.431  0.4894 -0.1742 -0.0740
  162SOPE   C3118130   3.606   1.327  10.367 -0.0288 -0.0942 -0.6548
  162SOPE   O3218131   3.528   1.243  10.411 -0.1936  0.1373 -0.2374
  162SOPE   C3218132   3.628   1.362  10.222 -0.5153  0.9877 -0.4716
  162SOPE   H2X18133   3.736   1.337  10.210 -0.5344 -0.4670  1.9887
  162SOPE   H2Y18134   3.623   1.472  10.207 -0.2640  0.8970 -1.2475
  162SOPE   C2318135   4.022   1.109  10.234 -0.1413  0.1399  0.0464
  162SOPE   H3R18136   3.954   1.169  10.169  0.2313 -0.4161 -0.8702
  162SOPE   H3S18137   3.981   1.006  10.231  1.7946 -0.6216 -2.9182
  162SOPE   C2418138   4.155   1.114  10.153 -0.0818  0.1075  0.4193
  162SOPE   H4R18139   4.191   1.218  10.144  2.6403 -0.7407  1.0488
  162SOPE   H4S18140   4.232   1.075  10.223 -2.9553  0.2607  3.7803
  162SOPE   C2518141   4.139   1.027  10.023 -0.5229 -0.1209 -0.3224
  162SOPE   H5R18142   4.149   0.922  10.057 -5.1802  0.3121  2.8499
  162SOPE   H5S18143   4.040   1.041   9.974  0.2130 -0.1561 -1.8561
  162SOPE   C2618144   4.262   1.057   9.933  0.6505  0.6799  0.0814
  162SOPE   H6R18145   4.280   1.166   9.918  1.7070  0.4790 -0.1204
  162SOPE   H6S18146   4.355   1.013   9.975  0.6533  0.1607 -0.4739
  162SOPE   C2718147   4.243   0.992   9.793  0.5293  0.6050  0.3561
  162SOPE   H7R18148   4.337   1.006   9.735 -0.2836 -0.8224 -1.3598
  162SOPE   H7S18149   4.201   0.889   9.794  0.2883  0.7059  1.9521
  162SOPE   C2818150   4.137   1.074   9.702 -0.1879  0.1558 -0.4013
  162SOPE   H8R18151   4.048   1.067   9.767  1.9924 -1.2273  2.5574
  162SOPE   H8S18152   4.156   1.183   9.704  0.7087 -0.0195  1.3296
  162SOPE   C2918153   4.108   0.999   9.567 -0.6048 -0.1424  0.0221
  162SOPE   H9118154   4.078   0.896   9.588  0.2641 -0.2056  0.9735
  162SOPE  C21018155   4.126   1.045   9.439  0.3438  0.2615 -0.2699
  162SOPE  H10118156   4.112   0.983   9.349 -2.3555  1.5382 -0.7666
  162SOPE  C21118157   4.168   1.192   9.417  0.0694 -0.0986 -0.0970
  162SOPE  H11R18158   4.278   1.194   9.431  0.2738  1.2037 -1.7839
  162SOPE  H11S18159   4.126   1.261   9.493 -2.0696 -3.2066  1.6750
  162SOPE  C21218160   4.132   1.252   9.287 -0.0637  0.2244  0.3256
  162SOPE  H12R18161   4.132   1.363   9.292  0.0504  0.1579  2.0735
  162SOPE  H12S18162   4.030   1.230   9.249  0.6241 -1.4461 -0.6011
  162SOPE  C21318163   4.221   1.204   9.177 -0.4339 -0.1432 -0.3581
  162SOPE  H13R18164   4.196   1.097   9.160 -2.4193 -0.1921  2.5140
  162SOPE  H13S18165   4.327   1.206   9.209 -0.1193 -4.5587 -0.8055
  162SOPE  C21418166   4.197   1.293   9.058 -0.4744  0.4240 -0.1949
  162SOPE  H14R18167   4.245   1.391   9.077 -0.9005  1.0282 -2.1420
  162SOPE  H14S18168   4.088   1.297   9.041 -0.2582 -0.2342 -1.9574
  162SOPE  C21518169   4.252   1.241   8.923  0.2036  0.6080 -0.2292
  162SOPE  H15R18170   4.203   1.141   8.922 -0.8903  1.1071  1.6499
  162SOPE  H15S18171   4.358   1.209   8.933 -0.6536 -1.9693  1.0956
  162SOPE  C21618172   4.233   1.324   8.798 -0.0202 -0.1464 -0.1952
  162SOPE  H16R18173   4.126   1.343   8.776  0.5333  1.3226 -1.7384
  162SOPE  H16S18174   4.272   1.264   8.713 -1.0230  3.3231 -3.1945
  162SOPE  C21718175   4.313   1.455   8.791  0.2263 -0.6201 -0.9046
  162SOPE  H17R18176   4.421   1.428   8.783  0.4732 -0.3457  1.1023
  162SOPE  H17S18177   4.292   1.514   8.883 -3.0003 -0.0297 -1.9696
  162SOPE  C21818178   4.269   1.530   8.668 -0.4663 -0.3444  1.0827
  162SOPE  H18R18179   4.159   1.529   8.658 -0.6428 -0.3842  2.8033
  162SOPE  H18S18180   4.317   1.494   8.575 -0.2902 -0.5225  1.2415
  162SOPE  H18T18181   4.293   1.638   8.675 -0.6177 -0.2645  0.3481
  162SOPE   C3318182   3.530   1.277  10.133  0.0653 -0.2512  0.7933
  162SOPE   H3X18183   3.426   1.307  10.154 -0.0512 -0.2799  0.2594
  162SOPE   H3Y18184   3.535   1.170  10.163  2.5778 -0.8426 -1.4954
  162SOPE   C3418185   3.572   1.275   9.984  0.7706 -0.7298 -0.7742
  162SOPE   H4X18186   3.666   1.219   9.966  2.4583  2.0999 -1.1366
  162SOPE   H4Y18187   3.604   1.378   9.957  1.5764 -0.7710  0.0144
  162SOPE   C3518188   3.458   1.244   9.894  0.6554  0.0371  0.1467
  162SOPE   H5X18189   3.364   1.297   9.917  0.8898  0.8001 -0.6307
  162SOPE   H5Y18190   3.432   1.136   9.907  1.3323 -0.1970 -0.3926
  162SOPE   C3618191   3.509   1.273   9.750  0.3548  0.2077 -0.3810
  162SOPE   H6X18192   3.436   1.225   9.682 -0.3514  1.1145 -0.2696
  162SOPE   H6Y18193   3.612   1.233   9.734 -0.1770 -0.8155 -1.3008
  162SOPE   C3718194   3.493   1.419   9.700  0.5879 -0.2845  0.0352
  162SOPE   H7X18195   3.570   1.477   9.755 -0.3187  1.1988 -0.2234
  162SOPE   H7Y18196   3.399   1.462   9.739  0.0310 -0.2377 -1.3197
  162SOPE   C3818197   3.520   1.433   9.554 -1.0666 -0.0382 -0.4043
  162SOPE   H8X18198   3.426   1.394   9.508 -0.2586 -0.2911 -1.8828
  162SOPE   H8Y18199   3.607   1.372   9.522 -1.6601 -0.7084 -0.7514
  162SOPE   C3918200   3.536   1.576   9.515 -0.1206 -0.0974  0.1962
  162SOPE   H9X18201   3.633   1.626   9.533 -0.5990  1.0580 -0.4063
  162SOPE   H9Y18202   3.472   1.648   9.571  0.2349  1.6523 -1.5904
  162SOPE  C31018203   3.514   1.587   9.360  0.1818  0.1467 -0.2025
  162SOPE  H10X18204   3.407   1.575   9.335  0.0891  0.0890  0.2170
  162SOPE  H10Y18205   3.571   1.514   9.299  3.5463  2.4118  0.0684
  162SOPE  C31118206   3.563   1.726   9.315  0.2383 -0.2250 -0.4296
  162SOPE  H11X18207   3.671   1.729   9.342  0.4873 -0.5540 -1.3617
  162SOPE  H11Y18208   3.508   1.799   9.378 -1.5638 -2.0564  0.1704
  162SOPE  C31218209   3.541   1.765   9.165 -0.0668 -0.3925  0.1361
  162SOPE  H12X18210   3.566   1.873   9.156 -3.3274  0.4653  0.8876
  162SOPE  H12Y18211   3.435   1.770   9.132 -0.7763  0.3177  2.4147
  162SOPE  C31318212   3.622   1.689   9.056 -0.4176  0.3023  0.7344
  162SOPE  H13X18213   3.555   1.604   9.029  0.6191  0.0185 -1.0534
  162SOPE  H13Y18214   3.713   1.652   9.108  1.0093  2.9648  0.2155
  162SOPE  C31418215   3.649   1.768   8.926 -0.3600  0.5866 -0.3971
  162SOPE  H14X18216   3.754   1.750   8.894 -1.0690 -1.0569 -1.9096
  162SOPE  H14Y18217   3.645   1.878   8.945  1.2586  0.5220  0.3314
  162SOPE  C31518218   3.554   1.735   8.804 -0.2877 -0.0642  0.1974
  162SOPE  H15X18219   3.574   1.628   8.781  3.4816  1.0188 -2.0108
  162SOPE  H15Y18220   3.581   1.796   8.716  1.8011 -2.5898 -0.9760
  162SOPE  C31618221   3.408   1.749   8.827 -1.6406  0.7121 -0.0927
  162SOPE  H16X18222   3.395   1.855   8.856  1.7573  0.9505  0.8034
  162SOPE  H16Y18223   3.393   1.682   8.915  0.3486 -1.0011 -1.0061
  162SOPE  C31718224   3.316   1.700   8.711 -0.6686  0.3145  0.4880
  162SOPE  H17X18225   3.339   1.593   8.699 -1.7625 -0.2292  2.9082
  162SOPE  H17Y18226   3.350   1.754   8.620  0.8091 -1.4686 -0.0425
  162SOPE  C31818227   3.172   1.733   8.736  0.3005 -0.6953  0.9097
  162SOPE  H18X18228   3.147   1.682   8.832 -2.9190 -1.8033 -0.4378
  162SOPE  H18Y18229   3.104   1.678   8.667  0.0555 -0.1336  0.6992
  162SOPE  H18Z18230   3.134   1.837   8.736 -0.8272 -1.0884  1.5171
  163SOPE     N18231   4.064   5.746  11.014  0.1591  0.0390 -0.6167
  163SOPE   HN118232   4.095   5.653  11.049 -0.0820  0.3076  0.3095
  163SOPE   HN218233   4.082   5.746  10.911  1.3627 -0.2383 -0.4067
  163SOPE   HN318234   4.139   5.803  11.059 -0.8360  0.1292  0.9571
  163SOPE   C1218235   3.920   5.782  11.060 -1.0558 -0.2305 -0.0994
  163SOPE  H12A18236   3.907   5.892  11.066  0.6006 -0.0112 -0.2739
  163SOPE  H12B18237   3.911   5.738  11.162 -0.2915 -0.1522  0.0002
  163SOPE   C1118238   3.823   5.715  10.968  0.0650  0.7622  0.0515
  163SOPE  H11A18239   3.842   5.745  10.863 -0.1901  0.1497 -0.1750
  163SOPE  H11B18240   3.730   5.767  10.997 -1.4071 -1.5894 -0.3307
  163SOPE     P18241   3.708   5.480  10.936 -0.3145 -0.0270 -0.2644
  163SOPE   O1318242   3.578   5.551  10.946 -0.0672 -0.6454  0.1204
  163SOPE   O1418243   3.717   5.347  10.988  0.6484  0.1554  0.7265
  163SOPE   O1218244   3.817   5.573  10.992  0.3844  0.4991  0.3091
  163SOPE   O1118245   3.747   5.466  10.780  0.2678  0.3264 -0.8865
  163SOPE    C118246   3.882   5.449  10.742 -0.3899 -0.1825 -0.3246
  163SOPE    HA18247   3.931   5.381  10.815  0.1178 -0.5847 -1.0271
  163SOPE    HB18248   3.945   5.541  10.745 -0.4732 -0.1401  0.0551
  163SOPE    C218249   3.887   5.377  10.602  0.1221  0.4083 -0.9294
  163SOPE    HS18250   3.994   5.368  10.572  0.2387 -0.9361 -0.1715
  163SOPE   O2118251   3.804   5.448  10.502  0.0170  0.1232 -0.3296
  163SOPE   C2118252   3.869   5.550  10.444  0.1875 -1.4551  0.1014
  163SOPE   O2218253   3.987   5.575  10.461 -0.1538  0.3251 -0.2966
  163SOPE   C2218254   3.785   5.614  10.337  0.0773 -0.7290  0.5171
  163SOPE   H2R18255   3.800   5.722  10.319  1.0638 -0.6826  1.5269
  163SOPE   H2S18256   3.677   5.597  10.357 -0.8750  0.5821 -3.0882
  163SOPE    C318257   3.834   5.232  10.618 -0.1966 -0.4194  0.1889
  163SOPE    HX18258   3.759   5.222  10.700  0.5329 -0.3518  0.8761
  163SOPE    HY18259   3.920   5.169  10.649 -0.6970 -1.0713  0.2723
  163SOPE   O3118260   3.786   5.178  10.488 -0.4851  0.6831 -0.1286
  163SOPE   C3118261   3.879   5.132  10.416 -0.6346  0.2826 -0.1232
  163SOPE   O3218262   4.001   5.143  10.425 -0.1752 -0.5484  0.3209
  163SOPE   C3218263   3.818   5.054  10.304 -0.2081 -0.8946 -1.1309
  163SOPE   H2X18264   3.709   5.056  10.324  0.0970  0.4048  0.6240
  163SOPE   H2Y18265   3.831   4.945  10.324 -1.5275 -0.7976  0.4045
  163SOPE   C2318266   3.828   5.551  10.201  0.4062 -0.5868 -1.2427
  163SOPE   H3R18267   3.821   5.440  10.204  0.8022 -0.5941  2.4902
  163SOPE   H3S18268   3.932   5.570  10.168  1.1602 -2.2873  0.0945
  163SOPE   C2418269   3.733   5.596  10.090  0.0892 -0.2218  1.0686
  163SOPE   H4R18270   3.625   5.601  10.117 -0.4253  0.4252 -0.9748
  163SOPE   H4S18271   3.754   5.702  10.062 -2.0407 -0.8322 -3.3463
  163SOPE   C2518272   3.742   5.515   9.962  0.3078 -0.0113  0.0843
  163SOPE   H5R18273   3.851   5.524   9.941  0.5207 -1.9678  0.2598
  163SOPE   H5S18274   3.736   5.405   9.977  0.6509  0.1240  1.2438
  163SOPE   C2618275   3.641   5.574   9.859  0.1908 -0.6689  0.0066
  163SOPE   H6R18276   3.549   5.512   9.866  1.0462 -2.0196 -0.6916
  163SOPE   H6S18277   3.614   5.678   9.888 -1.5024 -0.3217 -2.6312
  163SOPE   C2718278   3.704   5.576   9.718 -0.2404  0.5071 -0.2448
  163SOPE   H7R18279   3.808   5.615   9.723 -0.0031 -0.1928  0.2688
  163SOPE   H7S18280   3.713   5.469   9.689 -0.7127  0.5557 -0.5713
  163SOPE   C2818281   3.614   5.642   9.606  0.0407  0.0735  0.2209
  163SOPE   H8R18282   3.512   5.600   9.624 -0.6986  0.0411 -3.6426
  163SOPE   H8S18283   3.603   5.751   9.627 -1.8012 -0.5340  2.7181
  163SOPE   C2918284   3.665   5.617   9.473 -0.2361  0.6395  0.5600
  163SOPE   H9118285   3.770   5.643   9.455  0.3627 -2.5643 -1.0580
  163SOPE  C21018286   3.603   5.568   9.364 -0.0478 -0.4313  0.2935
  163SOPE  H10118287   3.666   5.553   9.275 -2.3457 -1.2340 -1.2435
  163SOPE  C21118288   3.459   5.544   9.346 -0.2244  0.3081 -0.0527
  163SOPE  H11R18289   3.396   5.572   9.433 -2.1910  0.4424 -1.4814
  163SOPE  H11S18290   3.436   5.440   9.314 -1.3961  0.9509 -1.3261
  163SOPE  C21218291   3.398   5.634   9.229  0.1179 -0.0665  0.3481
  163SOPE  H12R18292   3.414   5.740   9.258 -0.2693  0.3577 -0.9264
  163SOPE  H12S18293   3.291   5.609   9.212 -0.2159 -0.2290  2.5667
  163SOPE  C21318294   3.481   5.631   9.094  0.3876  0.4388 -0.4343
  163SOPE  H13R18295   3.523   5.528   9.091  0.2422  0.2726  2.1160
  163SOPE  H13S18296   3.555   5.714   9.094 -1.6038  2.2848 -1.9316
  163SOPE  C21418297   3.392   5.644   8.968  0.2192 -0.0004 -0.1422
  163SOPE  H14R18298   3.316   5.564   8.980  1.1261 -1.0452 -1.1951
  163SOPE  H14S18299   3.447   5.614   8.877 -1.9767  1.3859 -2.0066
  163SOPE  C21518300   3.338   5.787   8.949  0.2493 -0.0566  0.1995
  163SOPE  H15R18301   3.425   5.856   8.950  0.1211  0.1461 -1.4422
  163SOPE  H15S18302   3.281   5.799   9.043  0.6505  0.2907  0.4016
  163SOPE  C21618303   3.261   5.807   8.815  0.3556 -0.2566  0.0391
  163SOPE  H16R18304   3.214   5.907   8.823  0.8362  0.0653 -1.0856
  163SOPE  H16S18305   3.173   5.739   8.813  1.3921 -1.6007 -0.3100
  163SOPE  C21718306   3.343   5.783   8.691  0.1963 -0.1973  0.2603
  163SOPE  H17R18307   3.352   5.676   8.659  0.4592  0.4586 -1.9347
  163SOPE  H17S18308   3.448   5.815   8.708  1.1451 -3.4349  1.0212
  163SOPE  C21818309   3.281   5.856   8.579  0.3614 -0.5417 -0.1088
  163SOPE  H18R18310   3.330   5.818   8.487  1.6532  2.0573 -0.5282
  163SOPE  H18S18311   3.295   5.966   8.587 -1.3913 -0.1371 -2.1143
  163SOPE  H18T18312   3.171   5.847   8.570  0.2741  0.5241 -0.1319
  163SOPE   C3318313   3.850   5.073  10.159 -0.7979 -0.9968  0.3181
  163SOPE   H3X18314   3.905   4.989  10.110  1.7237  0.6599  0.2045
  163SOPE   H3Y18315   3.928   5.151  10.151 -0.2349 -1.6411 -0.6368
  163SOPE   C3418316   3.735   5.133  10.074  0.0875 -0.0762  0.8605
  163SOPE   H4X18317   3.698   5.235  10.096 -2.0024 -0.5825 -0.1967
  163SOPE   H4Y18318   3.656   5.061  10.103 -1.4884  1.8659  1.4270
  163SOPE   C3518319   3.756   5.115   9.922  0.1721  0.2350  1.4933
  163SOPE   H5X18320   3.774   5.007   9.903 -0.1442  0.0546  2.1732
  163SOPE   H5Y18321   3.848   5.175   9.905  0.6596 -0.3446  2.0444
  163SOPE   C3618322   3.635   5.164   9.830  0.4989  0.2765  0.0976
  163SOPE   H6X18323   3.604   5.265   9.865  0.0919  0.1171  0.1984
  163SOPE   H6Y18324   3.563   5.083   9.853  1.8171 -1.2858 -1.1387
  163SOPE   C3718325   3.651   5.158   9.678 -0.6913  0.4331 -0.0066
  163SOPE   H7X18326   3.705   5.065   9.648 -0.3816  0.1588  1.3634
  163SOPE   H7Y18327   3.705   5.251   9.651  0.1444 -0.2228 -0.6816
  163SOPE   C3818328   3.513   5.172   9.614  0.1308  0.0075  0.4786
  163SOPE   H8X18329   3.462   5.258   9.663 -0.0055 -0.4905  1.2062
  163SOPE   H8Y18330   3.456   5.080   9.640  0.2552 -0.4511 -0.8394
  163SOPE   C3918331   3.512   5.209   9.467  0.3023  0.4355 -0.6548
  163SOPE   H9X18332   3.564   5.307   9.459 -0.6121  1.2209  2.4526
  163SOPE   H9Y18333   3.410   5.215   9.424  0.2185  0.8515 -0.3935
  163SOPE  C31018334   3.588   5.116   9.370  0.1584  0.0594  1.2483
  163SOPE  H10X18335   3.546   5.013   9.378 -0.0862 -0.0100 -0.6935
  163SOPE  H10Y18336   3.691   5.097   9.408 -0.4389 -2.3549  1.8041
  163SOPE  C31118337   3.585   5.168   9.225  0.0489  0.5198 -0.4705
  163SOPE  H11X18338   3.635   5.267   9.221 -0.8759  1.0295  0.3052
  163SOPE  H11Y18339   3.479   5.189   9.200  0.4248 -0.1562 -2.7542
  163SOPE  C31218340   3.657   5.078   9.112 -0.6804 -0.7900  1.0957
  163SOPE  H12X18341   3.768   5.082   9.119 -0.6134 -0.7197  0.0288
  163SOPE  H12Y18342   3.643   5.131   9.015 -1.8695 -0.4544  1.4427
  163SOPE  C31318343   3.590   4.942   9.100 -0.6572  0.2173  0.2099
  163SOPE  H13X18344   3.481   4.939   9.119 -0.6165 -0.7867  0.2870
  163SOPE  H13Y18345   3.645   4.878   9.172 -0.0795  2.5485  1.9318
  163SOPE  C31418346   3.601   4.889   8.954 -0.3740 -0.8615 -0.6564
  163SOPE  H14X18347   3.697   4.915   8.904  0.4113 -1.4982  0.5045
  163SOPE  H14Y18348   3.513   4.941   8.910  0.3681  0.7515 -0.3017
  163SOPE  C31518349   3.578   4.739   8.934 -0.4323  0.3386 -0.4030
  163SOPE  H15X18350   3.643   4.666   8.988 -1.1182  0.3595  0.4552
  163SOPE  H15Y18351   3.580   4.731   8.824 -0.0194 -2.2327 -0.2399
  163SOPE  C31618352   3.441   4.686   8.982  0.5000 -0.6253 -0.2876
  163SOPE  H16X18353   3.369   4.762   8.945  3.5921  2.3685 -0.3626
  163SOPE  H16Y18354   3.439   4.705   9.091  1.3383  0.7454 -0.4962
  163SOPE  C31718355   3.410   4.540   8.938  0.2205 -0.6289 -0.1836
  163SOPE  H17X18356   3.489   4.473   8.979  1.8331  0.7147 -1.0342
  163SOPE  H17Y18357   3.425   4.540   8.828 -0.1038  1.7670 -0.2441
  163SOPE  C31818358   3.271   4.499   8.990 -0.6330 -0.2131 -0.0914
  163SOPE  H18X18359   3.267   4.444   9.087  0.3993  2.7449  1.6858
  163SOPE  H18Y18360   3.221   4.428   8.920  2.1224 -0.7075 -1.6099
  163SOPE  H18Z18361   3.216   4.595   8.996 -0.1713 -0.0342  1.5507
  164SOPE     N18362   0.628   3.477  10.754 -0.6921 -0.2891 -0.6099
  164SOPE   HN118363   0.706   3.544  10.768 -0.3212 -0.1899 -2.9320
  164SOPE   HN218364   0.652   3.436  10.661  1.1844  3.5412 -1.9036
  164SOPE   HN318365   0.535   3.522  10.745 -0.7942 -0.0602  1.3949
  164SOPE   C1218366   0.619   3.376  10.863 -0.8740  0.2415 -0.2421
  164SOPE  H12A18367   0.664   3.429  10.949  1.0946  0.2497 -1.2579
  164SOPE  H12B18368   0.681   3.288  10.835  0.3938  0.9115  0.4249
  164SOPE   C1118369   0.477   3.329  10.878  0.6452  1.3838 -0.1864
  164SOPE  H11A18370   0.470   3.251  10.957 -0.1884  0.6166 -0.9980
  164SOPE  H11B18371   0.445   3.280  10.784 -0.9792  1.3581  0.3676
  164SOPE     P18372   0.272   3.481  10.830  0.0352 -0.0812  0.1915
  164SOPE   O1318373   0.224   3.611  10.879 -0.1889  0.6904  0.0604
  164SOPE   O1418374   0.175   3.374  10.806  0.3526 -0.3859 -0.0866
  164SOPE   O1218375   0.391   3.431  10.917  0.2842  0.2790  0.2277
  164SOPE   O1118376   0.349   3.506  10.687  0.1932 -0.5096  0.0181
  164SOPE    C118377   0.335   3.635  10.633  0.0966  0.2363 -0.5275
  164SOPE    HA18378   0.397   3.709  10.688 -0.4667  1.1069 -1.0458
  164SOPE    HB18379   0.230   3.670  10.620 -0.3431 -1.5490 -1.9427
  164SOPE    C218380   0.396   3.641  10.491  0.1296 -0.0460 -0.1335
  164SOPE    HS18381   0.359   3.551  10.436  1.5571  0.7730 -2.5141
  164SOPE   O2118382   0.538   3.654  10.493  0.7245  0.9473  0.0210
  164SOPE   C2118383   0.610   3.602  10.394  0.5937  0.2639  0.3811
  164SOPE   O2218384   0.568   3.528  10.308  0.1238  0.2699  0.2679
  164SOPE   C2218385   0.754   3.656  10.394  0.0311  0.2900  0.1351
  164SOPE   H2R18386   0.801   3.634  10.493  4.1815  1.4824 -1.4544
  164SOPE   H2S18387   0.753   3.765  10.375 -2.9592  0.4689  1.1036
  164SOPE    C318388   0.351   3.767  10.408 -0.1299  0.8711  0.2746
  164SOPE    HX18389   0.402   3.847  10.465  2.6512 -0.3919 -0.3123
  164SOPE    HY18390   0.243   3.790  10.416  0.1009  1.5374  1.5752
  164SOPE   O3118391   0.400   3.756  10.267  0.4060 -0.7980 -0.4154
  164SOPE   C3118392   0.329   3.678  10.191 -0.0727  0.2440  0.2114
  164SOPE   O3218393   0.231   3.612  10.220 -0.4176  0.2364  0.0226
  164SOPE   C3218394   0.393   3.672  10.058 -0.4381  0.5994  0.8450
  164SOPE   H2X18395   0.492   3.622  10.065 -0.5206  0.3204  0.1107
  164SOPE   H2Y18396   0.410   3.769  10.005 -2.2753  0.9100  0.7734
  164SOPE   C2318397   0.836   3.593  10.282 -0.4469 -0.2202 -0.5081
  164SOPE   H3R18398   0.815   3.486  10.261 -2.1439 -0.2737  1.3838
  164SOPE   H3S18399   0.942   3.608  10.312 -0.4485  0.7489 -0.9641
  164SOPE   C2418400   0.806   3.664  10.153  0.1252  0.1411 -0.0979
  164SOPE   H4R18401   0.698   3.680  10.133  0.4173  1.7292 -0.5082
  164SOPE   H4S18402   0.864   3.758  10.162  0.3025  0.1538 -1.3002
  164SOPE   C2518403   0.863   3.581  10.032 -0.7557 -0.3910 -0.5202
  164SOPE   H5R18404   0.969   3.556  10.056  0.0242  0.8848 -2.5462
  164SOPE   H5S18405   0.818   3.480  10.035 -0.6998 -0.4147 -0.4663
  164SOPE   C2618406   0.862   3.646   9.893 -0.4657 -0.5602 -0.1405
  164SOPE   H6R18407   0.797   3.736   9.893  0.0603 -0.1710  0.7429
  164SOPE   H6S18408   0.966   3.673   9.864  0.4394 -1.4953  2.0892
  164SOPE   C2718409   0.809   3.552   9.784  0.5009 -0.7072 -0.2680
  164SOPE   H7R18410   0.844   3.448   9.804  0.9099  0.0159  3.1081
  164SOPE   H7S18411   0.698   3.550   9.794  0.5916 -0.0613  0.9667
  164SOPE   C2818412   0.849   3.602   9.637 -0.4546  0.3260 -0.4247
  164SOPE   H8R18413   0.780   3.688   9.622  1.9124  2.1666 -0.9901
  164SOPE   H8S18414   0.956   3.632   9.639  0.4780 -2.8908  1.3924
  164SOPE   C2918415   0.821   3.495   9.531  0.9362 -0.1520 -0.3770
  164SOPE   H9118416   0.787   3.405   9.586 -0.1827  0.6006  0.1786
  164SOPE  C21018417   0.843   3.500   9.400  0.0572 -0.0003 -0.9167
  164SOPE  H10118418   0.835   3.403   9.349 -1.9830  1.0191 -2.6311
  164SOPE  C21118419   0.898   3.609   9.317  0.2135  0.1160  0.1496
  164SOPE  H11R18420   0.988   3.575   9.261  1.9341  2.1035  1.6532
  164SOPE  H11S18421   0.918   3.708   9.363 -0.5655 -0.0231  0.7752
  164SOPE  C21218422   0.796   3.645   9.201  0.5008 -0.1610 -0.0989
  164SOPE  H12R18423   0.819   3.740   9.150 -1.3811  0.1987 -0.3291
  164SOPE  H12S18424   0.696   3.667   9.245  0.3059 -1.3839  0.1176
  164SOPE  C21318425   0.795   3.545   9.086 -0.9205 -0.2676  0.0038
  164SOPE  H13R18426   0.738   3.454   9.117 -0.5567 -1.3136 -2.2466
  164SOPE  H13S18427   0.899   3.518   9.058 -0.3447  0.8780  0.9933
  164SOPE  C21418428   0.716   3.603   8.968 -0.1399  0.0425 -0.1837
  164SOPE  H14R18429   0.623   3.652   9.005 -2.4329 -3.8534 -0.4313
  164SOPE  H14S18430   0.673   3.518   8.911  1.6376 -0.0432 -1.4346
  164SOPE  C21518431   0.799   3.698   8.891 -0.2337 -0.4045 -0.2325
  164SOPE  H15R18432   0.870   3.646   8.823 -1.8072 -0.9944 -1.4811
  164SOPE  H15S18433   0.863   3.767   8.950  1.5811  0.1733 -2.7587
  164SOPE  C21618434   0.709   3.797   8.809  0.5378 -0.6144 -0.3086
  164SOPE  H16R18435   0.655   3.865   8.879  1.0120 -1.2370  0.6739
  164SOPE  H16S18436   0.635   3.739   8.751 -0.7174  0.6096  0.0370
  164SOPE  C21718437   0.792   3.872   8.709 -0.0203 -0.2792 -0.4111
  164SOPE  H17R18438   0.834   3.795   8.641 -0.3462 -0.8473  0.0278
  164SOPE  H17S18439   0.880   3.921   8.757 -0.8980 -1.2551  2.3107
  164SOPE  C21818440   0.723   3.983   8.627 -0.8331 -0.1741 -0.1805
  164SOPE  H18R18441   0.771   3.995   8.527  0.0092  0.5214  0.3074
  164SOPE  H18S18442   0.727   4.078   8.684 -0.4199 -0.9455  1.1032
  164SOPE  H18T18443   0.616   3.957   8.614 -0.6419 -1.3916  0.5843
  164SOPE   C3318444   0.312   3.588   9.955 -0.1101  0.1988  0.2256
  164SOPE   H3X18445   0.220   3.646   9.933 -2.3309 -2.9488  0.8339
  164SOPE   H3Y18446   0.271   3.492   9.995  1.4768 -0.7293 -0.3544
  164SOPE   C3418447   0.382   3.549   9.831  0.8704 -0.9645 -0.2759
  164SOPE   H4X18448   0.321   3.476   9.774 -0.8188 -0.3050  0.6462
  164SOPE   H4Y18449   0.485   3.515   9.855  1.1741 -1.3027 -2.0108
  164SOPE   C3518450   0.414   3.661   9.727  0.4731 -0.1225 -1.0367
  164SOPE   H5X18451   0.487   3.738   9.761  1.9576 -2.5418  1.4751
  164SOPE   H5Y18452   0.314   3.703   9.703 -1.0003 -2.0852  1.4711
  164SOPE   C3618453   0.478   3.593   9.602 -0.3129  0.4355 -0.5168
  164SOPE   H6X18454   0.520   3.491   9.618 -0.9977 -0.4120 -3.9022
  164SOPE   H6Y18455   0.561   3.655   9.562  2.6627 -1.6740  2.0726
  164SOPE   C3718456   0.383   3.571   9.491 -0.0844 -0.7128  0.4649
  164SOPE   H7X18457   0.353   3.670   9.450 -0.4666 -1.2634 -0.6041
  164SOPE   H7Y18458   0.295   3.511   9.524 -0.5711 -0.4239 -0.2723
  164SOPE   C3818459   0.440   3.507   9.365  0.1764 -0.0713 -0.3162
  164SOPE   H8X18460   0.477   3.402   9.374 -4.1974 -1.7184 -0.3988
  164SOPE   H8Y18461   0.527   3.568   9.332 -0.9234  0.6086 -1.9838
  164SOPE   C3918462   0.343   3.511   9.245 -0.6289  0.0317 -0.2744
  164SOPE   H9X18463   0.240   3.487   9.278  0.7111 -2.7342  2.1505
  164SOPE   H9Y18464   0.383   3.433   9.175 -0.1936  1.0511 -1.1812
  164SOPE  C31018465   0.341   3.642   9.167 -0.5921 -0.5207 -0.7307
  164SOPE  H10X18466   0.443   3.682   9.151 -0.2903 -0.8419  0.3082
  164SOPE  H10Y18467   0.285   3.720   9.222  0.0346  1.0618 -2.3099
  164SOPE  C31118468   0.283   3.628   9.031  0.2849  0.1620 -0.2119
  164SOPE  H11X18469   0.190   3.568   9.043  0.9265 -0.6321  0.8181
  164SOPE  H11Y18470   0.353   3.564   8.973  1.9341  1.2999  0.5102
  164SOPE  C31218471   0.265   3.760   8.950  0.1310 -0.3470 -0.1306
  164SOPE  H12X18472   0.364   3.810   8.947  1.1844 -2.4297 -1.3144
  164SOPE  H12Y18473   0.187   3.808   9.013 -0.4082 -0.3838 -0.7653
  164SOPE  C31318474   0.210   3.732   8.812 -0.1293 -0.1430  0.2733
  164SOPE  H13X18475   0.149   3.817   8.774  1.5765  2.2740  2.6812
  164SOPE  H13Y18476   0.139   3.648   8.826 -2.8217  1.9626 -0.4177
  164SOPE  C31418477   0.319   3.699   8.708 -0.4918 -0.2799 -0.3817
  164SOPE  H14X18478   0.373   3.608   8.743 -0.4176  0.2787  1.0111
  164SOPE  H14Y18479   0.403   3.772   8.711 -2.8055  2.5355 -1.6623
  164SOPE  C31518480   0.278   3.690   8.558  0.2734  0.3269 -0.1515
  164SOPE  H15X18481   0.236   3.789   8.531 -0.1960 -0.4904 -2.5563
  164SOPE  H15Y18482   0.193   3.620   8.544  3.0678 -3.0183 -1.1261
  164SOPE  C31618483   0.386   3.642   8.457 -0.3699  0.4203 -0.2151
  164SOPE  H16X18484   0.330   3.603   8.369 -0.5852  1.3958 -0.5127
  164SOPE  H16Y18485   0.442   3.556   8.499 -2.4333 -0.4426  0.8306
  164SOPE  C31718486   0.472   3.760   8.422 -1.1032  0.0451  0.3612
  164SOPE  H17X18487   0.509   3.817   8.510 -0.5391 -0.9476  0.7712
  164SOPE  H17Y18488   0.413   3.839   8.372 -1.0806  0.3891  0.8795
  164SOPE  C31818489   0.602   3.721   8.342  0.7764  0.5312 -0.5078
  164SOPE  H18X18490   0.651   3.632   8.388 -1.4920  0.9132  2.8779
  164SOPE  H18Y18491   0.682   3.799   8.337  1.2637  0.0759  0.0426
  164SOPE  H18Z18492   0.573   3.698   8.238 -2.6098  4.4997 -0.5963
  165SOPE     N18493   5.069   3.483  10.943 -0.2876 -0.0778 -0.1493
  165SOPE   HN118494   5.087   3.570  10.996 -0.3412 -0.8623  1.1672
  165SOPE   HN218495   4.966   3.470  10.935 -0.0999 -1.2382 -0.7834
  165SOPE   HN318496   5.109   3.410  11.005  0.8285  0.3189 -0.3992
  165SOPE   C1218497   5.132   3.498  10.802  0.1092  0.2015  0.1478
  165SOPE  H12A18498   5.097   3.407  10.748  0.1496  0.0006  0.4562
  165SOPE  H12B18499   5.243   3.491  10.813  0.1855 -2.1563 -1.7485
  165SOPE   C1118500   5.067   3.620  10.734 -0.3572 -0.9845  0.1937
  165SOPE  H11A18501   4.956   3.610  10.731 -0.7872  1.9679  2.9215
  165SOPE  H11B18502   5.110   3.627  10.632  0.1266  0.3323  0.4702
  165SOPE     P18503   5.015   3.868  10.792 -0.4158  0.3131  0.2533
  165SOPE   O1318504   5.092   3.976  10.861  0.3235  0.1199 -0.1393
  165SOPE   O1418505   4.878   3.847  10.842 -0.1624 -0.6006  0.1776
  165SOPE   O1218506   5.098   3.739  10.801  0.0802 -0.3133 -0.2995
  165SOPE   O1118507   5.007   3.909  10.643 -0.0013  0.5296  0.0007
  165SOPE    C118508   5.120   3.973  10.585 -0.2494 -1.1354  0.0114
  165SOPE    HA18509   5.158   3.912  10.500  1.1995 -1.1719  0.6660
  165SOPE    HB18510   5.208   3.967  10.652  0.1616  1.0854 -0.2822
  165SOPE    C218511   5.093   4.123  10.556  0.1811  0.7167  0.5414
  165SOPE    HS18512   5.038   4.164  10.644 -1.3154 -1.3776  0.6077
  165SOPE   O2118513   5.007   4.117  10.440 -0.5752 -0.4033 -0.0108
  165SOPE   C2118514   4.976   4.224  10.389 -0.1240 -0.1551 -0.0489
  165SOPE   O2218515   4.981   4.334  10.440  0.1768 -0.1713  0.3296
  165SOPE   C2218516   4.944   4.196  10.239 -0.9153 -0.1539 -0.1957
  165SOPE   H2R18517   4.852   4.255  10.219 -0.6570  0.1973 -0.3521
  165SOPE   H2S18518   4.911   4.091  10.225 -0.2643 -0.4011  0.0801
  165SOPE    C318519   5.227   4.202  10.528 -0.4245  0.4418 -0.0212
  165SOPE    HX18520   5.280   4.184  10.624  0.3123 -0.8428 -0.6669
  165SOPE    HY18521   5.203   4.309  10.509 -2.2552  0.5238  2.5173
  165SOPE   O3118522   5.299   4.143  10.413 -0.0399 -0.2781  0.6380
  165SOPE   C3118523   5.427   4.179  10.407 -0.2720 -0.0990 -0.5478
  165SOPE   O3218524   5.472   4.268  10.481  0.4420 -0.0998  0.0501
  165SOPE   C3218525   5.507   4.080  10.317  0.1453 -0.2160 -0.2596
  165SOPE   H2X18526   5.453   4.063  10.222  1.0330  1.9067 -1.1685
  165SOPE   H2Y18527   5.510   3.986  10.377  0.3277  1.4682  2.4891
  165SOPE   C2318528   5.072   4.218  10.140  0.8069 -0.4782  0.2196
  165SOPE   H3R18529   5.164   4.169  10.178  1.3519 -0.9460 -1.6396
  165SOPE   H3S18530   5.088   4.328  10.133 -1.4691  0.0064  2.0356
  165SOPE   C2418531   5.049   4.174   9.997  0.2394 -0.5717  0.1346
  165SOPE   H4R18532   5.013   4.069  10.001  0.8824 -0.7520  1.2285
  165SOPE   H4S18533   4.969   4.233   9.948  0.4725  0.2123  0.6984
  165SOPE   C2518534   5.173   4.194   9.920  0.0136  0.4865  0.6888
  165SOPE   H5R18535   5.228   4.288   9.940  0.9980  0.2433 -0.8159
  165SOPE   H5S18536   5.243   4.110   9.940  0.0011  0.6943  1.6330
  165SOPE   C2618537   5.148   4.202   9.773  0.9214 -0.8907 -0.0116
  165SOPE   H6R18538   5.251   4.190   9.734  0.9817 -0.0090 -0.1309
  165SOPE   H6S18539   5.090   4.118   9.728 -0.4513 -0.5375  1.0637
  165SOPE   C2718540   5.098   4.340   9.728  0.2259 -0.3422  0.5003
  165SOPE   H7R18541   4.989   4.348   9.752 -0.1912  4.2560 -2.1871
  165SOPE   H7S18542   5.139   4.423   9.789 -1.2676  1.1263 -0.4250
  165SOPE   C2818543   5.109   4.360   9.575 -0.6206 -0.2322 -0.6527
  165SOPE   H8R18544   5.084   4.261   9.531  2.7155 -0.7201 -1.5998
  165SOPE   H8S18545   5.030   4.431   9.543  0.2933  0.4560 -1.4235
  165SOPE   C2918546   5.248   4.390   9.519 -0.6329 -0.1331  0.1182
  165SOPE   H9118547   5.335   4.348   9.573 -0.5893  0.2628  0.3598
  165SOPE  C21018548   5.278   4.487   9.430 -0.2374 -0.4432 -0.4536
  165SOPE  H10118549   5.384   4.497   9.400  0.1745 -1.6659  0.5560
  165SOPE  C21118550   5.185   4.580   9.356 -0.4165  0.1310  0.1121
  165SOPE  H11R18551   5.211   4.685   9.384  1.9598 -0.2438 -0.5165
  165SOPE  H11S18552   5.082   4.569   9.394 -1.1361  1.0874 -1.5199
  165SOPE  C21218553   5.160   4.545   9.205 -0.6384 -0.1386 -0.2286
  165SOPE  H12R18554   5.168   4.436   9.191  1.8602  0.0722 -0.6680
  165SOPE  H12S18555   5.245   4.594   9.152  0.2788 -1.3256  0.1206
  165SOPE  C21318556   5.040   4.609   9.143  0.5509  0.0173  0.2543
  165SOPE  H13R18557   5.015   4.697   9.206 -0.2133 -1.6749  2.3540
  165SOPE  H13S18558   4.969   4.526   9.163  1.5753 -1.3416 -1.4962
  165SOPE  C21418559   5.058   4.641   8.995 -0.3470  0.4661  0.5660
  165SOPE  H14R18560   5.072   4.549   8.934  2.3445 -0.1700  2.1013
  165SOPE  H14S18561   5.148   4.704   8.975  0.2415 -1.0818 -1.8375
  165SOPE  C21518562   4.943   4.728   8.934  0.2855  0.3270 -0.0625
  165SOPE  H15R18563   4.916   4.816   8.995 -0.2592  0.3515 -0.3321
  165SOPE  H15S18564   4.853   4.662   8.942  1.0149 -0.8528 -1.3901
  165SOPE  C21618565   4.958   4.770   8.777  0.5448  0.5224  0.0358
  165SOPE  H16R18566   5.045   4.840   8.776  1.3863 -0.5168  0.1328
  165SOPE  H16S18567   4.863   4.816   8.743  0.3311 -1.4668 -2.1485
  165SOPE  C21718568   4.998   4.660   8.676 -0.1871  0.8969  0.8188
  165SOPE  H17R18569   4.935   4.571   8.695  0.1068  0.3709 -0.5917
  165SOPE  H17S18570   5.101   4.624   8.696 -0.7739 -1.5134 -0.4297
  165SOPE  C21818571   4.991   4.704   8.525  0.1345 -0.3378 -0.6037
  165SOPE  H18R18572   5.051   4.797   8.518 -0.3691  0.1823  1.6466
  165SOPE  H18S18573   4.888   4.729   8.490  0.3970  1.1173 -0.3820
  165SOPE  H18T18574   5.046   4.637   8.456  4.5315  0.8222  1.6448
  165SOPE   C3318575   5.661   4.112  10.304 -0.1204  0.3981 -0.2860
  165SOPE   H3X18576   5.715   4.028  10.255  0.3865  0.4125  0.2383
  165SOPE   H3Y18577   5.691   4.127  10.410 -1.0888  1.3805 -0.1361
  165SOPE   C3418578   5.686   4.239  10.211 -0.1024  0.2667 -0.3104
  165SOPE   H4X18579   5.794   4.263  10.209  0.8438 -3.7051 -0.7667
  165SOPE   H4Y18580   5.633   4.330  10.247  1.8085  0.8137  1.1602
  165SOPE   C3518581   5.638   4.230  10.063  0.1081  0.2289 -0.1181
  165SOPE   H5X18582   5.529   4.212  10.072  0.1031 -0.6550 -1.9193
  165SOPE   H5Y18583   5.687   4.148  10.007  3.3494  0.5925  2.0168
  165SOPE   C3618584   5.689   4.358   9.985 -0.6218 -0.2987  0.6520
  165SOPE   H6X18585   5.792   4.380  10.019  0.1073 -2.4150 -0.0935
  165SOPE   H6Y18586   5.630   4.447  10.016 -1.9310 -0.6850 -0.6232
  165SOPE   C3718587   5.703   4.334   9.825  0.0747 -0.1878 -0.2980
  165SOPE   H7X18588   5.723   4.433   9.778 -1.0215  1.1430  1.9603
  165SOPE   H7Y18589   5.606   4.301   9.782 -0.5176  1.7662 -0.4808
  165SOPE   C3818590   5.820   4.237   9.781 -0.3212  0.2420  0.3226
  165SOPE   H8X18591   5.806   4.136   9.825 -0.5120 -0.4757 -1.3759
  165SOPE   H8Y18592   5.912   4.268   9.835  0.9878 -1.2963 -0.9761
  165SOPE   C3918593   5.842   4.229   9.631  0.2257  0.4388  0.3459
  165SOPE   H9X18594   5.945   4.202   9.600 -0.7589 -1.8667 -1.0609
  165SOPE   H9Y18595   5.828   4.328   9.581 -0.4472  1.2034  1.9916
  165SOPE  C31018596   5.730   4.135   9.573 -0.4299 -0.8958 -0.0471
  165SOPE  H10X18597   5.626   4.169   9.594 -0.2346 -0.0228 -0.4651
  165SOPE  H10Y18598   5.745   4.035   9.618  0.8912 -0.1687  1.1839
  165SOPE  C31118599   5.733   4.127   9.423  0.2778 -0.6764  0.7815
  165SOPE  H11X18600   5.693   4.034   9.377 -2.1390 -0.0866  1.6024
  165SOPE  H11Y18601   5.837   4.139   9.387 -0.3470 -1.4489 -1.3332
  165SOPE  C31218602   5.674   4.251   9.362 -0.0943  0.2176 -0.5873
  165SOPE  H12X18603   5.724   4.342   9.402 -0.8895  0.1475  0.5774
  165SOPE  H12Y18604   5.568   4.265   9.392 -0.4187 -1.6831 -0.7411
  165SOPE  C31318605   5.680   4.245   9.202 -0.2670 -0.0464 -0.1261
  165SOPE  H13X18606   5.605   4.167   9.176 -0.6381 -0.3666  1.7874
  165SOPE  H13Y18607   5.784   4.234   9.165 -0.3767  0.5235 -0.6039
  165SOPE  C31418608   5.625   4.372   9.143 -0.0508  0.3229 -0.2339
  165SOPE  H14X18609   5.695   4.457   9.159  0.0555  0.1917  0.0030
  165SOPE  H14Y18610   5.521   4.394   9.175 -0.2190 -0.2881 -0.3532
  165SOPE  C31518611   5.619   4.364   8.986 -1.0310  0.2043  0.1170
  165SOPE  H15X18612   5.559   4.281   8.942 -0.6879 -0.4928  0.9425
  165SOPE  H15Y18613   5.724   4.369   8.952 -0.7565 -0.6240  0.8059
  165SOPE  C31618614   5.547   4.489   8.927 -0.3186 -0.4814  0.2486
  165SOPE  H16X18615   5.595   4.584   8.959 -2.5323  0.2649  1.5348
  165SOPE  H16Y18616   5.445   4.494   8.971 -0.5607 -0.8403 -0.2686
  165SOPE  C31718617   5.552   4.485   8.771 -0.1890  0.5239  0.8092
  165SOPE  H17X18618   5.520   4.388   8.727  1.6656  0.8437 -1.3631
  165SOPE  H17Y18619   5.657   4.503   8.739 -0.6612  1.0866 -0.4663
  165SOPE  C31818620   5.459   4.591   8.712 -0.4073 -0.0965 -0.0669
  165SOPE  H18X18621   5.365   4.591   8.771 -0.6595  2.0081 -0.4177
  165SOPE  H18Y18622   5.420   4.584   8.608 -1.8408 -2.0680  0.5584
  165SOPE  H18Z18623   5.510   4.687   8.735  0.0271 -0.7096  1.5796
  166SOPE     N18624   2.617   4.634  11.114  0.0019  0.4575  0.4630
  166SOPE   HN118625   2.541   4.688  11.069 -2.5143 -0.8272  3.0341
  166SOPE   HN218626   2.600   4.629  11.217  0.3142 -1.8503  0.4315
  166SOPE   HN318627   2.705   4.688  11.101  0.4596 -0.9347 -2.6691
  166SOPE   C1218628   2.628   4.506  11.037  0.0360  1.1074 -0.2601
  166SOPE  H12A18629   2.718   4.452  11.074 -1.3293 -1.4640 -0.5958
  166SOPE  H12B18630   2.664   4.536  10.937  1.1932  2.3068  0.5012
  166SOPE   C1118631   2.502   4.424  11.060 -0.5668  0.3002  0.8735
  166SOPE  H11A18632   2.504   4.394  11.167  1.7951  3.8169  1.9044
  166SOPE  H11B18633   2.504   4.329  11.003 -2.8236  1.0651 -0.5172
  166SOPE     P18634   2.254   4.436  10.968  0.0958 -0.3993 -0.1434
  166SOPE   O1318635   2.161   4.547  10.935 -0.6843 -0.1445  0.0089
  166SOPE   O1418636   2.214   4.325  11.055  0.4160 -0.4954 -0.2345
  166SOPE   O1218637   2.382   4.505  11.042 -0.1189 -0.1928 -0.0552
  166SOPE   O1118638   2.312   4.388  10.834 -0.3069  0.0601  0.2048
  166SOPE    C118639   2.390   4.481  10.751 -0.0834 -0.0788 -0.2164
  166SOPE    HA18640   2.481   4.418  10.735  0.7353  0.8164  0.7672
  166SOPE    HB18641   2.426   4.569  10.809  4.2922 -1.5841 -0.4014
  166SOPE    C218642   2.332   4.509  10.608 -0.5027  0.2144  0.1226
  166SOPE    HS18643   2.408   4.576  10.561 -0.6823  1.1682  1.1617
  166SOPE   O2118644   2.213   4.584  10.615 -0.0016 -0.6078 -0.5561
  166SOPE   C2118645   2.225   4.706  10.652 -0.6505 -0.2128  0.8057
  166SOPE   O2218646   2.324   4.765  10.674  0.1743 -0.3290  0.2415
  166SOPE   C2218647   2.091   4.774  10.651 -0.0238  0.4513 -0.5071
  166SOPE   H2R18648   2.113   4.882  10.632  3.2614 -0.1785 -0.6131
  166SOPE   H2S18649   2.057   4.757  10.755 -0.6749 -1.4676 -1.0103
  166SOPE    C318650   2.328   4.369  10.539 -0.0888 -0.2059  0.4368
  166SOPE    HX18651   2.287   4.296  10.613 -1.4973  0.0300 -0.1064
  166SOPE    HY18652   2.435   4.340  10.525 -0.5111 -1.6007 -0.0903
  166SOPE   O3118653   2.258   4.375  10.412 -0.1797  0.6254  0.4358
  166SOPE   C3118654   2.136   4.325  10.418 -0.4894 -0.2136 -0.6776
  166SOPE   O3218655   2.076   4.276  10.518 -0.3013 -0.7529  0.2953
  166SOPE   C3218656   2.067   4.342  10.280  0.5295  0.4757  0.3264
  166SOPE   H2X18657   1.975   4.403  10.292 -0.3066  0.0076 -3.2646
  166SOPE   H2Y18658   2.034   4.238  10.259 -2.3217  0.6486  3.4621
  166SOPE   C2318659   1.995   4.726  10.538 -0.4325  0.5665 -0.4157
  166SOPE   H3R18660   1.906   4.792  10.544  0.4692  1.8106 -0.6474
  166SOPE   H3S18661   1.956   4.625  10.563 -0.5547  0.3966 -1.2599
  166SOPE   C2418662   2.059   4.716  10.400 -0.5423 -0.0400  0.8120
  166SOPE   H4R18663   2.147   4.648  10.402 -0.4017  0.0794 -0.8588
  166SOPE   H4S18664   1.986   4.667  10.333 -1.4573  0.5961  1.3328
  166SOPE   C2518665   2.099   4.856  10.360 -0.4004  0.3942  1.1369
  166SOPE   H5R18666   2.015   4.921  10.395  0.2443  0.4237  2.6798
  166SOPE   H5S18667   2.193   4.887  10.409  0.0287 -1.2810  1.3980
  166SOPE   C2618668   2.128   4.858  10.209  0.0220 -0.2721 -0.6896
  166SOPE   H6R18669   2.175   4.954  10.177  0.0031  0.3094  1.0038
  166SOPE   H6S18670   2.187   4.771  10.175  0.2901  0.3719 -1.9017
  166SOPE   C2718671   1.999   4.853  10.120  0.2190  0.6156 -0.1423
  166SOPE   H7R18672   1.995   4.759  10.062 -1.7860  0.4733  0.2000
  166SOPE   H7S18673   1.911   4.864  10.187 -0.8580  1.5125 -1.6831
  166SOPE   C2818674   1.996   4.967  10.016  0.5480  0.0509 -0.6975
  166SOPE   H8R18675   2.002   5.062  10.072  1.7163  0.0297 -0.7796
  166SOPE   H8S18676   2.089   4.945   9.959  0.9874  1.9539 -0.7616
  166SOPE   C2918677   1.866   4.954   9.935  0.6418  0.3576 -0.4135
  166SOPE   H9118678   1.773   4.916   9.980  0.2260  0.7737 -0.9108
  166SOPE  C21018679   1.851   4.963   9.800 -0.2280 -0.1796  0.1459
  166SOPE  H10118680   1.756   4.939   9.751  0.3506  0.1341 -1.1493
  166SOPE  C21118681   1.957   5.000   9.700 -0.1746  0.2255  0.4737
  166SOPE  H11R18682   2.027   4.919   9.671 -0.5060 -0.1639  0.7493
  166SOPE  H11S18683   2.018   5.080   9.747 -1.6163  1.7814 -0.2898
  166SOPE  C21218684   1.908   5.054   9.567  0.6182  0.0455  0.1334
  166SOPE  H12R18685   1.832   5.134   9.578  0.8851  0.0987  1.7625
  166SOPE  H12S18686   1.864   4.973   9.505  1.4454  1.4693 -2.3748
  166SOPE  C21318687   2.024   5.105   9.475  0.3430  0.0988 -0.5857
  166SOPE  H13R18688   2.098   5.033   9.433 -2.1135 -2.2723 -0.9895
  166SOPE  H13S18689   2.082   5.184   9.526  0.3252 -0.4373  0.2740
  166SOPE  C21418690   1.964   5.177   9.349  0.6023  0.1946 -0.6766
  166SOPE  H14R18691   1.916   5.271   9.384 -0.4175  0.5226 -2.8876
  166SOPE  H14S18692   1.883   5.117   9.303  1.6502  0.1603 -2.5329
  166SOPE  C21518693   2.073   5.205   9.245  0.0857  0.3497 -0.0643
  166SOPE  H15R18694   1.996   5.247   9.178  0.9420 -0.0814 -1.3260
  166SOPE  H15S18695   2.115   5.112   9.200  1.8248  0.9186  0.3383
  166SOPE  C21618696   2.170   5.320   9.272 -0.0200 -0.6976  0.2855
  166SOPE  H16R18697   2.242   5.282   9.348  0.9851  1.6334  0.5441
  166SOPE  H16S18698   2.107   5.403   9.311  1.1283  1.4021 -2.1691
  166SOPE  C21718699   2.239   5.381   9.149  0.3974 -0.1060  0.0397
  166SOPE  H17R18700   2.157   5.385   9.074  0.9249  1.7364 -0.4633
  166SOPE  H17S18701   2.307   5.302   9.110 -1.1449 -0.2389 -2.4557
  166SOPE  C21818702   2.297   5.516   9.159 -0.2305 -0.2377 -0.8228
  166SOPE  H18R18703   2.355   5.517   9.254 -0.5308 -0.4452 -0.6378
  166SOPE  H18S18704   2.209   5.582   9.168  1.3675  2.2296 -2.6935
  166SOPE  H18T18705   2.361   5.540   9.071  1.7083  1.7952  1.0701
  166SOPE   C3318706   2.154   4.398  10.163  0.2003  0.5873 -0.2502
  166SOPE   H3X18707   2.227   4.328  10.117  3.9479  2.4457  2.5952
  166SOPE   H3Y18708   2.223   4.473  10.208  0.7821  0.5756 -1.1110
  166SOPE   C3418709   2.070   4.460  10.051 -0.4776 -0.1077  0.0325
  166SOPE   H4X18710   1.998   4.538  10.083 -0.9929 -0.9680  0.9885
  166SOPE   H4Y18711   2.013   4.374  10.011  0.5615  0.2953 -2.3922
  166SOPE   C3518712   2.152   4.537   9.945  0.4577  0.5850  0.6466
  166SOPE   H5X18713   2.231   4.477   9.895 -0.2610  0.9996 -1.0224
  166SOPE   H5Y18714   2.203   4.622   9.996  0.5075  0.0843  1.4450
  166SOPE   C3618715   2.071   4.613   9.839 -0.2935  0.0938 -0.5546
  166SOPE   H6X18716   2.144   4.668   9.776  1.5238 -0.7835  0.7399
  166SOPE   H6Y18717   1.997   4.686   9.877 -0.8445 -0.4660 -0.5463
  166SOPE   C3718718   1.988   4.513   9.750 -0.0476 -0.1675 -0.3482
  166SOPE   H7X18719   1.907   4.466   9.811 -0.5504  0.1816 -0.7383
  166SOPE   H7Y18720   2.054   4.431   9.716  0.9612  0.6278 -0.3186
  166SOPE   C3818721   1.919   4.582   9.627 -0.5054 -0.6564  0.5319
  166SOPE   H8X18722   1.872   4.677   9.659  2.8703  1.0674  0.5478
  166SOPE   H8Y18723   1.840   4.520   9.580  1.3533 -0.6123 -2.8213
  166SOPE   C3918724   2.015   4.625   9.512 -0.8420  0.6896 -0.2919
  166SOPE   H9X18725   2.083   4.546   9.474  0.2740  2.3994 -1.9284
  166SOPE   H9Y18726   2.069   4.715   9.547  1.3700 -1.2509  1.3911
  166SOPE  C31018727   1.927   4.672   9.394  0.0594  0.3666  0.2136
  166SOPE  H10X18728   1.860   4.752   9.431  0.2164 -1.0044  3.6736
  166SOPE  H10Y18729   1.877   4.580   9.358 -0.8141  0.1585  1.9176
  166SOPE  C31118730   2.014   4.722   9.284  0.1536  0.4493 -0.1492
  166SOPE  H11X18731   2.070   4.632   9.250  0.8394  0.0427  2.0028
  166SOPE  H11Y18732   2.095   4.790   9.319 -1.2017  1.7603  0.4867
  166SOPE  C31218733   1.945   4.803   9.180  0.3547 -0.0111 -0.0411
  166SOPE  H12X18734   1.886   4.890   9.217 -1.9374 -1.0580 -1.1103
  166SOPE  H12Y18735   1.867   4.732   9.145 -0.2097 -0.6047  2.2737
  166SOPE  C31318736   2.034   4.843   9.064 -0.2052  0.2673  0.4573
  166SOPE  H13X18737   2.143   4.835   9.084 -0.0374  1.4358  0.0492
  166SOPE  H13Y18738   2.011   4.944   9.022 -0.9823  0.2074  0.7298
  166SOPE  C31418739   2.004   4.747   8.942  0.0007  1.0529 -0.6627
  166SOPE  H14X18740   1.898   4.757   8.911  0.7453  3.1078 -2.7146
  166SOPE  H14Y18741   2.045   4.646   8.966 -1.0212  1.1964  1.7233
  166SOPE  C31518742   2.086   4.794   8.817  0.8085  0.2846 -0.6878
  166SOPE  H15X18743   2.186   4.802   8.863  0.0441 -2.5569  1.6479
  166SOPE  H15Y18744   2.045   4.891   8.781  0.8132  0.1899 -0.9468
  166SOPE  C31618745   2.089   4.684   8.712 -0.2287  0.3344 -0.5784
  166SOPE  H16X18746   1.990   4.661   8.667 -1.5190  2.2153  1.1876
  166SOPE  H16Y18747   2.125   4.604   8.780  1.3956  2.1970  0.8206
  166SOPE  C31718748   2.205   4.690   8.609  0.0774  0.9546  0.7756
  166SOPE  H17X18749   2.293   4.660   8.670 -0.5391 -0.4892  0.9607
  166SOPE  H17Y18750   2.218   4.792   8.565 -1.1046 -0.4945 -3.1665
  166SOPE  C31818751   2.182   4.583   8.502 -0.1577  1.1400  0.3423
  166SOPE  H18X18752   2.185   4.490   8.563  0.9602  1.2553  0.4761
  166SOPE  H18Y18753   2.262   4.586   8.425 -0.0559 -1.8690  0.2669
  166SOPE  H18Z18754   2.079   4.591   8.462 -0.8050 -1.4718  1.4069
  167SOPE     N18755   3.365   3.341   5.897 -0.0153  0.0783  0.2347
  167SOPE   HN118756   3.384   3.246   5.936 -0.0603 -1.3875 -3.1480
  167SOPE   HN218757   3.395   3.340   5.797  2.0284  2.0393  0.7780
  167SOPE   HN318758   3.416   3.405   5.960 -2.5594  0.5014  1.9138
  167SOPE   C1218759   3.219   3.378   5.901 -0.0901  0.3468 -0.1842
  167SOPE  H12A18760   3.183   3.326   5.810 -1.9285 -1.9588  1.8021
  167SOPE  H12B18761   3.215   3.489   5.895  1.7489  0.3995 -0.5390
  167SOPE   C1118762   3.161   3.338   6.035  0.5349  0.2354  0.1179
  167SOPE  H11A18763   3.069   3.400   6.047  1.1524  1.8375 -3.0531
  167SOPE  H11B18764   3.222   3.359   6.125  0.7344  3.4900 -0.7145
  167SOPE     P18765   3.213   3.092   6.089 -0.1550 -0.1935  0.0165
  167SOPE   O1318766   3.344   3.110   6.023 -0.2831  0.4458 -0.1789
  167SOPE   O1418767   3.154   2.960   6.070  0.6481  0.2037  0.5423
  167SOPE   O1218768   3.116   3.200   6.027 -0.1039 -0.1122  0.0260
  167SOPE   O1118769   3.228   3.128   6.243 -0.3872  0.0961  0.2115
  167SOPE    C118770   3.110   3.158   6.324  0.5635  0.3961 -0.1538
  167SOPE    HA18771   3.026   3.210   6.273  0.0188 -1.7086 -1.4352
  167SOPE    HB18772   3.141   3.226   6.406 -1.5256  2.0284 -0.6862
  167SOPE    C218773   3.053   3.024   6.380  0.1268  0.9941  0.3373
  167SOPE    HS18774   3.000   2.970   6.298  1.9305  2.3549 -1.7902
  167SOPE   O2118775   2.973   3.059   6.491  0.6002  0.2888  0.2081
  167SOPE   C2118776   2.854   3.003   6.496 -0.3484 -0.5185  0.3133
  167SOPE   O2218777   2.796   2.939   6.407  0.0943 -0.0842 -0.6684
  167SOPE   C2218778   2.803   3.029   6.634 -0.0997 -0.5998 -0.3583
  167SOPE   H2R18779   2.720   2.956   6.649 -2.0040  1.3969 -0.9948
  167SOPE   H2S18780   2.759   3.131   6.637 -0.8215 -0.8810 -1.0879
  167SOPE    C318781   3.163   2.923   6.428  0.1904  0.5297  0.1140
  167SOPE    HX18782   3.253   2.989   6.433 -0.8597  1.9086  1.0068
  167SOPE    HY18783   3.165   2.855   6.340  0.5248  1.4094 -0.5709
  167SOPE   O3118784   3.131   2.848   6.550 -0.2001 -0.2749 -0.2133
  167SOPE   C3118785   3.235   2.806   6.610  0.4238  0.3127 -0.6865
  167SOPE   O3218786   3.354   2.808   6.567  0.1478 -0.3814 -0.0068
  167SOPE   C3218787   3.190   2.733   6.733  0.6484  0.1831  0.7841
  167SOPE   H2X18788   3.225   2.628   6.732  0.3431  0.0781 -2.2302
  167SOPE   H2Y18789   3.079   2.731   6.737  0.7194 -0.3181  2.9499
  167SOPE   C2318790   2.904   2.997   6.750 -0.3809 -0.7648 -0.2372
  167SOPE   H3R18791   3.000   3.043   6.722 -1.5985  0.8091 -1.9450
  167SOPE   H3S18792   2.930   2.890   6.768  0.9088  0.0000  2.7641
  167SOPE   C2418793   2.852   3.044   6.887 -0.2009 -0.4163 -0.4786
  167SOPE   H4R18794   2.840   3.154   6.879 -1.4074 -0.1401  3.6872
  167SOPE   H4S18795   2.755   2.992   6.907 -0.5516  0.7810  1.0575
  167SOPE   C2518796   2.959   3.014   6.990  0.1808  0.2912  0.2613
  167SOPE   H5R18797   2.984   2.906   6.981 -1.5294 -0.1202  0.3696
  167SOPE   H5S18798   3.052   3.074   6.993  1.9020 -2.3155  1.5814
  167SOPE   C2618799   2.905   3.037   7.132  0.7263 -0.1915 -0.7648
  167SOPE   H6R18800   2.870   3.142   7.144  0.1107 -0.3324 -1.2728
  167SOPE   H6S18801   2.815   2.974   7.150  1.3976 -1.1857 -0.8783
  167SOPE   C2718802   3.005   3.003   7.238 -1.0381 -0.1379 -0.4232
  167SOPE   H7R18803   3.048   2.903   7.214  0.0456  0.7796 -2.4843
  167SOPE   H7S18804   3.086   3.078   7.235  0.2016 -1.4815 -1.2072
  167SOPE   C2818805   2.954   2.994   7.384 -0.3346  0.5732 -0.2503
  167SOPE   H8R18806   2.905   3.093   7.395 -1.4961 -0.2484  2.3516
  167SOPE   H8S18807   2.874   2.917   7.386 -1.7782  1.9868 -1.5116
  167SOPE   C2918808   3.072   2.984   7.477  0.5214  0.5406  0.8731
  167SOPE   H9118809   3.138   2.899   7.454 -2.8553 -1.3600 -2.3288
  167SOPE  C21018810   3.090   3.058   7.593 -0.1403  0.4074  0.7480
  167SOPE  H10118811   3.174   3.036   7.661 -0.4655 -1.4736  0.5907
  167SOPE  C21118812   3.004   3.165   7.635 -0.1650 -0.1993 -0.0595
  167SOPE  H11R18813   2.942   3.118   7.715  0.2564 -1.7685 -0.6365
  167SOPE  H11S18814   2.931   3.190   7.555  0.7927 -0.1339 -0.9250
  167SOPE  C21218815   3.063   3.293   7.689  0.1770  0.2567  0.1602
  167SOPE  H12R18816   3.118   3.349   7.610  0.4418 -0.3147 -0.0592
  167SOPE  H12S18817   3.133   3.268   7.771 -0.0448  0.8424  0.5360
  167SOPE  C21318818   2.955   3.390   7.759  0.1455  0.5138  0.2115
  167SOPE  H13R18819   2.917   3.328   7.843  0.0872  0.6217  0.2642
  167SOPE  H13S18820   2.876   3.409   7.684  0.5357 -1.1098 -0.6434
  167SOPE  C21418821   3.011   3.519   7.807  0.0103  0.4342 -0.2392
  167SOPE  H14R18822   3.051   3.574   7.719  1.1072 -0.2082 -0.1417
  167SOPE  H14S18823   3.096   3.490   7.872  0.0705 -0.0041 -0.5139
  167SOPE  C21518824   2.911   3.613   7.872  0.2753 -0.0375  0.3924
  167SOPE  H15R18825   2.811   3.599   7.826 -0.8896  1.0711  2.5191
  167SOPE  H15S18826   2.934   3.718   7.843 -0.3353 -0.4449 -1.6862
  167SOPE  C21618827   2.903   3.575   8.023  0.0317  0.5020 -0.2068
  167SOPE  H16R18828   3.003   3.596   8.066 -1.1774  4.0279  1.0537
  167SOPE  H16S18829   2.869   3.472   8.044  3.0818 -0.2046  1.5063
  167SOPE  C21718830   2.808   3.687   8.084  0.3429  0.6184 -0.8937
  167SOPE  H17R18831   2.710   3.668   8.036  0.6692  0.6124 -1.5583
  167SOPE  H17S18832   2.856   3.779   8.047  2.4671 -0.2992 -0.4990
  167SOPE  C21818833   2.800   3.687   8.236  0.2917  0.0862  0.2992
  167SOPE  H18R18834   2.742   3.778   8.263 -0.6479 -0.2462 -0.5657
  167SOPE  H18S18835   2.899   3.684   8.286  1.0186 -2.7802 -1.2317
  167SOPE  H18T18836   2.753   3.599   8.285  1.3661  0.8183  2.7698
  167SOPE   C3318837   3.232   2.794   6.865 -0.1566  0.3823  0.5534
  167SOPE   H3X18838   3.161   2.742   6.933  0.6251  0.0000  1.0876
  167SOPE   H3Y18839   3.222   2.904   6.869 -0.8991  0.4015 -1.5511
  167SOPE   C3418840   3.379   2.773   6.911 -0.7392  0.0363 -0.6835
  167SOPE   H4X18841   3.453   2.820   6.843  0.4038 -0.3961  0.2555
  167SOPE   H4Y18842   3.389   2.663   6.901 -1.5466 -0.1280  0.2170
  167SOPE   C3518843   3.414   2.815   7.056 -0.5095  0.1439 -0.2786
  167SOPE   H5X18844   3.356   2.905   7.087  1.4951  2.3734 -2.7561
  167SOPE   H5Y18845   3.524   2.833   7.050 -0.6793  1.4176  0.2402
  167SOPE   C3618846   3.392   2.702   7.164 -0.3606 -0.0797  0.8099
  167SOPE   H6X18847   3.453   2.613   7.138  1.2515  1.3617 -0.4841
  167SOPE   H6Y18848   3.283   2.690   7.179 -0.2685  1.3841  2.9116
  167SOPE   C3718849   3.450   2.744   7.298  0.1521 -0.1984  0.1914
  167SOPE   H7X18850   3.399   2.831   7.344 -0.3782 -0.5889  0.3574
  167SOPE   H7Y18851   3.558   2.766   7.296 -0.2052  1.5233 -0.9962
  167SOPE   C3818852   3.431   2.623   7.396 -0.0290  0.6439 -1.4283
  167SOPE   H8X18853   3.488   2.540   7.348  1.7223  0.5658  0.6789
  167SOPE   H8Y18854   3.329   2.580   7.401  0.3645  0.0019  2.8136
  167SOPE   C3918855   3.493   2.653   7.532  0.2015  0.0255  0.2133
  167SOPE   H9X18856   3.598   2.680   7.509  0.0222  0.5955  0.0300
  167SOPE   H9Y18857   3.499   2.558   7.588  1.1028 -0.6722 -1.0533
  167SOPE  C31018858   3.417   2.753   7.617 -0.7229 -0.4269  0.1889
  167SOPE  H10X18859   3.317   2.713   7.643 -1.7667  2.6218  1.0738
  167SOPE  H10Y18860   3.399   2.840   7.551  0.1044 -1.3069 -1.2107
  167SOPE  C31118861   3.501   2.816   7.736 -0.8491  0.3295 -0.3474
  167SOPE  H11X18862   3.599   2.850   7.698  0.1274 -1.0960  0.8255
  167SOPE  H11Y18863   3.518   2.738   7.813 -0.7560 -0.1841 -0.8884
  167SOPE  C31218864   3.425   2.928   7.804  0.3293  0.4272  0.2758
  167SOPE  H12X18865   3.328   2.889   7.841  0.7448  1.3363  2.3819
  167SOPE  H12Y18866   3.392   3.006   7.733  1.2797  0.1993 -0.4215
  167SOPE  C31318867   3.508   3.004   7.914  0.6794 -0.4183  0.4129
  167SOPE  H13X18868   3.604   3.032   7.866 -0.7549  1.8282 -1.2403
  167SOPE  H13Y18869   3.513   2.926   7.993  1.7660 -1.1287 -0.3382
  167SOPE  C31418870   3.421   3.119   7.968  0.1601 -0.6596  0.1094
  167SOPE  H14X18871   3.315   3.102   7.939  0.4707 -1.8952 -0.3029
  167SOPE  H14Y18872   3.449   3.215   7.919 -0.1994 -0.6771 -0.1306
  167SOPE  C31518873   3.436   3.147   8.125 -0.0099 -0.4669 -0.2616
  167SOPE  H15X18874   3.541   3.181   8.138 -0.4529  1.9033 -2.6458
  167SOPE  H15Y18875   3.421   3.051   8.180 -0.0608 -0.8575 -0.9564
  167SOPE  C31618876   3.347   3.260   8.176 -0.1310  0.6630 -1.0479
  167SOPE  H16X18877   3.357   3.282   8.285  0.5060 -1.0214 -0.7501
  167SOPE  H16Y18878   3.241   3.231   8.159 -0.2472  0.0613  0.5814
  167SOPE  C31718879   3.362   3.391   8.101  0.2668  0.2338 -0.4855
  167SOPE  H17X18880   3.352   3.375   7.991 -2.7247 -2.4029  0.1001
  167SOPE  H17Y18881   3.465   3.429   8.118  0.1584  0.5937 -0.6260
  167SOPE  C31818882   3.264   3.498   8.153 -0.4926  0.5568 -0.1232
  167SOPE  H18X18883   3.257   3.591   8.092 -0.2350 -0.8860 -2.4248
  167SOPE  H18Y18884   3.297   3.523   8.256 -0.3825  2.2958 -0.5547
  167SOPE  H18Z18885   3.161   3.457   8.150  0.7217 -2.5280 -2.2999
  168SOPE     N18886   3.502   0.008   6.348  1.1669  0.4399  0.3563
  168SOPE   HN118887   3.553  -0.037   6.427  1.7052 -0.6546 -0.6013
  168SOPE   HN218888   3.572   0.079   6.318  1.7639 -0.3721 -0.1990
  168SOPE   HN318889   3.413   0.051   6.378  0.6024  0.9244 -1.8770
  168SOPE   C1218890   3.476  -0.098   6.242 -0.1914  0.3058  0.0157
  168SOPE  H12A18891   3.400  -0.064   6.168 -1.2067 -1.0048  0.4336
  168SOPE  H12B18892   3.443  -0.191   6.293  1.5073 -0.1371  0.3394
  168SOPE   C1118893   3.597  -0.122   6.155  0.0974  0.2372  0.3418
  168SOPE  H11A18894   3.628  -0.023   6.114  0.1864  0.5772  1.2028
  168SOPE  H11B18895   3.558  -0.180   6.069  2.7408 -0.9601 -0.0819
  168SOPE     P18896   3.815  -0.138   6.317  0.1480 -0.0273  0.0149
  168SOPE   O1318897   3.875  -0.013   6.267  0.5938 -0.4830  0.3233
  168SOPE   O1418898   3.907  -0.253   6.349 -0.4435  0.4776  0.2200
  168SOPE   O1218899   3.704  -0.192   6.222 -0.6487  0.0601 -0.2735
  168SOPE   O1118900   3.729  -0.106   6.440 -0.8591 -0.2114  0.8561
  168SOPE    C118901   3.784  -0.022   6.541 -0.1337 -0.3264 -1.0477
  168SOPE    HA18902   3.702   0.017   6.606  2.0549  3.3246 -0.3302
  168SOPE    HB18903   3.835   0.068   6.501  0.9249 -0.6477 -0.4352
  168SOPE    C218904   3.884  -0.097   6.644 -1.3167 -0.2897 -0.4696
  168SOPE    HS18905   3.897  -0.201   6.606 -0.9640 -0.4072 -0.0357
  168SOPE   O2118906   3.829  -0.108   6.778  0.0785 -0.2533  0.2174
  168SOPE   C2118907   3.710  -0.172   6.793  0.7273  0.4020 -0.0162
  168SOPE   O2218908   3.666  -0.251   6.707 -0.2786  0.0167  0.1059
  168SOPE   C2218909   3.644  -0.146   6.926  0.4418  0.4110 -0.4858
  168SOPE   H2R18910   3.591  -0.048   6.922 -1.4110 -0.3660  2.4792
  168SOPE   H2S18911   3.723  -0.150   7.004  1.0398 -2.4653 -1.1713
  168SOPE    C318912   4.023  -0.024   6.637  0.8733  0.0988  1.3757
  168SOPE    HX18913   4.044  -0.019   6.528  0.1121 -0.8271  1.1787
  168SOPE    HY18914   4.095  -0.097   6.681  1.4433  0.1573  0.5523
  168SOPE   O3118915   4.028   0.104   6.705 -0.4440 -0.3706  0.0109
  168SOPE   C3118916   4.136   0.186   6.670  0.0722  0.5481 -0.1271
  168SOPE   O3218917   4.234   0.148   6.607  0.2973 -0.2039 -0.2302
  168SOPE   C3218918   4.116   0.331   6.706  0.1334  0.3210  0.5912
  168SOPE   H2X18919   4.014   0.357   6.670  0.4068  0.7270  0.0959
  168SOPE   H2Y18920   4.176   0.399   6.642  0.1981  0.4905  0.8309
  168SOPE   C2318921   3.553  -0.269   6.965 -0.5524  0.2762  0.1629
  168SOPE   H3R18922   3.615  -0.355   6.998 -0.4495  0.4264  0.3608
  168SOPE   H3S18923   3.500  -0.303   6.873  1.8155 -0.6441 -0.8979
  168SOPE   C2418924   3.449  -0.235   7.074  0.0928 -0.8091  0.0264
  168SOPE   H4R18925   3.384  -0.154   7.036  0.8089  0.2422  1.0383
  168SOPE   H4S18926   3.387  -0.326   7.091 -1.5205 -0.0165 -1.4536
  168SOPE   C2518927   3.509  -0.183   7.206 -0.2042 -0.3372 -0.4557
  168SOPE   H5R18928   3.587  -0.107   7.185  0.2954 -0.7737 -0.2131
  168SOPE   H5S18929   3.426  -0.136   7.263  1.4032 -0.2202  1.8963
  168SOPE   C2618930   3.573  -0.290   7.290  0.0868 -0.5325 -0.0993
  168SOPE   H6R18931   3.502  -0.375   7.302  1.6336 -1.7847  0.4780
  168SOPE   H6S18932   3.660  -0.329   7.232 -0.0138  0.0057 -0.6164
  168SOPE   C2718933   3.611  -0.242   7.432  0.1654 -0.3487 -0.4247
  168SOPE   H7R18934   3.698  -0.306   7.459 -0.0601  0.0910  1.4016
  168SOPE   H7S18935   3.648  -0.138   7.413 -1.0310 -0.0087 -0.9293
  168SOPE   C2818936   3.491  -0.255   7.526  0.1672 -1.1483 -0.2347
  168SOPE   H8R18937   3.412  -0.202   7.468 -0.2677 -0.4774  0.9336
  168SOPE   H8S18938   3.461  -0.361   7.534  0.1075 -1.0562  0.9282
  168SOPE   C2918939   3.508  -0.188   7.659 -0.2766  0.0637  0.4311
  168SOPE   H9118940   3.478  -0.082   7.667 -0.9998  0.0536 -1.9763
  168SOPE  C21018941   3.561  -0.244   7.773  0.2328 -0.2255 -0.0482
  168SOPE  H10118942   3.569  -0.184   7.865 -2.8034  0.6775 -0.3263
  168SOPE  C21118943   3.601  -0.394   7.783 -0.1589  0.8846  0.6044
  168SOPE  H11R18944   3.703  -0.419   7.748 -0.3824 -0.1241  0.6682
  168SOPE  H11S18945   3.527  -0.459   7.732 -0.9735  3.3469 -1.4873
  168SOPE  C21218946   3.578  -0.432   7.934  0.4856  0.4137  0.5790
  168SOPE  H12R18947   3.470  -0.424   7.959  0.1919  0.4566 -0.6990
  168SOPE  H12S18948   3.643  -0.371   8.000  1.0702 -1.3654  1.7006
  168SOPE  C21318949   3.622  -0.577   7.961  0.6712 -0.4263  0.5301
  168SOPE  H13R18950   3.732  -0.580   7.940  1.1331  0.4968  2.6587
  168SOPE  H13S18951   3.569  -0.654   7.902  0.7088  0.6281 -0.9243
  168SOPE  C21418952   3.612  -0.599   8.118  0.7141 -0.0002  0.4302
  168SOPE  H14R18953   3.502  -0.595   8.135  0.8997  1.6432  1.3209
  168SOPE  H14S18954   3.655  -0.506   8.161 -0.9388  1.1604 -0.3590
  168SOPE  C21518955   3.692  -0.717   8.166 -0.0709  0.2318  0.1630
  168SOPE  H15R18956   3.801  -0.695   8.161 -0.1817  0.6237 -0.5799
  168SOPE  H15S18957   3.655  -0.799   8.101  0.5764  0.1950 -0.1636
  168SOPE  C21618958   3.654  -0.754   8.306 -0.0413  0.0709  0.1792
  168SOPE  H16R18959   3.708  -0.848   8.327 -0.9834  0.0691  2.8842
  168SOPE  H16S18960   3.551  -0.793   8.320 -0.0018  0.4196  1.5457
  168SOPE  C21718961   3.675  -0.646   8.411 -0.0701  0.5919 -0.2468
  168SOPE  H17R18962   3.608  -0.558   8.402 -0.5902  0.0603 -1.7658
  168SOPE  H17S18963   3.779  -0.623   8.380  1.3935 -4.6169  0.3874
  168SOPE  C21818964   3.673  -0.714   8.550 -0.4664 -0.3351  0.2405
  168SOPE  H18R18965   3.574  -0.754   8.581 -0.2286 -0.9370  0.2286
  168SOPE  H18S18966   3.718  -0.645   8.626 -0.2316 -0.7562  0.4834
  168SOPE  H18T18967   3.734  -0.807   8.548  1.6141  1.0156 -0.3475
  168SOPE   C3318968   4.130   0.363   6.851 -0.1863 -0.0439 -0.2189
  168SOPE   H3X18969   4.090   0.461   6.886  0.2075  0.2878 -0.6823
  168SOPE   H3Y18970   4.239   0.369   6.874  0.2827  2.6598 -2.7719
  168SOPE   C3418971   4.059   0.270   6.946 -0.9776  0.5636 -0.0150
  168SOPE   H4X18972   4.128   0.183   6.955 -0.0885  0.9443 -2.6952
  168SOPE   H4Y18973   3.962   0.233   6.906 -0.3550  0.1118 -1.1534
  168SOPE   C3518974   4.050   0.342   7.085  0.2925  0.0168 -0.1305
  168SOPE   H5X18975   3.967   0.414   7.069 -2.3655 -2.7759  0.8369
  168SOPE   H5Y18976   4.148   0.395   7.093 -0.8125  2.4921 -2.1044
  168SOPE   C3618977   4.011   0.249   7.195  0.3224  0.2879 -0.7265
  168SOPE   H6X18978   4.087   0.168   7.194 -0.5676 -0.5529 -0.8382
  168SOPE   H6Y18979   3.914   0.202   7.172  0.6422 -1.0235  0.5833
  168SOPE   C3718980   4.023   0.334   7.321  0.0869 -0.7585 -0.0891
  168SOPE   H7X18981   3.946   0.414   7.332 -0.9505 -1.7645  0.1188
  168SOPE   H7Y18982   4.113   0.399   7.313 -0.1828 -0.3689 -0.0090
  168SOPE   C3818983   4.030   0.253   7.449  0.8168 -0.1240 -0.1969
  168SOPE   H8X18984   4.117   0.188   7.425  2.4119  2.2677 -1.1506
  168SOPE   H8Y18985   3.939   0.190   7.446  1.4491 -0.9697 -4.6284
  168SOPE   C3918986   4.046   0.326   7.582  0.0532 -0.0334 -0.1295
  168SOPE   H9X18987   3.975   0.411   7.574 -2.1221 -1.7429  0.5173
  168SOPE   H9Y18988   4.146   0.374   7.575 -0.7474  1.9379  1.5108
  168SOPE  C31018989   4.049   0.248   7.716 -0.5288  0.5782 -0.1445
  168SOPE  H10X18990   4.130   0.173   7.726 -0.1294  1.2878  2.3153
  168SOPE  H10Y18991   3.950   0.196   7.723 -0.1445  0.0382  1.6210
  168SOPE  C31118992   4.052   0.339   7.845 -0.1060 -0.1487  0.4183
  168SOPE  H11X18993   3.985   0.424   7.820  0.4030  0.6403  1.6650
  168SOPE  H11Y18994   4.151   0.381   7.871 -0.0207 -0.0847 -0.0057
  168SOPE  C31218995   4.023   0.252   7.964  0.0349 -0.3702 -0.7383
  168SOPE  H12X18996   4.092   0.165   7.963  0.1442 -0.2807 -0.9830
  168SOPE  H12Y18997   3.919   0.213   7.954  0.6381 -2.8136  1.8531
  168SOPE  C31318998   4.048   0.326   8.096  0.7683 -0.0509 -0.0784
  168SOPE  H13X18999   4.006   0.429   8.099  1.1433  0.0985  0.0055
  168SOPE  H13Y19000   4.157   0.347   8.087  0.6792 -0.2313 -1.9266
  168SOPE  C31419001   3.995   0.236   8.211 -0.1837 -0.1000  0.3400
  168SOPE  H14X19002   4.024   0.130   8.197 -2.1157 -0.6273  0.0891
  168SOPE  H14Y19003   3.884   0.235   8.209 -0.1754 -1.3161  0.4567
  168SOPE  C31519004   4.031   0.278   8.355 -0.3194 -0.1059  0.6471
  168SOPE  H15X19005   3.992   0.381   8.370  1.0534  0.5680 -0.3344
  168SOPE  H15Y19006   4.139   0.284   8.379  0.3300  2.9989 -2.5867
  168SOPE  C31619007   3.968   0.191   8.464  0.2796  0.3622  0.3934
  168SOPE  H16X19008   3.861   0.165   8.449  0.3825  0.1286  0.0526
  168SOPE  H16Y19009   3.970   0.249   8.558  1.8465  2.2707 -0.7797
  168SOPE  C31719010   4.039   0.064   8.496 -0.2158 -0.6350 -0.3606
  168SOPE  H17X19011   4.147   0.088   8.488 -0.1548 -0.3188  1.3006
  168SOPE  H17Y19012   4.017  -0.014   8.420  0.5558 -1.0626 -0.1521
  168SOPE  C31819013   4.006   0.005   8.636 -0.6635  0.3528  0.5335
  168SOPE  H18X19014   3.900  -0.028   8.635 -0.3991 -0.4916  0.0944
  168SOPE  H18Y19015   4.023   0.089   8.707  2.2120  0.4028 -0.1560
  168SOPE  H18Z19016   4.068  -0.084   8.656 -0.9717 -0.2916 -1.2748
  169SOPE     N19017   5.829   2.622   6.409  0.1734 -0.2714 -0.1572
  169SOPE   HN119018   5.915   2.677   6.392  0.8530 -1.8755 -2.1770
  169SOPE   HN219019   5.752   2.658   6.348 -0.7067 -3.3303 -0.9282
  169SOPE   HN319020   5.803   2.634   6.509 -0.3763  0.8577 -0.4235
  169SOPE   C1219021   5.864   2.481   6.379 -0.8159  0.1213 -0.5085
  169SOPE  H12A19022   5.914   2.431   6.465 -1.6995  0.4303  0.1913
  169SOPE  H12B19023   5.931   2.476   6.290 -1.5092  0.0317 -1.0299
  169SOPE   C1119024   5.741   2.400   6.333 -0.2079  0.5186  0.2512
  169SOPE  H11A19025   5.676   2.432   6.249  0.8960 -0.2979 -0.9468
  169SOPE  H11B19026   5.680   2.389   6.425  0.4517  0.4212  0.6760
  169SOPE     P19027   5.704   2.144   6.289  0.4766 -0.2201 -0.1688
  169SOPE   O1319028   5.755   2.059   6.174 -0.5196 -0.4376  0.5462
  169SOPE   O1419029   5.557   2.180   6.283  0.3519 -0.0379 -0.0447
  169SOPE   O1219030   5.797   2.276   6.294 -0.4713  0.0932 -0.0811
  169SOPE   O1119031   5.744   2.071   6.418 -0.5581 -0.5848 -0.0754
  169SOPE    C119032   5.875   2.088   6.483 -0.1140  0.6420  0.0576
  169SOPE    HA19033   5.896   2.197   6.496  1.8064  0.1547  1.2467
  169SOPE    HB19034   5.954   2.044   6.419  0.1185  3.3044 -1.5748
  169SOPE    C219035   5.868   2.020   6.627 -0.4476 -0.3294 -0.1499
  169SOPE    HS19036   5.969   2.033   6.673 -0.2708 -5.4482  1.1464
  169SOPE   O2119037   5.819   1.889   6.624 -0.3427  0.1005 -0.2526
  169SOPE   C2119038   5.918   1.804   6.585  0.6616 -0.0926  0.3420
  169SOPE   O2219039   6.034   1.839   6.564 -0.4590 -0.0882 -0.6021
  169SOPE   C2219040   5.856   1.661   6.569 -0.0988  0.4724  0.6467
  169SOPE   H2R19041   5.856   1.646   6.459 -2.1115  0.6453  0.6128
  169SOPE   H2S19042   5.749   1.663   6.598 -0.0957 -1.0967  0.7925
  169SOPE    C319043   5.770   2.119   6.699 -0.1323 -0.6043 -0.2984
  169SOPE    HX19044   5.669   2.111   6.654 -0.9860  0.9738  1.2858
  169SOPE    HY19045   5.799   2.225   6.689  2.9869 -1.3700  0.0871
  169SOPE   O3119046   5.759   2.092   6.837  0.3036  0.5036  0.0590
  169SOPE   C3119047   5.855   2.113   6.915 -0.1286 -0.3596  0.3182
  169SOPE   O3219048   5.955   2.180   6.891 -0.7719  0.2789 -0.3840
  169SOPE   C3219049   5.834   2.042   7.052  0.2958  0.2836 -0.1396
  169SOPE   H2X19050   5.888   1.946   7.043 -1.2987 -1.0059  3.0897
  169SOPE   H2Y19051   5.727   2.017   7.068  1.1955 -1.6712  3.3808
  169SOPE   C2319052   5.915   1.549   6.653 -0.6308  0.1361  0.6358
  169SOPE   H3R19053   6.010   1.518   6.604 -0.3401  2.1844 -0.1516
  169SOPE   H3S19054   5.853   1.457   6.655 -2.2949  1.2376  0.4348
  169SOPE   C2419055   5.954   1.591   6.796 -0.6836 -0.4965 -0.1558
  169SOPE   H4R19056   6.022   1.508   6.824 -0.8728 -0.3987  0.5877
  169SOPE   H4S19057   6.006   1.689   6.802 -0.6647 -0.5821  1.1728
  169SOPE   C2519058   5.835   1.591   6.882 -0.1555 -0.3547 -0.2157
  169SOPE   H5R19059   5.769   1.678   6.865 -0.5278  0.2672  4.0177
  169SOPE   H5S19060   5.786   1.495   6.855  2.0046 -1.1771 -1.3952
  169SOPE   C2619061   5.857   1.589   7.033  0.0202  0.3454 -0.4520
  169SOPE   H6R19062   5.916   1.682   7.047 -1.1435  1.4870 -2.9206
  169SOPE   H6S19063   5.758   1.602   7.082 -0.4335 -1.4876 -0.8350
  169SOPE   C2719064   5.923   1.461   7.094  0.4478 -0.4554 -0.0911
  169SOPE   H7R19065   5.863   1.376   7.055 -1.4384  0.8208 -0.0012
  169SOPE   H7S19066   6.030   1.451   7.064  1.0456  1.9840  1.1078
  169SOPE   C2819067   5.923   1.481   7.246 -0.2294 -0.4270 -0.8896
  169SOPE   H8R19068   5.971   1.390   7.287  0.2327 -0.8295 -2.2948
  169SOPE   H8S19069   5.992   1.564   7.271 -1.0028 -0.7371  2.4396
  169SOPE   C2919070   5.785   1.489   7.305 -0.5456  0.2526  0.0749
  169SOPE   H9119071   5.703   1.543   7.256 -0.3824  0.1102 -0.3553
  169SOPE  C21019072   5.748   1.446   7.425  0.2740  0.3542 -0.3978
  169SOPE  H10119073   5.645   1.460   7.461  0.6533  0.7225  0.5764
  169SOPE  C21119074   5.842   1.378   7.528 -0.6706 -0.1091  1.2597
  169SOPE  H11R19075   5.942   1.426   7.528 -0.4985 -0.4569 -0.0135
  169SOPE  H11S19076   5.838   1.268   7.510  0.5658 -0.0039  0.2742
  169SOPE  C21219077   5.784   1.396   7.673  0.0803  0.2500  0.9493
  169SOPE  H12R19078   5.847   1.345   7.749 -2.8299 -1.7801  2.0835
  169SOPE  H12S19079   5.686   1.348   7.694  0.2433 -1.0350 -1.0779
  169SOPE  C21319080   5.762   1.538   7.729  0.4474  0.2810  0.1690
  169SOPE  H13R19081   5.675   1.577   7.673 -0.0232  0.9872  1.3659
  169SOPE  H13S19082   5.852   1.602   7.724  1.4725 -1.1248  0.3633
  169SOPE  C21419083   5.708   1.528   7.877  0.3514 -0.8788 -0.3069
  169SOPE  H14R19084   5.792   1.488   7.938  0.8356 -0.2674 -0.5625
  169SOPE  H14S19085   5.619   1.462   7.879 -0.6665  0.4984  1.7646
  169SOPE  C21519086   5.670   1.669   7.933  0.0721  1.1357  0.3858
  169SOPE  H15R19087   5.589   1.706   7.867  0.1493  1.6453  0.5747
  169SOPE  H15S19088   5.757   1.737   7.919  1.8780 -1.4207 -1.5158
  169SOPE  C21619089   5.633   1.644   8.083 -0.1171 -0.8092  0.3845
  169SOPE  H16R19090   5.712   1.590   8.140 -1.9306 -1.3471  2.4626
  169SOPE  H16S19091   5.552   1.568   8.086  0.5372 -1.4527  4.5800
  169SOPE  C21719092   5.586   1.772   8.162  0.6465 -0.5271  0.3698
  169SOPE  H17R19093   5.484   1.791   8.123 -0.3678 -2.5468  1.9388
  169SOPE  H17S19094   5.646   1.858   8.126 -0.8227 -0.2692 -1.5691
  169SOPE  C21819095   5.591   1.764   8.316  0.0967 -0.1793  0.2511
  169SOPE  H18R19096   5.548   1.854   8.366 -3.3021 -2.6804  2.0334
  169SOPE  H18S19097   5.697   1.761   8.348 -0.2171 -0.3578  1.2927
  169SOPE  H18T19098   5.525   1.683   8.354 -0.7179  0.7427  0.8463
  169SOPE   C3319099   5.900   2.118   7.170  0.4387 -0.3347 -0.2323
  169SOPE   H3X19100   5.858   2.220   7.175 -2.0408 -1.2597 -1.4550
  169SOPE   H3Y19101   6.009   2.136   7.157  0.5173  1.1103  2.1249
  169SOPE   C3419102   5.867   2.040   7.298 -0.4338  0.0473  0.0555
  169SOPE   H4X19103   5.900   1.934   7.300  2.1147  0.8230  2.7705
  169SOPE   H4Y19104   5.757   2.047   7.294 -0.5945 -2.6557 -0.9323
  169SOPE   C3519105   5.916   2.106   7.431  0.5293  0.2148 -0.6408
  169SOPE   H5X19106   5.885   2.213   7.424  0.2275  0.2529  1.0270
  169SOPE   H5Y19107   6.025   2.095   7.445  0.5351  1.8288  0.8661
  169SOPE   C3619108   5.857   2.037   7.554 -0.3471  0.6318  0.5138
  169SOPE   H6X19109   5.850   1.931   7.520  1.3452  0.7702 -0.3768
  169SOPE   H6Y19110   5.759   2.081   7.581 -0.4738 -0.3387  1.6834
  169SOPE   C3719111   5.941   2.075   7.676 -0.1019  0.2954 -0.7985
  169SOPE   H7X19112   5.937   2.185   7.689  2.9278  0.2328  1.1275
  169SOPE   H7Y19113   6.048   2.052   7.660 -0.4021  0.3357 -2.9865
  169SOPE   C3819114   5.904   2.008   7.805  0.0798  1.0280  0.1254
  169SOPE   H8X19115   5.797   2.024   7.828 -0.2967 -0.7833 -0.2551
  169SOPE   H8Y19116   5.924   1.899   7.794 -1.3618  0.6624  1.1218
  169SOPE   C3919117   5.976   2.070   7.929 -0.6171 -0.6850 -0.1098
  169SOPE   H9X19118   5.946   2.177   7.923 -1.4027 -0.9357 -0.8123
  169SOPE   H9Y19119   6.085   2.060   7.915 -0.5342  1.1932 -0.9231
  169SOPE  C31019120   5.929   1.999   8.060 -0.5356  0.1624  0.1435
  169SOPE  H10X19121   5.938   1.892   8.031  1.0873  0.2649  0.2349
  169SOPE  H10Y19122   5.824   2.026   8.086 -0.1037  0.6970  1.3199
  169SOPE  C31119123   6.024   2.035   8.182 -0.6253 -0.7482 -0.3071
  169SOPE  H11X19124   6.006   2.145   8.186 -0.6615 -0.5991 -3.6363
  169SOPE  H11Y19125   6.129   2.019   8.150  1.4583  2.4282  4.2552
  169SOPE  C31219126   5.978   1.964   8.311  0.2207  0.0726  0.1063
  169SOPE  H12X19127   5.924   1.870   8.289 -0.0313 -0.2393  1.9734
  169SOPE  H12Y19128   5.906   2.030   8.365  0.1754 -0.4760  0.7147
  169SOPE  C31319129   6.095   1.947   8.403  0.2485  0.0685 -0.1657
  169SOPE  H13X19130   6.156   2.039   8.389 -0.2992  0.2640 -1.3372
  169SOPE  H13Y19131   6.156   1.861   8.369 -1.9746 -2.0806  1.0884
  169SOPE  C31419132   6.047   1.924   8.549  0.7428  0.5763  0.5621
  169SOPE  H14X19133   6.011   2.020   8.591 -1.9865  0.1541 -0.7046
  169SOPE  H14Y19134   6.135   1.901   8.613  0.5549  0.8107  0.9079
  169SOPE  C31519135   5.963   1.805   8.576  0.2652 -0.0253 -0.4697
  169SOPE  H15X19136   6.020   1.713   8.550 -0.3230 -0.7608  0.8366
  169SOPE  H15Y19137   5.872   1.790   8.515  0.7007  0.2938 -1.2031
  169SOPE  C31619138   5.911   1.792   8.725  0.2022 -0.6672 -0.1361
  169SOPE  H16X19139   5.877   1.893   8.755  1.4016  0.3818 -2.1934
  169SOPE  H16Y19140   6.001   1.779   8.790  0.1150 -1.9765 -0.2642
  169SOPE  C31719141   5.810   1.680   8.749 -0.0128  0.6220 -0.5835
  169SOPE  H17X19142   5.730   1.697   8.674 -2.3928  0.8689  1.9255
  169SOPE  H17Y19143   5.755   1.696   8.845  0.6102 -0.5768 -0.0122
  169SOPE  C31819144   5.872   1.541   8.751  0.0181  0.3653 -0.7096
  169SOPE  H18X19145   5.953   1.547   8.827 -0.0754  3.1075 -0.7445
  169SOPE  H18Y19146   5.934   1.518   8.662  1.2384  0.1171  0.1843
  169SOPE  H18Z19147   5.790   1.467   8.759  0.0280  0.5781  1.7542
  170SOPE     N19148   0.524   1.608   6.115  0.1542  0.1279 -0.5049
  170SOPE   HN119149   0.455   1.685   6.130 -0.7520 -0.7571 -0.0853
  170SOPE   HN219150   0.605   1.643   6.061  0.7588  0.9510  0.9016
  170SOPE   HN319151   0.477   1.536   6.057 -0.3292  0.0324  0.0039
  170SOPE   C1219152   0.576   1.551   6.243  0.0468 -0.0033 -0.3302
  170SOPE  H12A19153   0.649   1.616   6.297 -0.3595  0.6779 -0.5909
  170SOPE  H12B19154   0.619   1.453   6.214  0.2829  0.1611 -0.5396
  170SOPE   C1119155   0.457   1.531   6.342 -1.1611 -0.3615 -0.3480
  170SOPE  H11A19156   0.412   1.632   6.346  1.3978  0.8049 -0.2511
  170SOPE  H11B19157   0.492   1.504   6.444 -2.0707 -0.4660 -0.0587
  170SOPE     P19158   0.357   1.283   6.288 -0.1319  0.2529  0.6856
  170SOPE   O1319159   0.497   1.241   6.267  0.6343 -0.0610  0.0935
  170SOPE   O1419160   0.262   1.235   6.183 -0.4744  0.1957 -0.0521
  170SOPE   O1219161   0.351   1.439   6.304 -0.4113 -0.3606  0.8133
  170SOPE   O1119162   0.322   1.227   6.432  0.9324  0.5089 -0.3082
  170SOPE    C119163   0.405   1.237   6.549  0.2558  0.2522  0.0521
  170SOPE    HA19164   0.495   1.299   6.529  0.8197 -1.4987 -3.1330
  170SOPE    HB19165   0.440   1.132   6.564 -1.8253 -0.2461  1.5425
  170SOPE    C219166   0.321   1.266   6.682 -0.1049 -0.0986 -0.3234
  170SOPE    HS19167   0.303   1.376   6.681  0.6225  0.0719  2.3429
  170SOPE   O2119168   0.378   1.210   6.800  0.1606  0.4129 -0.0096
  170SOPE   C2119169   0.453   1.294   6.864 -0.2865  0.6341 -0.7116
  170SOPE   O2219170   0.475   1.409   6.833  0.1140 -0.9583  0.1211
  170SOPE   C2219171   0.519   1.214   6.976 -0.0063  0.2496  0.5600
  170SOPE   H2R19172   0.620   1.199   6.933 -0.2244 -0.5407  0.3037
  170SOPE   H2S19173   0.475   1.112   6.967  1.0984 -0.2357  0.5322
  170SOPE    C319174   0.173   1.205   6.661  0.2115 -0.1332  0.1054
  170SOPE    HX19175   0.163   1.120   6.591 -4.0791  1.3727 -1.2682
  170SOPE    HY19176   0.117   1.281   6.603 -0.1395 -1.7563 -1.7337
  170SOPE   O3119177   0.099   1.189   6.780  0.0756  0.3743  0.1033
  170SOPE   C3119178   0.090   1.075   6.845  0.6691  0.6104 -0.3009
  170SOPE   O3219179   0.145   0.968   6.818  0.2073 -0.3107 -0.2768
  170SOPE   C3219180  -0.001   1.091   6.967 -0.1639  0.1096  0.1422
  170SOPE   H2X19181  -0.097   1.139   6.939 -1.2357 -2.1850 -0.2823
  170SOPE   H2Y19182   0.056   1.157   7.035 -0.4738  0.0206  0.4926
  170SOPE   C2319183   0.510   1.297   7.107 -0.1680 -0.0481 -0.0581
  170SOPE   H3R19184   0.516   1.407   7.097 -1.3180 -0.0401 -0.7111
  170SOPE   H3S19185   0.594   1.258   7.169  1.4868  2.4400 -0.6419
  170SOPE   C2419186   0.388   1.270   7.191  0.3166 -0.1581 -0.5561
  170SOPE   H4R19187   0.407   1.333   7.281  1.2636  0.3536 -1.1131
  170SOPE   H4S19188   0.293   1.315   7.154 -1.2226 -1.3096  1.8355
  170SOPE   C2519189   0.363   1.127   7.236  0.0410 -0.0827 -0.2351
  170SOPE   H5R19190   0.334   1.060   7.151 -1.7271 -0.2453  0.4728
  170SOPE   H5S19191   0.453   1.077   7.278 -1.1106 -2.1423 -0.1683
  170SOPE   C2619192   0.254   1.121   7.355 -0.3090 -0.4755 -0.2710
  170SOPE   H6R19193   0.291   1.185   7.438 -1.8886  0.8521 -0.5799
  170SOPE   H6S19194   0.159   1.162   7.315 -0.9871 -1.5808  0.1807
  170SOPE   C2719195   0.231   0.977   7.395  0.4264  0.4341 -0.1282
  170SOPE   H7R19196   0.175   0.918   7.319 -0.0737 -1.3265  1.5571
  170SOPE   H7S19197   0.321   0.915   7.413  2.2206  3.3890  1.4708
  170SOPE   C2819198   0.146   0.981   7.519  0.3335  0.0881 -0.3255
  170SOPE   H8R19199   0.191   1.057   7.586 -1.8134  1.2017 -0.1356
  170SOPE   H8S19200   0.043   1.017   7.499 -0.7095 -2.4649  0.1760
  170SOPE   C2919201   0.137   0.843   7.576  0.4398  0.3107  0.1161
  170SOPE   H9119202   0.045   0.789   7.552  0.0759  0.4956  1.0582
  170SOPE  C21019203   0.221   0.779   7.653  0.0289  0.0172 -0.2412
  170SOPE  H10119204   0.201   0.675   7.681 -0.8609  0.2458 -0.0331
  170SOPE  C21119205   0.357   0.835   7.697  0.2718 -1.3585  0.3160
  170SOPE  H11R19206   0.381   0.935   7.653  0.2070 -1.4786  0.0084
  170SOPE  H11S19207   0.441   0.768   7.671  1.0383 -0.1377 -0.4163
  170SOPE  C21219208   0.359   0.852   7.854  0.8171 -0.0960 -0.0854
  170SOPE  H12R19209   0.465   0.880   7.872  1.0372 -0.6932 -0.3942
  170SOPE  H12S19210   0.347   0.754   7.905  0.5345  0.8496  1.6928
  170SOPE  C21319211   0.257   0.952   7.913  0.3118 -0.3821  0.5270
  170SOPE  H13R19212   0.155   0.915   7.887  0.4260  0.2273 -0.8463
  170SOPE  H13S19213   0.272   1.053   7.869  3.2963 -0.8184  0.4428
  170SOPE  C21419214   0.266   0.983   8.067  0.2539 -0.0625  0.4565
  170SOPE  H14R19215   0.316   1.081   8.077 -0.0259  0.1526 -0.1845
  170SOPE  H14S19216   0.335   0.912   8.118  0.8290  0.6927  0.7406
  170SOPE  C21519217   0.138   0.985   8.142  0.6447  0.1617 -0.5725
  170SOPE  H15R19218   0.068   1.056   8.092 -0.8535 -1.1921 -0.4250
  170SOPE  H15S19219   0.147   1.030   8.243 -0.4204 -2.3767  0.6753
  170SOPE  C21619220   0.077   0.845   8.153 -0.4099  0.1470  0.8198
  170SOPE  H16R19221   0.029   0.802   8.063  2.4110  0.2819 -0.8124
  170SOPE  H16S19222  -0.009   0.863   8.221  0.9371  1.4536  2.2341
  170SOPE  C21719223   0.174   0.747   8.218  0.3693 -0.3946  0.2660
  170SOPE  H17R19224   0.199   0.794   8.315  1.5121  1.8543 -1.1021
  170SOPE  H17S19225   0.261   0.733   8.151  0.8085  1.2582  0.4831
  170SOPE  C21819226   0.116   0.611   8.253 -0.2700 -0.3644 -1.0983
  170SOPE  H18R19227   0.030   0.624   8.322  0.1679  0.4793 -0.6991
  170SOPE  H18S19228   0.196   0.551   8.302  0.0969  0.3449 -0.8180
  170SOPE  H18T19229   0.076   0.555   8.166  0.0101  0.8640 -2.0319
  170SOPE   C3319230  -0.034   0.957   7.042 -0.9592 -0.1404  0.6353
  170SOPE   H3X19231   0.057   0.894   7.049 -0.2741  0.4608 -2.4156
  170SOPE   H3Y19232  -0.120   0.904   6.995  0.6742 -1.1083 -1.3150
  170SOPE   C3419233  -0.092   0.979   7.181 -0.2751  0.4409  0.0022
  170SOPE   H4X19234  -0.023   1.053   7.226 -0.4754 -1.1727  3.0628
  170SOPE   H4Y19235  -0.082   0.884   7.238 -1.9861 -0.5456 -1.3022
  170SOPE   C3519236  -0.239   1.037   7.167 -0.1437  0.7678  0.5275
  170SOPE   H5X19237  -0.281   0.958   7.101  2.1442  0.4516 -0.5886
  170SOPE   H5Y19238  -0.247   1.126   7.101 -3.6243 -0.7239 -1.1835
  170SOPE   C3619239  -0.310   1.055   7.302 -0.6608 -0.1494  0.0973
  170SOPE   H6X19240  -0.270   1.145   7.354 -0.5169  0.0370 -0.3333
  170SOPE   H6Y19241  -0.273   0.978   7.372 -0.5385  0.9693  1.2848
  170SOPE   C3719242  -0.460   1.040   7.303 -0.3281 -0.3719  0.0600
  170SOPE   H7X19243  -0.508   0.998   7.394  1.6488  0.7332  1.6572
  170SOPE   H7Y19244  -0.480   0.964   7.225  2.6919 -0.4517 -0.7239
  170SOPE   C3819245  -0.524   1.179   7.271 -0.2373 -0.7755 -0.4238
  170SOPE   H8X19246  -0.630   1.150   7.253 -0.2804  0.0421 -1.5311
  170SOPE   H8Y19247  -0.491   1.240   7.184  1.5152  1.3354  1.6954
  170SOPE   C3919248  -0.537   1.282   7.385 -0.0726 -0.9475 -0.0977
  170SOPE   H9X19249  -0.601   1.365   7.350 -0.0557 -0.1277  1.7771
  170SOPE   H9Y19250  -0.435   1.322   7.403 -0.5582  0.2603 -0.0279
  170SOPE  C31019251  -0.562   1.226   7.529  1.4195 -0.1717  0.3921
  170SOPE  H10X19252  -0.467   1.173   7.554  0.6364 -1.2661  1.0929
  170SOPE  H10Y19253  -0.643   1.150   7.539 -0.0346  1.1026 -1.3815
  170SOPE  C31119254  -0.597   1.326   7.638 -0.6320  0.6517 -0.1912
  170SOPE  H11X19255  -0.673   1.406   7.624 -0.7659  0.6661  0.6074
  170SOPE  H11Y19256  -0.499   1.374   7.657 -0.2244 -0.3960  0.4104
  170SOPE  C31219257  -0.626   1.250   7.765 -0.5655  0.3282  1.0514
  170SOPE  H12X19258  -0.562   1.159   7.761 -0.1744  0.5168  2.9460
  170SOPE  H12Y19259  -0.731   1.215   7.777 -1.4461  2.5296  0.0907
  170SOPE  C31319260  -0.577   1.328   7.889  0.0511 -0.5618 -0.7324
  170SOPE  H13X19261  -0.587   1.438   7.873 -0.9149 -0.8765 -2.5098
  170SOPE  H13Y19262  -0.468   1.312   7.900  0.0479 -0.7228 -0.9229
  170SOPE  C31419263  -0.649   1.283   8.019 -0.1436 -0.2856  0.8144
  170SOPE  H14X19264  -0.572   1.232   8.081 -0.8833 -1.4362  0.7945
  170SOPE  H14Y19265  -0.725   1.207   7.991  1.4362 -1.1207 -1.3361
  170SOPE  C31519266  -0.720   1.393   8.099  0.4004 -0.7343 -0.1751
  170SOPE  H15X19267  -0.798   1.439   8.034  0.0522 -1.5995 -0.3841
  170SOPE  H15Y19268  -0.646   1.475   8.111 -0.5433  0.2712 -1.0713
  170SOPE  C31619269  -0.772   1.348   8.236 -0.3641 -0.1639 -0.1716
  170SOPE  H16X19270  -0.683   1.348   8.303  0.8928 -0.5891 -1.7990
  170SOPE  H16Y19271  -0.802   1.242   8.222  1.9848 -1.0079  0.7927
  170SOPE  C31719272  -0.884   1.428   8.297  0.5299 -0.6636  0.0787
  170SOPE  H17X19273  -0.938   1.374   8.378  1.1244  0.5770  1.3105
  170SOPE  H17Y19274  -0.959   1.448   8.217  0.0276 -1.0332  0.4493
  170SOPE  C31819275  -0.841   1.559   8.360  0.3396  0.1449  1.0378
  170SOPE  H18X19276  -0.809   1.637   8.288  2.5742 -0.4779  1.3359
  170SOPE  H18Y19277  -0.758   1.535   8.428  0.4935 -3.5106 -0.3234
  170SOPE  H18Z19278  -0.931   1.587   8.419 -1.0970 -0.0411 -0.9778
  171SOPE     N19279   6.467   4.191   6.616 -0.3687 -0.1256 -0.5322
  171SOPE   HN119280   6.521   4.268   6.661 -0.5160  0.6195 -1.5949
  171SOPE   HN219281   6.513   4.176   6.524  0.3713 -0.6769 -0.0754
  171SOPE   HN319282   6.368   4.217   6.603 -0.1252  0.2423 -1.7866
  171SOPE   C1219283   6.475   4.069   6.698 -0.3931  0.5590  0.0309
  171SOPE  H12A19284   6.434   3.992   6.628 -1.4870  0.6119  0.5920
  171SOPE  H12B19285   6.402   4.064   6.781 -1.3274 -0.3067 -0.8223
  171SOPE   C1119286   6.617   4.032   6.752 -0.2668  0.2113  0.6435
  171SOPE  H11A19287   6.614   3.971   6.845  1.9378  0.1248  0.6902
  171SOPE  H11B19288   6.660   4.127   6.791 -0.1793  0.2547  0.4399
  171SOPE     P19289   6.856   3.984   6.664  0.1498  0.2640 -0.0829
  171SOPE   O1319290   6.905   4.124   6.660 -0.2259  0.1223  0.2358
  171SOPE   O1419291   6.913   3.897   6.558  0.1971 -0.2121  0.2750
  171SOPE   O1219292   6.704   3.979   6.653 -0.3492 -0.0351 -0.1975
  171SOPE   O1119293   6.877   3.926   6.808  0.3409  0.2025 -0.0125
  171SOPE    C119294   6.851   3.780   6.832 -0.5672  0.0027 -0.7268
  171SOPE    HA19295   6.903   3.708   6.767  0.5791 -0.1286  0.2989
  171SOPE    HB19296   6.742   3.761   6.827 -0.5406  0.2591 -2.4404
  171SOPE    C219297   6.889   3.736   6.972 -0.1237 -0.1218  0.2248
  171SOPE    HS19298   6.821   3.651   6.998 -0.9109  0.1118 -1.0590
  171SOPE   O2119299   6.885   3.842   7.063  0.1722 -0.5753  0.0486
  171SOPE   C2119300   6.771   3.896   7.095 -0.0206 -0.2463  0.7292
  171SOPE   O2219301   6.664   3.855   7.049 -0.4612  0.1402  0.5680
  171SOPE   C2219302   6.782   4.016   7.191  0.0789 -0.7568  0.1936
  171SOPE   H2R19303   6.778   4.110   7.133 -0.1401 -0.1135  1.2493
  171SOPE   H2S19304   6.879   3.999   7.243 -0.6114 -1.5195  1.2660
  171SOPE    C319305   7.032   3.671   6.977  0.4978 -0.4265 -0.3372
  171SOPE    HX19306   7.102   3.742   6.927 -0.7019  1.1237  0.1342
  171SOPE    HY19307   7.037   3.572   6.927  1.4711 -0.9313  0.7485
  171SOPE   O3119308   7.089   3.642   7.108 -0.0602  0.2435  0.3928
  171SOPE   C3119309   7.044   3.537   7.169  0.6766 -0.3699 -0.2808
  171SOPE   O3219310   6.955   3.463   7.130  0.3061  0.2994  0.4741
  171SOPE   C3219311   7.113   3.529   7.301  0.0464 -0.1502 -0.1119
  171SOPE   H2X19312   7.044   3.581   7.372  1.7946 -0.6500  2.0196
  171SOPE   H2Y19313   7.211   3.580   7.291 -0.3863  0.6678 -0.1855
  171SOPE   C2319314   6.675   4.021   7.299  0.1420 -0.8086 -0.1441
  171SOPE   H3R19315   6.577   4.039   7.251  0.6730  2.0070 -0.2246
  171SOPE   H3S19316   6.690   4.102   7.373  1.9913 -0.8682 -0.4145
  171SOPE   C2419317   6.679   3.889   7.387 -0.0447  0.2419 -0.2095
  171SOPE   H4R19318   6.597   3.889   7.463 -0.3937 -0.5223 -0.5747
  171SOPE   H4S19319   6.672   3.806   7.313 -1.1367 -0.2804  0.4676
  171SOPE   C2519320   6.795   3.880   7.487 -0.0276 -0.1541  0.4546
  171SOPE   H5R19321   6.888   3.901   7.431  0.6349 -2.5547  0.5738
  171SOPE   H5S19322   6.783   3.965   7.557  1.9654  0.0061  0.6126
  171SOPE   C2619323   6.786   3.743   7.545 -0.2838  0.6153  0.3202
  171SOPE   H6R19324   6.684   3.744   7.589 -0.6768 -1.7027 -0.5009
  171SOPE   H6S19325   6.788   3.674   7.459 -0.1118  1.9728 -0.7799
  171SOPE   C2719326   6.903   3.707   7.648  0.0696  0.0245  0.4291
  171SOPE   H7R19327   6.989   3.702   7.578  0.4488  0.5836  0.8520
  171SOPE   H7S19328   6.934   3.781   7.725  2.6855 -0.5066 -0.0514
  171SOPE   C2819329   6.874   3.578   7.723  0.4656 -0.1685 -0.1496
  171SOPE   H8R19330   6.777   3.600   7.772 -0.0123 -1.8724 -0.2865
  171SOPE   H8S19331   6.855   3.504   7.642 -1.8959 -0.3114  0.4917
  171SOPE   C2919332   6.986   3.543   7.816  0.1403  0.4408 -0.9015
  171SOPE   H9119333   7.063   3.475   7.775  0.2460 -0.0810  0.1306
  171SOPE  C21019334   6.981   3.562   7.945  0.0061  0.2663 -0.2073
  171SOPE  H10119335   7.071   3.530   8.000 -0.6665 -0.6728  0.3544
  171SOPE  C21119336   6.871   3.617   8.027 -0.6225  0.1627  0.6695
  171SOPE  H11R19337   6.853   3.546   8.111 -0.1746 -1.9887 -1.0134
  171SOPE  H11S19338   6.774   3.618   7.972 -1.4203 -2.6692  1.9318
  171SOPE  C21219339   6.915   3.745   8.087 -0.1522 -0.7854 -0.0075
  171SOPE  H12R19340   6.942   3.825   8.014 -2.5832  0.1679  0.0891
  171SOPE  H12S19341   7.002   3.734   8.155 -0.5204 -0.1031  0.5849
  171SOPE  C21319342   6.812   3.814   8.175  0.1649  0.1401  0.2375
  171SOPE  H13R19343   6.803   3.750   8.265 -0.9582  2.0406  1.5101
  171SOPE  H13S19344   6.716   3.840   8.126 -1.1125 -2.8032  1.0871
  171SOPE  C21419345   6.878   3.943   8.229 -0.0357 -0.6283  0.3018
  171SOPE  H14R19346   6.911   4.000   8.140  1.7016 -1.6799  0.2530
  171SOPE  H14S19347   6.961   3.926   8.300  0.7378  2.5473  0.1853
  171SOPE  C21519348   6.771   4.031   8.303 -0.3786  0.1314 -0.0161
  171SOPE  H15R19349   6.755   3.999   8.409  1.7882  1.1572  0.6507
  171SOPE  H15S19350   6.675   4.016   8.249  0.3277  0.8734 -1.4748
  171SOPE  C21619351   6.816   4.185   8.308  0.6063  0.0784  0.7811
  171SOPE  H16R19352   6.826   4.204   8.199 -1.0987 -1.5256  0.3141
  171SOPE  H16S19353   6.921   4.183   8.344  0.7714  0.2146  0.3182
  171SOPE  C21719354   6.727   4.275   8.390  0.3328  0.9109 -0.0042
  171SOPE  H17R19355   6.762   4.379   8.406  2.5620  0.2297 -0.3140
  171SOPE  H17S19356   6.738   4.229   8.490  0.4947 -1.2084 -0.9688
  171SOPE  C21819357   6.579   4.296   8.360  0.2047 -0.4008  0.0815
  171SOPE  H18R19358   6.536   4.359   8.441 -1.1738  1.0363 -1.7141
  171SOPE  H18S19359   6.537   4.193   8.363  1.1405 -0.7995 -0.3592
  171SOPE  H18T19360   6.574   4.341   8.259  0.4300  0.7874  0.5876
  171SOPE   C3319361   7.124   3.381   7.353 -0.9384  0.2074  0.1218
  171SOPE   H3X19362   7.175   3.316   7.278 -2.9458 -0.2088 -0.8970
  171SOPE   H3Y19363   7.028   3.326   7.365 -1.7035  0.9390 -2.3170
  171SOPE   C3419364   7.203   3.372   7.478 -0.5219 -0.2405 -0.0080
  171SOPE   H4X19365   7.149   3.420   7.562 -0.9064 -1.2236  0.3210
  171SOPE   H4Y19366   7.298   3.425   7.456 -1.5993  1.0120 -1.7045
  171SOPE   C3519367   7.234   3.228   7.526 -0.2120 -0.4267  0.5219
  171SOPE   H5X19368   7.290   3.171   7.448 -0.9308  0.3848 -0.6021
  171SOPE   H5Y19369   7.138   3.180   7.553 -0.7911  1.2548  1.4742
  171SOPE   C3619370   7.335   3.222   7.641 -0.2802  0.5942 -0.4132
  171SOPE   H6X19371   7.434   3.258   7.606  0.3633 -1.0880 -0.3838
  171SOPE   H6Y19372   7.360   3.118   7.673 -1.0054  0.1521 -1.2766
  171SOPE   C3719373   7.286   3.283   7.773 -0.6113  0.0655  1.1945
  171SOPE   H7X19374   7.180   3.251   7.765 -0.0603 -1.3165 -1.0618
  171SOPE   H7Y19375   7.299   3.393   7.777  2.9725 -0.2735  0.6237
  171SOPE   C3819376   7.356   3.223   7.898  0.6261  1.0354 -0.0421
  171SOPE   H8X19377   7.467   3.221   7.885  0.6756 -0.2168  0.5166
  171SOPE   H8Y19378   7.317   3.121   7.916  0.8108  0.9217 -0.2950
  171SOPE   C3919379   7.329   3.304   8.027  0.0013 -0.7919 -0.0046
  171SOPE   H9X19380   7.220   3.290   8.044 -0.2561 -0.6204 -1.4341
  171SOPE   H9Y19381   7.347   3.411   8.006 -2.1296 -0.9602 -3.1224
  171SOPE  C31019382   7.409   3.254   8.148 -0.4619  0.2128  0.0552
  171SOPE  H10X19383   7.388   3.148   8.173 -0.2506  0.3996  1.0595
  171SOPE  H10Y19384   7.357   3.311   8.228  0.5301  0.5365  0.4763
  171SOPE  C31119385   7.564   3.266   8.146  0.2219  0.5371 -0.1798
  171SOPE  H11X19386   7.601   3.196   8.068 -0.0445  1.8691 -1.5287
  171SOPE  H11Y19387   7.611   3.243   8.245  0.9121 -0.8618 -0.8234
  171SOPE  C31219388   7.606   3.414   8.108 -0.3228  0.3644 -0.0543
  171SOPE  H12X19389   7.532   3.479   8.160 -0.4167  0.7269 -0.6281
  171SOPE  H12Y19390   7.606   3.425   7.997 -0.8722 -3.1757 -0.4572
  171SOPE  C31319391   7.744   3.457   8.161 -0.5220  0.1300 -0.1757
  171SOPE  H13X19392   7.821   3.400   8.104 -1.0254  0.0009 -0.7383
  171SOPE  H13Y19393   7.753   3.431   8.269  1.0006  1.4879  0.0477
  171SOPE  C31419394   7.766   3.604   8.156 -0.3482  0.6601 -0.1578
  171SOPE  H14X19395   7.859   3.623   8.212  0.0584 -1.2794 -0.1559
  171SOPE  H14Y19396   7.688   3.670   8.201  1.0876  2.2272  0.0731
  171SOPE  C31519397   7.796   3.663   8.014 -0.4845  0.4500  0.0699
  171SOPE  H15X19398   7.701   3.653   7.958 -1.2363 -0.7941  1.5277
  171SOPE  H15Y19399   7.875   3.605   7.964 -0.8658  0.6319 -0.7500
  171SOPE  C31619400   7.820   3.819   8.017  0.7373  0.2284 -0.7324
  171SOPE  H16X19401   7.913   3.851   8.068 -0.2614 -0.0167  1.2758
  171SOPE  H16Y19402   7.732   3.870   8.062  0.9110 -1.9680  2.2085
  171SOPE  C31719403   7.827   3.878   7.879  0.1601  0.3130  0.9592
  171SOPE  H17X19404   7.735   3.838   7.830  1.3695 -0.3683 -0.8164
  171SOPE  H17Y19405   7.912   3.833   7.822 -2.8623 -2.2403 -1.7473
  171SOPE  C31819406   7.810   4.028   7.873  0.7347 -0.4192  0.4440
  171SOPE  H18X19407   7.872   4.085   7.945  1.4238 -0.1874 -0.3298
  171SOPE  H18Y19408   7.704   4.048   7.902  0.0563 -0.8612 -1.6063
  171SOPE  H18Z19409   7.820   4.075   7.773  2.0445 -1.6307 -0.0012
  172SOPE     N19410   0.019   5.423   6.309  0.4973 -0.5914  0.4891
  172SOPE   HN119411   0.019   5.329   6.265  0.7062  0.4113 -1.7456
  172SOPE   HN219412   0.054   5.407   6.405 -0.2022 -1.9002  0.5348
  172SOPE   HN319413  -0.077   5.461   6.325  0.8956  0.7476 -0.2465
  172SOPE   C1219414   0.100   5.528   6.236 -0.3075  0.5126  0.3187
  172SOPE  H12A19415   0.068   5.548   6.131 -1.1617 -0.2781  0.4261
  172SOPE  H12B19416   0.206   5.493   6.235 -1.5867 -3.7910  1.5548
  172SOPE   C1119417   0.095   5.664   6.312 -0.7807  0.4004  0.4932
  172SOPE  H11A19418  -0.012   5.695   6.309 -1.0499 -0.6304 -2.0573
  172SOPE  H11B19419   0.152   5.731   6.244 -1.2320 -0.2484 -0.5429
  172SOPE     P19420   0.262   5.742   6.503 -0.1165 -0.0495  0.2749
  172SOPE   O1319421   0.221   5.852   6.597 -0.3679  0.3516 -0.2447
  172SOPE   O1419422   0.333   5.786   6.382  0.3453  0.0559  0.2126
  172SOPE   O1219423   0.143   5.655   6.448  0.4359 -0.4800  0.3687
  172SOPE   O1119424   0.346   5.635   6.577  0.2538 -0.1832  0.1335
  172SOPE    C119425   0.369   5.502   6.522 -0.0921 -0.0723  0.3760
  172SOPE    HA19426   0.388   5.507   6.412 -2.6657  1.6664 -0.0431
  172SOPE    HB19427   0.268   5.456   6.520 -0.1114  0.0120 -1.8070
  172SOPE    C219428   0.479   5.422   6.595 -0.3208  0.3210  0.1873
  172SOPE    HS19429   0.467   5.316   6.565  2.6851 -0.4236  1.4179
  172SOPE   O2119430   0.473   5.438   6.737  0.6216 -0.0664 -0.4493
  172SOPE   C2119431   0.375   5.364   6.789 -0.2594 -0.1311 -0.3518
  172SOPE   O2219432   0.299   5.294   6.726 -0.9152  0.1949  0.2301
  172SOPE   C2219433   0.383   5.384   6.943  0.6891 -0.1198 -0.4452
  172SOPE   H2R19434   0.318   5.470   6.968  0.6493 -0.7738  1.7360
  172SOPE   H2S19435   0.490   5.399   6.970  0.1621 -0.2354  1.7904
  172SOPE    C319436   0.620   5.474   6.545 -0.5529  0.7982 -0.3719
  172SOPE    HX19437   0.608   5.584   6.543  2.1247  1.1440  1.2209
  172SOPE    HY19438   0.645   5.455   6.438  1.5354  0.2310  0.1946
  172SOPE   O3119439   0.730   5.452   6.636  0.7023  0.4253 -0.3169
  172SOPE   C3119440   0.802   5.343   6.619 -0.3382 -0.5064 -0.0866
  172SOPE   O3219441   0.794   5.259   6.530  0.3436  0.1863 -0.3252
  172SOPE   C3219442   0.897   5.332   6.743 -0.3454 -0.5298 -0.4286
  172SOPE   H2X19443   0.987   5.395   6.728  0.2221 -1.0965  0.5486
  172SOPE   H2Y19444   0.936   5.228   6.747  1.6480  0.2195  0.4140
  172SOPE   C2319445   0.338   5.263   7.023  0.0948  0.8581 -0.4570
  172SOPE   H3R19446   0.391   5.172   6.989  1.8876  1.5647  0.3955
  172SOPE   H3S19447   0.227   5.257   7.023  0.1962 -1.3942 -0.0034
  172SOPE   C2419448   0.366   5.275   7.175 -0.8277  0.3480  0.8354
  172SOPE   H4R19449   0.339   5.175   7.214  3.8559 -0.7572  1.4742
  172SOPE   H4S19450   0.476   5.280   7.188 -0.6324 -0.1459 -0.5576
  172SOPE   C2519451   0.297   5.402   7.241  0.2449 -0.6461  0.4037
  172SOPE   H5R19452   0.354   5.496   7.222 -0.4140 -0.4374 -0.5767
  172SOPE   H5S19453   0.200   5.421   7.190 -0.5858 -0.2370  2.0769
  172SOPE   C2619454   0.266   5.375   7.387  0.1173 -0.0256  0.2358
  172SOPE   H6R19455   0.206   5.465   7.415 -0.3881 -0.0143 -0.8418
  172SOPE   H6S19456   0.211   5.280   7.400  1.7412 -1.2478 -1.6916
  172SOPE   C2719457   0.393   5.363   7.470  0.5394 -0.3145  0.1744
  172SOPE   H7R19458   0.448   5.271   7.439  2.1632  0.6731  0.0775
  172SOPE   H7S19459   0.451   5.450   7.433 -0.3984 -0.7583 -2.4837
  172SOPE   C2819460   0.370   5.382   7.623 -0.0717  0.2038 -0.4388
  172SOPE   H8R19461   0.473   5.389   7.663 -0.5630 -2.1176  1.3036
  172SOPE   H8S19462   0.316   5.476   7.645  1.6237  1.4149 -1.3381
  172SOPE   C2919463   0.299   5.264   7.689 -0.7127 -0.1411  0.4982
  172SOPE   H9119464   0.235   5.207   7.620 -0.2201  0.5160 -0.5142
  172SOPE  C21019465   0.323   5.212   7.810  0.7699  0.3761 -0.0641
  172SOPE  H10119466   0.265   5.131   7.857 -0.9673  0.8651 -1.2955
  172SOPE  C21119467   0.432   5.251   7.911 -0.2781 -0.2567  0.0912
  172SOPE  H11R19468   0.508   5.314   7.860 -0.0127 -0.8555 -0.2568
  172SOPE  H11S19469   0.489   5.158   7.933 -1.0385 -0.1599  2.6472
  172SOPE  C21219470   0.358   5.314   8.034 -0.2001 -0.4695 -0.3672
  172SOPE  H12R19471   0.297   5.403   8.007 -1.0545 -0.4811  1.4969
  172SOPE  H12S19472   0.450   5.357   8.080  1.5966 -2.4786 -1.9424
  172SOPE  C21319473   0.283   5.216   8.124  0.1473  0.3702 -0.0409
  172SOPE  H13R19474   0.194   5.179   8.068  2.4517 -2.7821 -1.7789
  172SOPE  H13S19475   0.243   5.269   8.213  1.7158  2.4669 -0.5415
  172SOPE  C21419476   0.382   5.103   8.179 -0.1952 -0.1571  1.0305
  172SOPE  H14R19477   0.474   5.138   8.231  0.3680 -1.3277  0.8281
  172SOPE  H14S19478   0.415   5.043   8.091 -0.7746 -1.0237  1.3964
  172SOPE  C21519479   0.305   5.001   8.258  0.0540  0.0583 -0.2250
  172SOPE  H15R19480   0.367   4.910   8.271  0.0167  0.0369 -0.1941
  172SOPE  H15S19481   0.206   4.982   8.210 -1.0775 -1.0235  2.4417
  172SOPE  C21619482   0.270   5.049   8.403 -0.1640 -0.1446  0.2995
  172SOPE  H16R19483   0.174   5.100   8.381 -0.3026 -0.3213  0.4887
  172SOPE  H16S19484   0.346   5.120   8.441  2.3286 -2.8802  0.5715
  172SOPE  C21719485   0.245   4.921   8.490 -0.1711 -0.0474 -0.1980
  172SOPE  H17R19486   0.194   4.847   8.426 -1.1573  1.2897 -0.9943
  172SOPE  H17S19487   0.178   4.936   8.577 -1.1903  1.2230 -1.1741
  172SOPE  C21819488   0.379   4.853   8.520  1.1479 -0.0620  0.5864
  172SOPE  H18R19489   0.437   4.831   8.428 -2.9604 -4.7879 -1.1258
  172SOPE  H18S19490   0.371   4.759   8.577  2.2561 -0.8965 -0.6004
  172SOPE  H18T19491   0.439   4.920   8.586  1.2989  2.0021 -1.5537
  172SOPE   C3319492   0.814   5.357   6.875 -0.4026 -0.1612 -0.8953
  172SOPE   H3X19493   0.733   5.281   6.885 -0.7524  0.1952 -0.9864
  172SOPE   H3Y19494   0.765   5.457   6.873 -0.8369 -0.3318  0.6034
  172SOPE   C3419495   0.897   5.374   6.999  0.2653 -0.7156  0.0065
  172SOPE   H4X19496   0.964   5.462   6.992 -0.8312  0.5019  3.4310
  172SOPE   H4Y19497   0.961   5.286   7.023  0.3217 -0.7351 -0.2231
  172SOPE   C3519498   0.809   5.391   7.133  0.0836  0.4721  0.2192
  172SOPE   H5X19499   0.747   5.299   7.146  0.9442 -0.1159  0.1659
  172SOPE   H5Y19500   0.735   5.469   7.106 -0.9365 -1.1749 -1.8528
  172SOPE   C3619501   0.890   5.426   7.257 -0.4613  0.0363  0.2061
  172SOPE   H6X19502   0.944   5.522   7.240  1.6344 -0.9285  1.1420
  172SOPE   H6Y19503   0.966   5.345   7.271 -0.8669 -0.1826  1.2192
  172SOPE   C3719504   0.797   5.429   7.380  0.3389 -0.5558  0.0956
  172SOPE   H7X19505   0.726   5.344   7.384 -1.7982  1.1737 -0.6521
  172SOPE   H7Y19506   0.747   5.527   7.373  0.2054 -0.5607  0.8668
  172SOPE   C3819507   0.869   5.424   7.509 -0.3027 -0.2730  0.1523
  172SOPE   H8X19508   0.944   5.506   7.517 -0.9597  0.2027  1.5694
  172SOPE   H8Y19509   0.933   5.334   7.522 -1.0544 -0.8346 -0.0367
  172SOPE   C3919510   0.785   5.421   7.635  0.2758  0.1202  0.1939
  172SOPE   H9X19511   0.718   5.333   7.636 -1.0237  1.0910 -0.5115
  172SOPE   H9Y19512   0.712   5.502   7.617 -1.6372 -2.4430 -4.1472
  172SOPE  C31019513   0.861   5.437   7.773 -0.0361 -0.5612 -0.2696
  172SOPE  H10X19514   0.902   5.540   7.787 -2.2795  0.4186 -0.7278
  172SOPE  H10Y19515   0.944   5.363   7.769  1.8150  1.4863 -1.4006
  172SOPE  C31119516   0.779   5.398   7.901  0.5249  0.5807 -0.3231
  172SOPE  H11X19517   0.756   5.290   7.905 -0.4919  0.7689 -1.0244
  172SOPE  H11Y19518   0.681   5.451   7.906  0.3987  0.1807  1.8205
  172SOPE  C31219519   0.863   5.430   8.031  0.1911  0.2307  0.8245
  172SOPE  H12X19520   0.877   5.538   8.056  1.8832 -0.0190  0.9932
  172SOPE  H12Y19521   0.967   5.390   8.031  0.6891  1.4773  0.6382
  172SOPE  C31319522   0.793   5.377   8.150  0.6531 -0.0621 -0.4968
  172SOPE  H13X19523   0.779   5.268   8.138 -0.1403 -0.3706  2.6854
  172SOPE  H13Y19524   0.692   5.424   8.148  0.0600 -1.2157  1.1253
  172SOPE  C31419525   0.873   5.378   8.281  0.4550  0.2075  0.1780
  172SOPE  H14X19526   0.883   5.484   8.315  1.4386  0.5695 -1.1877
  172SOPE  H14Y19527   0.971   5.334   8.252  0.6550  1.5718 -1.3470
  172SOPE  C31519528   0.790   5.307   8.388 -0.4956 -0.4583  0.4242
  172SOPE  H15X19529   0.858   5.294   8.475 -2.0201 -0.8613  1.5795
  172SOPE  H15Y19530   0.764   5.206   8.351  2.1854 -1.9541  2.4483
  172SOPE  C31619531   0.671   5.391   8.435  0.1600  0.0116 -0.0491
  172SOPE  H16X19532   0.607   5.416   8.348  0.1260 -1.1189 -0.3595
  172SOPE  H16Y19533   0.705   5.487   8.480  0.4943 -0.2251  0.2063
  172SOPE  C31719534   0.591   5.320   8.544  0.5499 -0.5437  0.1617
  172SOPE  H17X19535   0.649   5.327   8.639  0.4898  0.3213  0.1417
  172SOPE  H17Y19536   0.583   5.218   8.502  1.1412 -0.4198 -0.2609
  172SOPE  C31819537   0.458   5.389   8.539  0.1250  0.9055 -0.5981
  172SOPE  H18X19538   0.478   5.497   8.524  0.6140  0.8380 -0.4334
  172SOPE  H18Y19539   0.391   5.364   8.624 -0.2827 -0.6717 -1.3786
  172SOPE  H18Z19540   0.400   5.360   8.450  0.1663  0.2305 -0.4062
  173SAPI   C1219541   2.296   2.267  10.882  0.6358 -0.0455  0.4135
  173SAPI    H219542   2.294   2.273  10.771 -3.0315 -0.0308  0.4060
  173SAPI    O219543   2.421   2.322  10.937  0.3239 -0.2661  0.2014
  173SAPI   HO219544   2.484   2.272  10.884  2.0694  0.1770  1.8069
  173SAPI   C1319545   2.179   2.351  10.927 -0.0057 -0.7918 -0.5498
  173SAPI    H319546   2.085   2.312  10.882 -0.5641 -0.3908  0.2307
  173SAPI    O319547   2.198   2.481  10.879 -0.3159 -0.0323  0.0763
  173SAPI   HO319548   2.283   2.522  10.896 -0.4438  0.6373 -0.8983
  173SAPI   C1419549   2.159   2.345  11.079  0.1995  0.2060  0.2437
  173SAPI    H419550   2.244   2.400  11.125  2.7794 -2.7548 -0.8195
  173SAPI    O419551   2.043   2.416  11.113  0.0786 -0.3990 -0.0776
  173SAPI   HO419552   2.051   2.511  11.101 -2.9928  0.3263  2.9973
  173SAPI   C1519553   2.148   2.203  11.133  0.0972 -0.5244  0.0428
  173SAPI    H519554   2.057   2.160  11.087  0.0811  0.1660 -0.5788
  173SAPI    O519555   2.129   2.207  11.280 -0.0493 -0.0007 -0.4088
  173SAPI   HO519556   2.091   2.289  11.312 -0.5820 -0.5063  0.2574
  173SAPI   C1619557   2.269   2.117  11.092  0.1942 -0.1019  0.2943
  173SAPI    H619558   2.361   2.157  11.140  0.4472 -0.0363 -0.2490
  173SAPI    O619559   2.244   1.989  11.130  0.0646 -0.5808  0.3115
  173SAPI   HO619560   2.289   1.922  11.078 -0.5490 -0.3683 -0.4983
  173SAPI   C1119561   2.277   2.127  10.937  0.3162  0.6881  0.0076
  173SAPI    H119562   2.186   2.085  10.889  1.8186 -2.0665 -0.5826
  173SAPI     P19563   2.388   1.906  10.805  0.6227 -0.6175 -0.1705
  173SAPI   O1319564   2.285   1.830  10.877  0.2823  0.0471 -0.6134
  173SAPI   O1419565   2.523   1.852  10.787 -0.1985  0.4225  0.5871
  173SAPI   O1219566   2.389   2.051  10.888 -0.0260 -0.6342  0.3244
  173SAPI   O1119567   2.323   1.952  10.667 -0.0053  0.2546 -0.3288
  173SAPI    C119568   2.413   2.027  10.581 -0.0264  0.0181 -0.2618
  173SAPI    HA19569   2.375   2.132  10.579 -2.9946 -1.0016  0.0259
  173SAPI    HB19570   2.521   2.026  10.606 -0.1134 -0.5583  0.1128
  173SAPI    C219571   2.414   1.971  10.435 -0.5928 -0.2310 -0.8865
  173SAPI    HS19572   2.483   2.044  10.388 -1.1936  1.4211  0.7310
  173SAPI   O2119573   2.278   1.980  10.389 -0.2800  1.0136 -0.0552
  173SAPI   C2119574   2.220   2.099  10.366 -0.5071 -0.6512  0.1659
  173SAPI   O2219575   2.272   2.207  10.371  0.6271 -0.2320 -0.2624
  173SAPI   C2219576   2.074   2.084  10.331  0.1014  0.2624  0.1396
  173SAPI   H2R19577   2.058   1.983  10.288  1.4077  1.5196 -3.5205
  173SAPI   H2S19578   2.008   2.086  10.420  0.2786 -0.0152  0.2797
  173SAPI    C319579   2.456   1.819  10.427  0.0737 -0.6834 -1.2003
  173SAPI    HX19580   2.375   1.771  10.486  0.4351 -0.5766 -0.6139
  173SAPI    HY19581   2.550   1.804  10.484 -0.4148  2.1636  0.4934
  173SAPI   O3119582   2.473   1.784  10.288  0.1560 -0.2753  0.1378
  173SAPI   C3119583   2.385   1.689  10.250 -0.2728  0.4861  0.5308
  173SAPI   O3219584   2.295   1.642  10.320 -0.2168  0.4567 -0.1012
  173SAPI   C3219585   2.407   1.657  10.104  0.1228 -0.3849 -0.2615
  173SAPI   H2X19586   2.342   1.570  10.080  0.2214 -0.0954 -1.5704
  173SAPI   H2Y19587   2.514   1.628  10.093  0.1721 -1.0137  1.7025
  173SAPI   C2319588   2.022   2.189  10.228 -0.1808 -0.3021 -0.3771
  173SAPI   H3R19589   2.073   2.288  10.233  1.4488 -1.1394  0.0648
  173SAPI   H3S19590   1.917   2.208  10.257 -0.1717  1.7587 -1.6124
  173SAPI   C2419591   2.016   2.140  10.085  0.8087  0.2668 -0.7561
  173SAPI   H4R19592   1.943   2.211  10.040  1.0365  1.9382  1.4306
  173SAPI   H4S19593   1.990   2.033  10.071  0.9240  0.0986  0.3085
  173SAPI   C2519594   2.138   2.161  10.001 -0.1447  0.0747 -0.3926
  173SAPI   H5R19595   2.226   2.192  10.060  0.0007 -0.2567 -0.4361
  173SAPI   C2619596   2.151   2.145   9.867 -1.0206  0.9612  0.2086
  173SAPI   H6R19597   2.250   2.172   9.826 -1.3195  0.0096 -1.1719
  173SAPI   C2719598   2.055   2.107   9.762  0.3706 -0.5448  0.3808
  173SAPI   H7R19599   1.958   2.073   9.804  1.1536 -1.4950  1.4472
  173SAPI   H7S19600   2.098   2.023   9.704  2.1237  0.4804  0.1557
  173SAPI   C2819601   2.023   2.225   9.672 -0.1926 -0.1789 -0.1172
  173SAPI   H8R19602   1.919   2.261   9.685 -0.5405 -0.8675 -0.9322
  173SAPI   C2919603   2.103   2.287   9.582 -0.1182 -0.4418  0.7673
  173SAPI   H9R19604   2.065   2.371   9.522 -1.4428  0.2662  2.5732
  173SAPI  C21019605   2.247   2.255   9.554  1.0572  0.4147  0.1847
  173SAPI  H10R19606   2.276   2.158   9.600 -0.8706 -1.3117 -2.1309
  173SAPI  H10S19607   2.310   2.335   9.597  0.0990  1.2495  0.0383
  173SAPI  C21119608   2.266   2.241   9.402  0.3867  0.5081 -0.3548
  173SAPI  H11R19609   2.200   2.163   9.361 -0.0766 -0.7667  2.6610
  173SAPI  C21219610   2.350   2.304   9.314  0.1547  0.0697  0.6694
  173SAPI  H12R19611   2.330   2.291   9.207  0.0935  0.2768  0.6547
  173SAPI  C21319612   2.439   2.413   9.361 -0.2443  0.4280  0.8290
  173SAPI  H13R19613   2.536   2.399   9.309 -2.2770 -0.3443 -2.8860
  173SAPI  H13S19614   2.464   2.397   9.468  1.3851 -0.1913  0.3661
  173SAPI  C21419615   2.384   2.546   9.342  0.7240  0.3578  0.1389
  173SAPI  H14R19616   2.318   2.558   9.255 -1.9377 -1.5516  1.7725
  173SAPI  C21519617   2.407   2.653   9.420  0.0604 -0.2867 -0.2016
  173SAPI  H15R19618   2.351   2.746   9.400  0.1696 -0.2841 -0.4914
  173SAPI  C21619619   2.491   2.666   9.543  0.1013  0.3925 -0.1468
  173SAPI  H16R19620   2.575   2.738   9.543  1.0081 -0.6649 -0.8216
  173SAPI  H16S19621   2.534   2.565   9.561 -2.4765 -0.2912  2.6549
  173SAPI  C21719622   2.402   2.700   9.664 -0.1797  0.0914  0.2492
  173SAPI  H17R19623   2.353   2.796   9.637  0.2146  0.3644  0.4970
  173SAPI  H17S19624   2.457   2.719   9.759 -0.2849  0.4024  0.2479
  173SAPI  C21819625   2.306   2.590   9.716  0.2356  0.6504 -0.3702
  173SAPI  H18R19626   2.361   2.501   9.752  0.1844 -0.0821 -2.0555
  173SAPI  H18S19627   2.227   2.563   9.642 -0.2170 -1.9480  0.9915
  173SAPI  C21919628   2.243   2.631   9.853 -0.8909 -0.5284 -0.4906
  173SAPI  H19R19629   2.192   2.730   9.848 -1.6803 -0.9231 -0.4584
  173SAPI  H19S19630   2.318   2.650   9.933  0.5732 -1.3727 -1.6583
  173SAPI  C22019631   2.143   2.525   9.902  0.1419 -0.0274 -0.6437
  173SAPI  H20R19632   2.205   2.439   9.935  1.6867 -0.0953 -3.5383
  173SAPI  H20S19633   2.079   2.492   9.818  1.9400 -2.3333 -1.1749
  173SAPI  H20T19634   2.083   2.566   9.986  0.6206  2.2388 -1.3685
  173SAPI   C3319635   2.367   1.777  10.023 -0.1229 -0.0051 -0.3594
  173SAPI   H3X19636   2.424   1.867  10.054  0.3492 -0.7253  0.8779
  173SAPI   H3Y19637   2.267   1.827  10.028  0.3114  0.7221  1.1730
  173SAPI   C3419638   2.400   1.736   9.875  0.6315 -1.0199  0.2365
  173SAPI   H4X19639   2.340   1.646   9.848 -2.7528  1.2036  0.0363
  173SAPI   H4Y19640   2.509   1.721   9.860  0.6473  0.4641 -1.2907
  173SAPI   C3519641   2.349   1.845   9.774  0.2699 -0.8286 -0.2702
  173SAPI   H5X19642   2.395   1.946   9.786 -0.0366 -0.4588 -2.0034
  173SAPI   H5Y19643   2.238   1.851   9.781  0.4823  1.5382  1.7541
  173SAPI   C3619644   2.379   1.802   9.624 -0.0032 -0.2067 -0.8014
  173SAPI   H6X19645   2.445   1.718   9.595 -0.0346  0.1812 -2.0032
  173SAPI   H6Y19646   2.429   1.891   9.581 -0.8701 -0.1929 -1.8080
  173SAPI   C3719647   2.255   1.776   9.536  0.4494 -0.4541  0.4790
  173SAPI   H7X19648   2.200   1.873   9.531  0.8054 -0.2635  0.2183
  173SAPI   H7Y19649   2.195   1.703   9.593 -1.9543 -0.7513 -2.3185
  173SAPI   C3819650   2.281   1.748   9.390 -0.7220 -0.0858  0.2269
  173SAPI   H8X19651   2.244   1.644   9.373 -0.4055 -0.5153  2.1187
  173SAPI   H8Y19652   2.392   1.737   9.390 -0.5009  2.0133 -0.5727
  173SAPI   C3919653   2.236   1.853   9.286  0.2875 -0.6195  0.2105
  173SAPI   H9X19654   2.284   1.950   9.312 -1.7725  1.0738 -1.9911
  173SAPI   H9Y19655   2.127   1.872   9.297  0.3472  0.1623 -0.5340
  173SAPI  C31019656   2.284   1.827   9.143  0.5354 -0.5425 -0.1195
  173SAPI  H10X19657   2.392   1.805   9.156  0.1789 -0.7642  2.9290
  173SAPI  H10Y19658   2.272   1.922   9.086 -4.8316 -0.6597  0.5222
  173SAPI  C31119659   2.199   1.729   9.062 -0.1193  0.0645 -0.0399
  173SAPI  H11X19660   2.190   1.632   9.115 -1.2612 -0.2353 -0.7757
  173SAPI  H11Y19661   2.263   1.718   8.972 -1.2543  0.4141 -0.9029
  173SAPI  C31219662   2.072   1.790   9.017 -0.4523 -0.5245 -0.3443
  173SAPI  H12X19663   2.083   1.895   8.980  1.5482 -0.5511  0.1149
  173SAPI  H12Y19664   1.997   1.792   9.099  2.6355 -0.7072  2.5871
  173SAPI  C31319665   1.997   1.706   8.917  0.3415 -0.2476  0.2188
  173SAPI  H13X19666   2.014   1.605   8.959 -1.4226 -0.2697  0.9366
  173SAPI  H13Y19667   2.050   1.707   8.819 -2.0984  0.5102 -1.1386
  173SAPI  C31419668   1.845   1.717   8.915  0.0531 -0.2079 -0.1446
  173SAPI  H14X19669   1.823   1.665   9.011  3.4261  1.0441  1.3782
  173SAPI  H14Y19670   1.809   1.650   8.834 -0.1211  0.0050 -0.2418
  173SAPI  C31519671   1.797   1.862   8.909  0.7302  0.0865 -0.2044
  173SAPI  H15X19672   1.815   1.911   8.811 -2.2022 -2.3435 -2.0044
  173SAPI  H15Y19673   1.851   1.914   8.992 -2.8587  2.6095  0.6694
  173SAPI  C31619674   1.650   1.883   8.939 -0.1826 -0.3141 -1.0002
  173SAPI  H16X19675   1.588   1.841   8.857 -2.0860  0.5353 -0.0319
  173SAPI  H16Y19676   1.640   1.990   8.912 -0.5506  0.1109  0.7616
  173SAPI  C31719677   1.599   1.864   9.079 -0.3768  0.5396  0.6371
  173SAPI  H17X19678   1.519   1.940   9.095  0.1475  1.2308  0.0366
  173SAPI  H17Y19679   1.680   1.885   9.152  0.1855 -1.8194  0.7075
  173SAPI  C31819680   1.534   1.725   9.113 -0.0858 -0.1239  0.5192
  173SAPI  H18X19681   1.612   1.649   9.094  1.5172  1.1204  1.9139
  173SAPI  H18Y19682   1.446   1.709   9.047 -0.3851  3.8343 -0.1702
  173SAPI  H18Z19683   1.506   1.707   9.219 -2.0836 -1.0405 -0.1309
  174SAPI   C1219684   6.273   3.526  11.205 -0.0576 -0.4721 -0.3373
  174SAPI    H219685   6.268   3.420  11.237 -1.6988 -0.6634 -1.1881
  174SAPI    O219686   6.221   3.605  11.310 -0.3195 -0.5060 -0.2503
  174SAPI   HO219687   6.127   3.598  11.294 -0.5071  1.6300 -0.1297
  174SAPI   C1319688   6.420   3.552  11.171 -0.2226  0.1917 -0.0517
  174SAPI    H319689   6.468   3.476  11.106  0.6677 -0.8805  1.8259
  174SAPI    O319690   6.507   3.546  11.291  0.2379 -0.3997 -0.7644
  174SAPI   HO319691   6.593   3.584  11.273 -0.3612  0.2178 -2.4494
  174SAPI   C1419692   6.433   3.690  11.118 -0.1898 -0.1513 -0.1424
  174SAPI    H419693   6.389   3.768  11.184  2.4225 -0.3245  1.8943
  174SAPI    O419694   6.570   3.716  11.091 -0.8186 -0.1435 -0.4768
  174SAPI   HO419695   6.595   3.644  11.034 -0.1219 -2.1442  2.2335
  174SAPI   C1519696   6.344   3.720  10.994  0.1053  0.3147 -0.4382
  174SAPI    H519697   6.389   3.658  10.914  1.4308 -1.7523  1.8269
  174SAPI    O519698   6.359   3.854  10.950 -0.9081 -0.1539  0.1143
  174SAPI   HO519699   6.343   3.867  10.856  1.5585 -0.8686 -0.4370
  174SAPI   C1619700   6.199   3.685  11.028  0.0469  0.0677 -0.4711
  174SAPI    H619701   6.158   3.769  11.087 -0.6353 -0.3545 -0.3315
  174SAPI    O619702   6.124   3.698  10.911 -0.3468  0.0098  0.4277
  174SAPI   HO619703   6.115   3.612  10.870  0.1529 -0.7397  1.8345
  174SAPI   C1119704   6.191   3.539  11.082  0.0016 -0.0178  0.3639
  174SAPI    H119705   6.236   3.483  10.997  1.0237  2.4172 -0.7587
  174SAPI     P19706   5.964   3.401  11.025  0.5500  0.3684  0.0649
  174SAPI   O1319707   5.835   3.373  11.084  0.1112  0.2858  0.1554
  174SAPI   O1419708   6.042   3.282  10.998 -0.2317  0.2268  0.2461
  174SAPI   O1219709   6.054   3.502  11.112 -0.4021 -0.4310  0.3114
  174SAPI   O1119710   5.946   3.476  10.884  0.1412  0.7286  0.0369
  174SAPI    C119711   5.826   3.492  10.806 -0.0844  0.6847 -0.1037
  174SAPI    HA19712   5.738   3.520  10.868  2.3962 -0.5257  4.1950
  174SAPI    HB19713   5.844   3.585  10.749  1.5034  0.3563 -0.1610
  174SAPI    C219714   5.797   3.383  10.705  0.0068  0.6862  0.2174
  174SAPI    HS19715   5.806   3.288  10.762  0.4955  0.9352  0.5678
  174SAPI   O2119716   5.891   3.387  10.600 -0.6632  0.6212 -0.6308
  174SAPI   C2119717   5.909   3.277  10.534 -0.1135  0.1251  0.8639
  174SAPI   O2219718   5.852   3.170  10.556 -0.1746  0.3835  0.1385
  174SAPI   C2219719   6.003   3.298  10.412 -0.3410 -0.3342 -0.0397
  174SAPI   H2R19720   5.965   3.388  10.359  2.5319  0.1030 -1.4438
  174SAPI   H2S19721   6.100   3.332  10.454 -0.8513 -0.3216  1.1430
  174SAPI    C319722   5.658   3.409  10.646  0.2509  0.0031 -0.3842
  174SAPI    HX19723   5.582   3.418  10.727  0.7271 -0.7847  0.1546
  174SAPI    HY19724   5.634   3.321  10.583 -1.1679  0.0145  0.1221
  174SAPI   O3119725   5.658   3.539  10.572  0.6679  0.8010  0.0525
  174SAPI   C3119726   5.652   3.527  10.435  0.3346  0.1659 -0.1802
  174SAPI   O3219727   5.659   3.416  10.381  0.0875  0.3710  0.0885
  174SAPI   C3219728   5.625   3.661  10.372  0.8021  0.1748  1.4267
  174SAPI   H2X19729   5.717   3.723  10.374  0.9062  0.0131  2.1022
  174SAPI   H2Y19730   5.539   3.707  10.424  0.3670  0.8964  0.0876
  174SAPI   C2319731   6.013   3.182  10.309 -0.1860 -0.3156 -0.5202
  174SAPI   H3R19732   5.928   3.161  10.241 -0.2975  0.9800 -0.7925
  174SAPI   H3S19733   6.040   3.094  10.370  0.6477 -0.7094 -1.4353
  174SAPI   C2419734   6.131   3.203  10.218 -0.4517 -0.0105 -0.3459
  174SAPI   H4R19735   6.146   3.114  10.154  0.6399  1.4030 -2.1084
  174SAPI   H4S19736   6.220   3.196  10.285 -3.7036  0.5326  4.2178
  174SAPI   C2519737   6.129   3.331  10.134  0.2865 -0.1424  0.4254
  174SAPI   H5R19738   6.123   3.422  10.196 -1.7650  0.8718 -1.1865
  174SAPI   C2619739   6.117   3.342  10.002  0.8502  0.1657  0.2370
  174SAPI   H6R19740   6.109   3.445   9.964  2.1277 -0.3970 -1.5802
  174SAPI   C2719741   6.122   3.232   9.897 -0.8414 -0.6607 -0.0954
  174SAPI   H7R19742   6.026   3.240   9.841 -1.7521  2.4182  1.7926
  174SAPI   H7S19743   6.112   3.131   9.943 -1.2120 -0.5978 -0.0363
  174SAPI   C2819744   6.248   3.232   9.814 -0.7514 -0.5035 -1.0984
  174SAPI   H8R19745   6.343   3.217   9.868 -0.2139 -0.8972 -2.1505
  174SAPI   C2919746   6.253   3.236   9.682  0.1433  0.2229  0.3542
  174SAPI   H9R19747   6.347   3.235   9.624  1.0818  1.1043  1.8414
  174SAPI  C21019748   6.134   3.241   9.593  0.7565 -0.8275  0.4475
  174SAPI  H10R19749   6.043   3.203   9.644  0.2133 -0.1109  0.0189
  174SAPI  H10S19750   6.152   3.168   9.511 -0.0564  0.1593 -0.6201
  174SAPI  C21119751   6.094   3.369   9.527  0.3659  0.0774 -0.1662
  174SAPI  H11R19752   6.073   3.453   9.595  0.9252  0.2158 -0.1636
  174SAPI  C21219753   6.091   3.403   9.400  0.9357  0.5952 -0.3325
  174SAPI  H12R19754   6.069   3.509   9.378 -0.9230 -0.1253 -2.0938
  174SAPI  C21319755   6.110   3.324   9.268 -0.2157  0.5925 -0.2147
  174SAPI  H13R19756   6.187   3.247   9.294 -0.8830  0.5771  1.8323
  174SAPI  H13S19757   6.159   3.390   9.193  2.2696  1.1610  1.8086
  174SAPI  C21419758   5.983   3.253   9.218 -0.0074  0.2621  0.1381
  174SAPI  H14R19759   5.906   3.226   9.292  1.2155  0.6526  1.5623
  174SAPI  C21519760   5.959   3.214   9.089 -0.1606  0.1590 -0.7709
  174SAPI  H15R19761   5.861   3.171   9.063 -1.0682  1.0750  1.0720
  174SAPI  C21619762   6.042   3.226   8.965  0.1888 -0.0396  0.8266
  174SAPI  H16R19763   6.041   3.123   8.923 -0.9481  0.2805  0.0439
  174SAPI  H16S19764   6.148   3.252   8.981  0.4006 -1.2747  1.5254
  174SAPI  C21719765   5.981   3.331   8.873 -1.0787 -0.3599 -0.1228
  174SAPI  H17R19766   5.883   3.312   8.825 -0.8527  0.2607 -0.8318
  174SAPI  H17S19767   6.059   3.345   8.796  0.4877  0.0633  1.5180
  174SAPI  C21819768   5.958   3.462   8.945 -0.0878 -0.4515 -0.3395
  174SAPI  H18R19769   6.039   3.478   9.020 -2.6093  0.4379  2.3081
  174SAPI  H18S19770   5.861   3.467   8.998  0.4872 -0.0935  0.7122
  174SAPI  C21919771   5.958   3.586   8.845 -0.5045 -0.3434 -0.2073
  174SAPI  H19R19772   5.942   3.678   8.905 -0.1450 -1.5290  1.7696
  174SAPI  H19S19773   5.875   3.584   8.771  0.0305  0.5869 -0.8452
  174SAPI  C22019774   6.085   3.628   8.768 -0.0490 -0.2264  0.0397
  174SAPI  H20R19775   6.168   3.665   8.832 -1.7481  1.9867  1.0330
  174SAPI  H20S19776   6.071   3.711   8.696 -0.0196  2.8911  3.4926
  174SAPI  H20T19777   6.126   3.537   8.719  0.0917 -1.2996  2.1080
  174SAPI   C3319778   5.587   3.638  10.225  0.0416  0.3976 -0.4512
  174SAPI   H3X19779   5.502   3.567  10.211  1.0525 -1.0245  0.5490
  174SAPI   H3Y19780   5.668   3.599  10.160 -1.1797 -0.0871 -1.7255
  174SAPI   C3419781   5.538   3.761  10.151  0.0372  0.2349 -0.6100
  174SAPI   H4X19782   5.613   3.843  10.152 -1.1611  1.3498  1.1368
  174SAPI   H4Y19783   5.447   3.796  10.205 -0.4992  0.3374 -1.5659
  174SAPI   C3519784   5.508   3.725  10.005  0.4216 -0.1502 -0.7188
  174SAPI   H5X19785   5.415   3.665  10.003 -0.2746  0.8638  0.4735
  174SAPI   H5Y19786   5.597   3.665   9.976  0.7091 -0.4065  0.6842
  174SAPI   C3619787   5.479   3.846   9.916  0.1739  1.3285  0.2749
  174SAPI   H6X19788   5.563   3.917   9.925  1.5855 -0.3419  0.5547
  174SAPI   H6Y19789   5.388   3.902   9.947 -1.0721  0.0051 -0.9173
  174SAPI   C3719790   5.470   3.799   9.767  0.1936 -0.3225 -0.3007
  174SAPI   H7X19791   5.392   3.721   9.754  0.8029 -0.8397 -0.8931
  174SAPI   H7Y19792   5.570   3.755   9.747  0.6127 -0.9205  2.8481
  174SAPI   C3819793   5.443   3.918   9.669 -0.5628  0.5042 -0.1101
  174SAPI   H8X19794   5.526   3.987   9.695  1.8823 -1.4040 -2.6030
  174SAPI   H8Y19795   5.343   3.955   9.700 -1.4432 -2.0730  0.2734
  174SAPI   C3919796   5.427   3.884   9.519 -0.0343 -0.0057  0.2381
  174SAPI   H9X19797   5.353   3.802   9.508  0.6191 -0.6223  0.3986
  174SAPI   H9Y19798   5.532   3.859   9.493  1.2240  2.7055  2.4438
  174SAPI  C31019799   5.380   4.012   9.445  0.7792  0.4884 -0.2421
  174SAPI  H10X19800   5.455   4.093   9.457  1.1071  0.2211 -0.5043
  174SAPI  H10Y19801   5.284   4.043   9.490 -0.2800  1.2500 -2.9340
  174SAPI  C31119802   5.354   3.988   9.297 -0.2170  0.2422 -0.1262
  174SAPI  H11X19803   5.299   3.893   9.287 -1.0476  0.8316 -1.3430
  174SAPI  H11Y19804   5.450   3.972   9.243 -0.0451 -0.3978  0.3631
  174SAPI  C31219805   5.267   4.103   9.227 -0.2306  0.4005  0.7225
  174SAPI  H12X19806   5.315   4.195   9.268  2.8651 -0.7657 -0.1569
  174SAPI  H12Y19807   5.164   4.094   9.267 -0.3134 -0.6455  0.2710
  174SAPI  C31319808   5.267   4.094   9.071 -1.0583  0.5496 -0.6845
  174SAPI  H13X19809   5.195   4.014   9.046  0.6331 -1.2876  0.1443
  174SAPI  H13Y19810   5.366   4.077   9.024 -0.8150  2.7176 -1.0050
  174SAPI  C31419811   5.217   4.216   8.998 -0.0255  0.2531  0.3988
  174SAPI  H14X19812   5.263   4.312   9.030 -0.8977  1.7653 -2.6909
  174SAPI  H14Y19813   5.110   4.232   9.019 -0.7478 -3.8079  0.2293
  174SAPI  C31519814   5.224   4.204   8.842  0.3098  0.0049 -0.2563
  174SAPI  H15X19815   5.162   4.117   8.812 -1.3152  0.5650  1.3812
  174SAPI  H15Y19816   5.327   4.190   8.803  0.1618 -1.1053 -0.2405
  174SAPI  C31619817   5.164   4.323   8.768 -0.0363  0.2951 -0.1327
  174SAPI  H16X19818   5.232   4.411   8.766  0.2716  0.0441 -0.8379
  174SAPI  H16Y19819   5.077   4.355   8.829  0.5860  2.1454 -0.1788
  174SAPI  C31719820   5.119   4.287   8.628  0.8940  0.5497 -0.2481
  174SAPI  H17X19821   5.086   4.385   8.588  1.2589  0.6666 -0.2740
  174SAPI  H17Y19822   5.031   4.221   8.624  0.9519  0.3734  1.1022
  174SAPI  C31819823   5.217   4.221   8.541 -0.0019 -1.2033  0.5477
  174SAPI  H18X19824   5.318   4.264   8.560 -0.7875  1.0062 -0.0358
  174SAPI  H18Y19825   5.199   4.245   8.434 -0.8208  0.2537  0.9882
  174SAPI  H18Z19826   5.221   4.111   8.556 -2.4077 -1.4374 -0.3063
  175SAPI   C1219827   1.198   2.325   6.165  0.6877  0.2547 -0.0178
  175SAPI    H219828   1.294   2.315   6.109  1.2588  0.3911  0.9116
  175SAPI    O219829   1.138   2.438   6.107 -0.1228 -0.1557  0.0117
  175SAPI   HO219830   1.204   2.495   6.067 -2.3444  2.5800  0.1523
  175SAPI   C1319831   1.125   2.200   6.153 -0.4413 -0.2952  0.0806
  175SAPI    H319832   1.178   2.126   6.217 -1.9247  0.7826  2.6257
  175SAPI    O319833   1.117   2.150   6.025  0.6701 -0.6115  0.1284
  175SAPI   HO319834   1.038   2.186   5.983  0.1409  1.0723  2.4693
  175SAPI   C1419835   0.992   2.208   6.225  0.1602  0.6181 -0.3953
  175SAPI    H419836   0.931   2.279   6.165 -1.7802  0.9733  1.9227
  175SAPI    O419837   0.928   2.081   6.213  0.2888 -0.0448 -0.3184
  175SAPI   HO419838   0.973   2.024   6.276  0.3409  2.2080  1.7651
  175SAPI   C1519839   0.998   2.249   6.371 -0.2059  0.1570 -0.1376
  175SAPI    H519840   1.047   2.163   6.421 -1.2825 -1.9817 -2.6122
  175SAPI    O519841   0.866   2.265   6.427 -0.4216  0.2642 -0.0615
  175SAPI   HO519842   0.865   2.271   6.523 -0.4717  0.1961 -0.0585
  175SAPI   C1619843   1.084   2.374   6.381  0.6012  0.1353 -0.0305
  175SAPI    H619844   1.026   2.455   6.332 -2.7027 -2.9129 -1.3624
  175SAPI    O619845   1.097   2.411   6.519  0.4452 -0.0056  0.4607
  175SAPI   HO619846   1.170   2.359   6.554 -0.8979 -1.1108  1.7619
  175SAPI   C1119847   1.220   2.354   6.316  0.9775  0.3912  0.3506
  175SAPI    H119848   1.255   2.261   6.366  0.0532  0.3274  0.8805
  175SAPI     P19849   1.463   2.454   6.346  0.4006  0.4058 -0.6256
  175SAPI   O1319850   1.516   2.579   6.400 -0.4232 -0.1754 -0.5746
  175SAPI   O1419851   1.520   2.422   6.213  0.2237  0.1138 -0.5710
  175SAPI   O1219852   1.296   2.466   6.340 -0.0877  0.3682 -0.2192
  175SAPI   O1119853   1.482   2.334   6.448 -0.1953  0.1012  0.3598
  175SAPI    C119854   1.600   2.249   6.422 -0.2383  0.1691 -0.7333
  175SAPI    HA19855   1.577   2.156   6.365  0.6776  0.1055 -1.0128
  175SAPI    HB19856   1.688   2.302   6.379 -0.0214  0.7824  0.4552
  175SAPI    C219857   1.662   2.200   6.562  0.9969  0.2663 -0.6521
  175SAPI    HS19858   1.759   2.149   6.550  0.4960 -1.3444  1.6134
  175SAPI   O2119859   1.556   2.112   6.616 -0.2226 -0.0147 -0.3972
  175SAPI   C2119860   1.599   2.012   6.689  0.0641 -0.3827 -0.4057
  175SAPI   O2219861   1.712   1.978   6.706 -0.3735  0.0635 -0.1451
  175SAPI   C2219862   1.476   1.944   6.753  0.9582  0.6075  0.3425
  175SAPI   H2R19863   1.386   1.962   6.691  0.9071 -1.0011 -0.0638
  175SAPI   H2S19864   1.506   1.837   6.757 -1.4559 -0.0709  1.0731
  175SAPI    C319865   1.692   2.319   6.660  0.4571  0.3470 -0.2066
  175SAPI    HX19866   1.592   2.365   6.651  1.0658  1.9999  1.1174
  175SAPI    HY19867   1.775   2.383   6.622  0.2426  0.5283 -0.3698
  175SAPI   O3119868   1.720   2.268   6.797 -0.0468 -0.7617  0.5250
  175SAPI   C3119869   1.851   2.272   6.829 -0.4013  0.0113  0.1486
  175SAPI   O3219870   1.933   2.352   6.791  0.4342 -0.8002  0.2342
  175SAPI   C3219871   1.879   2.177   6.943 -0.1401 -0.4017  0.5842
  175SAPI   H2X19872   1.920   2.091   6.887  0.4382  0.2392  0.0240
  175SAPI   H2Y19873   1.782   2.156   6.994  0.9446  0.0162  2.9023
  175SAPI   C2319874   1.448   1.986   6.899 -0.1761 -0.0819  1.1884
  175SAPI   H3R19875   1.418   2.090   6.874 -0.6477 -0.4875  0.0347
  175SAPI   H3S19876   1.544   1.987   6.956  0.6083  0.2458 -0.1182
  175SAPI   C2419877   1.339   1.910   6.975 -0.5129 -0.5048  0.4068
  175SAPI   H4R19878   1.396   1.828   7.024 -0.0332 -0.4542 -0.0607
  175SAPI   H4S19879   1.263   1.879   6.901 -2.2112 -1.4355  2.4910
  175SAPI   C2519880   1.267   1.979   7.087  0.4749  0.5011  0.3754
  175SAPI   H5R19881   1.191   2.056   7.069  0.4821  0.1125 -1.3591
  175SAPI   C2619882   1.295   1.968   7.226 -0.1335  0.2863  0.7872
  175SAPI   H6R19883   1.224   2.017   7.294  0.9112 -0.2426  2.2861
  175SAPI   C2719884   1.397   1.896   7.304 -0.0645  0.2801 -0.2378
  175SAPI   H7R19885   1.444   1.811   7.250 -0.0716  0.3197 -0.3055
  175SAPI   H7S19886   1.345   1.845   7.388 -0.2611 -0.3689 -0.7457
  175SAPI   C2819887   1.521   1.967   7.363  0.1762  0.3038  0.0977
  175SAPI   H8R19888   1.570   2.041   7.298 -0.5102  1.0144  0.3739
  175SAPI   C2919889   1.569   1.971   7.489 -0.3510 -0.0547  1.1446
  175SAPI   H9R19890   1.647   2.044   7.514  0.7345 -1.1445  1.0363
  175SAPI  C21019891   1.522   1.881   7.599  0.6581 -0.2681 -0.4272
  175SAPI  H10R19892   1.556   1.778   7.573 -0.1719 -0.4361 -0.8617
  175SAPI  H10S19893   1.411   1.870   7.597  0.5397  0.9976 -1.0181
  175SAPI  C21119894   1.565   1.922   7.741  0.0716  0.9773  0.1637
  175SAPI  H11R19895   1.552   2.028   7.769  0.4136  0.8812  0.6919
  175SAPI  C21219896   1.608   1.828   7.828 -0.4571 -0.5363  0.2415
  175SAPI  H12R19897   1.617   1.847   7.936 -1.8310  0.1426  0.2447
  175SAPI  C21319898   1.616   1.684   7.803  0.5048  1.1055  0.7817
  175SAPI  H13R19899   1.680   1.654   7.717 -0.5178  1.7182 -0.2141
  175SAPI  H13S19900   1.517   1.643   7.773  1.9521 -2.7632  1.0663
  175SAPI  C21419901   1.660   1.595   7.925 -0.2811 -0.1422  0.0630
  175SAPI  H14R19902   1.741   1.525   7.900 -2.3710 -2.8073  0.5443
  175SAPI  C21519903   1.617   1.596   8.055  0.1354 -0.5005 -0.1942
  175SAPI  H15R19904   1.673   1.540   8.131  0.7979  1.6098  0.9241
  175SAPI  C21619905   1.509   1.694   8.109  0.3994 -0.5750  0.5772
  175SAPI  H16R19906   1.454   1.630   8.182  0.7184 -0.7996  0.6223
  175SAPI  H16S19907   1.441   1.732   8.029 -0.5982 -0.8215  1.2975
  175SAPI  C21719908   1.528   1.819   8.198  0.2433  0.3366 -0.4371
  175SAPI  H17R19909   1.581   1.892   8.132  0.3980  1.9631  1.4429
  175SAPI  H17S19910   1.601   1.800   8.280 -1.0773 -3.1299  0.0030
  175SAPI  C21819911   1.401   1.888   8.265  0.2807  0.4892 -0.1216
  175SAPI  H18R19912   1.384   1.846   8.366  1.8257 -1.0207 -0.4704
  175SAPI  H18S19913   1.318   1.893   8.191 -0.8700  0.0149  1.1167
  175SAPI  C21919914   1.429   2.031   8.285 -0.4418  0.3689  0.3372
  175SAPI  H19R19915   1.497   2.068   8.205 -0.5863 -2.1273 -0.9537
  175SAPI  H19S19916   1.491   2.042   8.377 -1.2763 -2.5848  1.3219
  175SAPI  C22019917   1.305   2.123   8.290 -1.0334  0.1748 -0.4740
  175SAPI  H20R19918   1.225   2.068   8.343  0.9012 -1.3740  0.8909
  175SAPI  H20S19919   1.269   2.149   8.187 -0.4679 -2.0291 -1.2519
  175SAPI  H20T19920   1.336   2.213   8.347 -0.3789 -0.2206 -0.2124
  175SAPI   C3319921   1.971   2.230   7.049  0.0254 -0.3051 -0.1844
  175SAPI   H3X19922   2.031   2.316   7.013 -3.4093  1.4230 -2.0302
  175SAPI   H3Y19923   2.045   2.150   7.071 -1.3602 -1.3951  0.5997
  175SAPI   C3419924   1.900   2.259   7.181 -0.0763  0.2946  0.0513
  175SAPI   H4X19925   1.836   2.172   7.207  2.3201 -1.4269  0.3703
  175SAPI   H4Y19926   1.835   2.349   7.177  1.7429  1.6837  1.1027
  175SAPI   C3519927   2.005   2.269   7.294  0.2660 -0.3603  0.1574
  175SAPI   H5X19928   2.078   2.352   7.286  0.9361 -0.8992  0.6635
  175SAPI   H5Y19929   2.071   2.180   7.295  2.3286  1.1320 -0.9878
  175SAPI   C3619930   1.938   2.288   7.433 -0.0429 -0.2298  0.1023
  175SAPI   H6X19931   1.865   2.205   7.445  1.0353 -0.9646  1.7730
  175SAPI   H6Y19932   1.896   2.390   7.430 -0.3909 -0.3714  0.2167
  175SAPI   C3719933   2.041   2.262   7.548 -0.1717 -0.8020 -0.1784
  175SAPI   H7X19934   2.122   2.332   7.519 -0.6964 -0.6676 -1.3674
  175SAPI   H7Y19935   2.090   2.163   7.543 -1.4675 -1.3748 -2.0179
  175SAPI   C3819936   1.989   2.297   7.684 -0.3005 -0.3994 -0.6170
  175SAPI   H8X19937   1.916   2.222   7.722 -0.4738  1.0953  2.1311
  175SAPI   H8Y19938   1.939   2.396   7.689 -1.3994 -0.9396 -0.8152
  175SAPI   C3919939   2.100   2.294   7.797  0.3300  0.3511  0.1109
  175SAPI   H9X19940   2.180   2.363   7.764 -0.2128  0.3809 -1.1826
  175SAPI   H9Y19941   2.143   2.192   7.806  0.5498  0.3083 -1.3661
  175SAPI  C31019942   2.044   2.332   7.935 -0.2380  0.2760 -0.3783
  175SAPI  H10X19943   1.954   2.268   7.951  1.8368 -2.3487  1.1252
  175SAPI  H10Y19944   2.003   2.435   7.937 -0.5998  0.1122  3.3163
  175SAPI  C31119945   2.134   2.308   8.060 -0.7535 -0.9069 -1.1092
  175SAPI  H11X19946   2.206   2.392   8.052 -0.7514 -0.5440  1.9847
  175SAPI  H11Y19947   2.173   2.204   8.057 -1.4074 -1.3274  2.3208
  175SAPI  C31219948   2.045   2.320   8.190  0.4697  0.3140 -0.0014
  175SAPI  H12X19949   1.952   2.261   8.177  0.2245  0.4046  1.3303
  175SAPI  H12Y19950   2.015   2.426   8.204  1.9175  0.6157  0.8940
  175SAPI  C31319951   2.118   2.259   8.314  0.5958 -0.6722  0.1105
  175SAPI  H13X19952   2.206   2.315   8.352 -0.9886  1.7053  0.3895
  175SAPI  H13Y19953   2.159   2.158   8.290 -1.1661 -1.6921  1.3016
  175SAPI  C31419954   2.020   2.242   8.434  0.6133  0.1457 -0.0283
  175SAPI  H14X19955   1.971   2.341   8.450 -0.1836 -0.3193  0.4591
  175SAPI  H14Y19956   2.073   2.220   8.529  1.0403  0.0468 -0.2918
  175SAPI  C31519957   1.924   2.124   8.416  0.3988  0.8061  0.7400
  175SAPI  H15X19958   1.991   2.035   8.415 -0.6174  0.0176 -1.5563
  175SAPI  H15Y19959   1.860   2.125   8.324  0.1477  1.6772  0.9223
  175SAPI  C31619960   1.833   2.101   8.541  0.5428  0.1190 -0.2811
  175SAPI  H16X19961   1.893   2.084   8.633 -0.2903  1.1348  0.4703
  175SAPI  H16Y19962   1.776   2.008   8.521 -0.3895  0.7679 -0.6451
  175SAPI  C31719963   1.734   2.206   8.566  0.8067 -0.5076 -0.4259
  175SAPI  H17X19964   1.666   2.207   8.478 -0.5557 -1.0346  0.6089
  175SAPI  H17Y19965   1.794   2.299   8.577  1.2676 -0.7941 -0.5450
  175SAPI  C31819966   1.643   2.182   8.690  0.4783 -0.0694 -0.4185
  175SAPI  H18X19967   1.576   2.095   8.676  1.1146 -0.3479 -1.8576
  175SAPI  H18Y19968   1.584   2.275   8.707 -0.6707 -0.5413 -1.7434
  175SAPI  H18Z19969   1.708   2.164   8.778  0.0259 -0.1056 -0.0930
  176SAPI   C1219970   1.301   0.725   6.204  0.8026  0.0596 -0.3975
  176SAPI    H219971   1.224   0.773   6.269  1.2928 -3.7604  3.2407
  176SAPI    O219972   1.230   0.643   6.109 -0.0348  0.2014  0.3177
  176SAPI   HO219973   1.135   0.659   6.106  0.0012  0.0667 -2.2903
  176SAPI   C1319974   1.383   0.834   6.145  0.5877 -0.5466  0.2967
  176SAPI    H319975   1.430   0.891   6.228 -1.2103  1.1669  0.1864
  176SAPI    O319976   1.293   0.924   6.081 -0.6963  0.3061 -0.2433
  176SAPI   HO319977   1.277   0.878   5.998 -0.2057 -0.4589  0.0734
  176SAPI   C1419978   1.497   0.781   6.055  0.5408 -0.5193 -0.7718
  176SAPI    H419979   1.452   0.723   5.972  0.3655 -2.3072  0.5612
  176SAPI    O419980   1.567   0.889   5.983  0.5084 -0.5489  0.6937
  176SAPI   HO419981   1.572   0.967   6.038 -0.8682  1.0194 -1.3384
  176SAPI   C1519982   1.588   0.697   6.138 -0.6714  0.6441  0.1576
  176SAPI    H519983   1.633   0.757   6.220 -1.8206 -0.4573  1.6176
  176SAPI    O519984   1.696   0.656   6.058 -1.0308  0.2824  0.3790
  176SAPI   HO519985   1.754   0.732   6.043 -0.3508 -0.1062  0.9813
  176SAPI   C1619986   1.513   0.584   6.207  0.2712 -0.2447  0.0486
  176SAPI    H619987   1.484   0.527   6.117 -1.9412 -0.9527  1.1593
  176SAPI    O619988   1.603   0.499   6.279  0.7647  0.3594  0.0512
  176SAPI   HO619989   1.609   0.417   6.229  2.2550  0.8920 -0.6458
  176SAPI   C1119990   1.400   0.649   6.290  0.9607  1.1794  0.0604
  176SAPI    H119991   1.450   0.712   6.366 -0.7919  0.3655  1.9444
  176SAPI     P19992   1.285   0.570   6.515  0.0020  0.7482 -0.3802
  176SAPI   O1319993   1.378   0.666   6.578 -0.2514  0.2055 -0.0762
  176SAPI   O1419994   1.264   0.434   6.571 -0.0435 -0.6098 -0.7612
  176SAPI   O1219995   1.329   0.542   6.362  0.0847 -0.1243 -0.0663
  176SAPI   O1119996   1.137   0.626   6.489 -0.0245 -0.3893 -0.0652
  176SAPI    C119997   1.048   0.593   6.603 -0.2244 -0.5363  0.4293
  176SAPI    HA19998   0.944   0.623   6.578  0.5271  1.4690 -0.4002
  176SAPI    HB19999   1.040   0.483   6.618 -1.1532 -0.2552  2.0322
  176SAPI    C220000   1.077   0.667   6.740  0.0414 -0.1920  0.1744
  176SAPI    HS20001   1.174   0.628   6.777 -0.2525 -0.1638  0.9867
  176SAPI   O2120002   0.966   0.635   6.821  1.3124  0.1912 -0.1235
  176SAPI   C2120003   0.995   0.577   6.935  0.3110 -0.7303  0.0162
  176SAPI   O2220004   1.105   0.584   6.992  0.0944 -0.1165  0.2565
  176SAPI   C2220005   0.876   0.497   6.986 -0.2023 -0.4012  0.3656
  176SAPI   H2R20006   0.795   0.572   6.988 -0.6418 -0.6816 -3.1685
  176SAPI   H2S20007   0.833   0.432   6.907  1.1824 -0.5186 -0.3045
  176SAPI    C320008   1.087   0.820   6.730  0.1168  0.0922 -0.6477
  176SAPI    HX20009   0.998   0.861   6.679 -0.5979 -1.2291 -0.4909
  176SAPI    HY20010   1.173   0.832   6.661  1.0246  0.5800  0.5434
  176SAPI   O3120011   1.104   0.882   6.859  0.3163 -0.0485 -0.4213
  176SAPI   C3120012   1.221   0.926   6.896  0.0292 -0.3979  0.0868
  176SAPI   O3220013   1.326   0.899   6.834 -0.0751  0.4704 -0.6862
  176SAPI   C3220014   1.211   1.044   6.996 -0.5872  0.1595  0.3494
  176SAPI   H2X20015   1.140   1.011   7.074 -1.4571  1.5080  0.1459
  176SAPI   H2Y20016   1.168   1.116   6.922 -0.0598 -0.1792 -0.2940
  176SAPI   C2320017   0.898   0.428   7.129  0.1422  0.4833 -0.1112
  176SAPI   H3R20018   0.915   0.509   7.203 -0.1044 -2.0521  2.7992
  176SAPI   H3S20019   0.990   0.365   7.123  0.9792  1.5913  0.8867
  176SAPI   C2420020   0.770   0.352   7.184  0.1735  0.4416  0.1371
  176SAPI   H4R20021   0.795   0.315   7.286 -0.9073 -0.1047  0.2089
  176SAPI   H4S20022   0.746   0.259   7.128  0.2794  0.0488  0.7417
  176SAPI   C2520023   0.652   0.446   7.183 -0.4767  0.7356 -0.1484
  176SAPI   H5R20024   0.637   0.506   7.091 -1.8028 -1.8397 -1.6572
  176SAPI   C2620025   0.562   0.454   7.283  0.6102 -0.1961  0.5680
  176SAPI   H6R20026   0.497   0.543   7.275  1.9015  0.7533  0.5652
  176SAPI   C2720027   0.566   0.374   7.408 -0.1528 -0.2879  0.4403
  176SAPI   H7R20028   0.644   0.427   7.468 -0.7788  1.6288 -0.4239
  176SAPI   H7S20029   0.605   0.272   7.383 -0.3170 -0.0604 -0.7598
  176SAPI   C2820030   0.432   0.370   7.491  0.2395  0.1603  0.5503
  176SAPI   H8R20031   0.346   0.388   7.425  0.7147 -0.6210 -0.3021
  176SAPI   C2920032   0.421   0.354   7.622  0.7162  0.2871 -0.3717
  176SAPI   H9R20033   0.330   0.386   7.673  0.6951 -0.5525  0.1299
  176SAPI  C21020034   0.532   0.328   7.721  0.3648 -0.9662  0.3292
  176SAPI  H10R20035   0.542   0.429   7.768  0.0614  0.2650 -2.1819
  176SAPI  H10S20036   0.633   0.329   7.675  0.9638 -3.1277  1.5617
  176SAPI  C21120037   0.505   0.227   7.828  0.2012 -0.0329 -0.6305
  176SAPI  H11R20038   0.409   0.176   7.811 -0.6994  1.4499 -0.2049
  176SAPI  C21220039   0.586   0.173   7.921 -0.1504 -0.2305  0.0640
  176SAPI  H12R20040   0.551   0.106   8.001  3.3137 -1.3698  0.6744
  176SAPI  C21320041   0.731   0.206   7.930 -0.4840  0.4360  0.2826
  176SAPI  H13R20042   0.746   0.253   8.030 -0.7452 -0.0359  0.5449
  176SAPI  H13S20043   0.751   0.281   7.850  0.4793 -0.4145 -0.2801
  176SAPI  C21420044   0.829   0.091   7.912  0.2403 -0.6295 -0.5550
  176SAPI  H14R20045   0.792  -0.008   7.945  0.8209 -0.4224  0.7354
  176SAPI  C21520046   0.953   0.095   7.861  0.3999  0.0651  0.1423
  176SAPI  H15R20047   1.016   0.006   7.846 -1.5667 -1.5200  0.9577
  176SAPI  C21620048   1.027   0.222   7.812  0.3696  0.1439  0.3495
  176SAPI  H16R20049   1.138   0.218   7.811  0.4626  1.0595  3.2907
  176SAPI  H16S20050   1.000   0.308   7.877  0.1317 -0.3347  0.8825
  176SAPI  C21720051   0.993   0.270   7.671  0.0602  0.4092  0.7674
  176SAPI  H17R20052   0.894   0.317   7.688 -1.0593 -1.7668  0.4334
  176SAPI  H17S20053   0.982   0.174   7.615  2.4495  1.3233 -1.3767
  176SAPI  C21820054   1.079   0.374   7.616  0.0381  0.3314  0.2943
  176SAPI  H18R20055   1.181   0.331   7.624 -0.6386 -0.9487  2.4193
  176SAPI  H18S20056   1.069   0.476   7.660 -2.3287 -0.5949  1.9963
  176SAPI  C21920057   1.046   0.398   7.463  0.1446 -0.2338 -0.1934
  176SAPI  H19R20058   0.938   0.417   7.445  0.5212  3.0032  0.5247
  176SAPI  H19S20059   1.075   0.308   7.405 -0.1344 -0.0699 -0.5831
  176SAPI  C22020060   1.127   0.517   7.413  0.5413 -0.4784 -0.0415
  176SAPI  H20R20061   1.117   0.530   7.303  2.4681  0.7958 -0.0816
  176SAPI  H20S20062   1.236   0.496   7.427  1.2469  2.3150 -0.9537
  176SAPI  H20T20063   1.104   0.610   7.468 -0.0016 -0.2006 -0.7315
  176SAPI   C3320064   1.350   1.082   7.037 -0.1785  0.2429  0.4949
  176SAPI   H3X20065   1.362   1.191   7.058  0.5530  0.0059  1.3364
  176SAPI   H3Y20066   1.426   1.063   6.958 -2.3509  0.1231 -1.6030
  176SAPI   C3420067   1.399   1.012   7.168  0.0147 -0.1289  0.9861
  176SAPI   H4X20068   1.314   0.997   7.238 -0.8756  0.4049  0.0384
  176SAPI   H4Y20069   1.470   1.081   7.217  0.7758 -1.2123  1.4018
  176SAPI   C3520070   1.443   0.866   7.146  0.0826  0.4814 -0.0523
  176SAPI   H5X20071   1.524   0.873   7.069  0.5429 -0.1832  0.3719
  176SAPI   H5Y20072   1.363   0.807   7.098  2.6544 -0.0741 -3.9417
  176SAPI   C3620073   1.509   0.804   7.268 -0.3704  0.1802 -1.0766
  176SAPI   H6X20074   1.594   0.868   7.300 -0.9854 -0.0616  1.1013
  176SAPI   H6Y20075   1.556   0.704   7.251  2.3003  1.4577 -1.4716
  176SAPI   C3720076   1.410   0.778   7.384 -0.5298  0.5270 -0.2619
  176SAPI   H7X20077   1.313   0.735   7.352 -0.4476 -0.9462  1.3829
  176SAPI   H7Y20078   1.382   0.880   7.416  0.1269  0.6393 -0.0317
  176SAPI   C3820079   1.466   0.703   7.501 -0.1007 -0.2387 -0.6823
  176SAPI   H8X20080   1.566   0.737   7.537 -1.0871 -0.0497  1.9713
  176SAPI   H8Y20081   1.485   0.595   7.483  1.6927 -0.1800  0.6835
  176SAPI   C3920082   1.367   0.708   7.621 -0.6420  0.1923  0.6026
  176SAPI   H9X20083   1.259   0.696   7.598 -1.1321  1.8458  1.9491
  176SAPI   H9Y20084   1.372   0.801   7.681  1.1932 -0.5661  1.6859
  176SAPI  C31020085   1.399   0.584   7.710 -0.1822  0.1717 -0.5852
  176SAPI  H10X20086   1.508   0.592   7.725 -0.2422 -1.3094  0.8210
  176SAPI  H10Y20087   1.363   0.489   7.664 -1.1730 -0.3949  1.2700
  176SAPI  C31120088   1.339   0.582   7.859  0.2107 -0.3320  0.0163
  176SAPI  H11X20089   1.233   0.615   7.849 -0.5662 -2.7334 -0.0177
  176SAPI  H11Y20090   1.396   0.665   7.907  1.3432 -0.9224 -0.2949
  176SAPI  C31220091   1.353   0.454   7.929  0.3426  0.5452 -0.1977
  176SAPI  H12X20092   1.458   0.428   7.955 -0.0671  0.2470  1.2345
  176SAPI  H12Y20093   1.307   0.372   7.871 -1.9245  0.9190  1.0059
  176SAPI  C31320094   1.268   0.443   8.059 -0.0630 -0.3657 -0.2798
  176SAPI  H13X20095   1.163   0.422   8.029 -0.7871 -0.5029  2.2403
  176SAPI  H13Y20096   1.281   0.539   8.114  0.6540 -1.2412  1.0788
  176SAPI  C31420097   1.314   0.335   8.148  0.4019  0.4078 -0.4738
  176SAPI  H14X20098   1.425   0.329   8.141  0.5058 -0.1334  1.3947
  176SAPI  H14Y20099   1.278   0.242   8.098 -0.8952 -0.0607  1.2784
  176SAPI  C31520100   1.267   0.336   8.298  0.3919 -0.2110 -0.3958
  176SAPI  H15X20101   1.305   0.422   8.356 -1.9474 -0.1634  1.1101
  176SAPI  H15Y20102   1.320   0.252   8.349  0.8956 -0.1262 -0.7765
  176SAPI  C31620103   1.114   0.329   8.310  0.2213  0.0789 -0.5407
  176SAPI  H16X20104   1.058   0.416   8.270 -0.2595 -0.4343 -0.9867
  176SAPI  H16Y20105   1.092   0.316   8.418 -3.5655  0.7137 -1.1954
  176SAPI  C31720106   1.053   0.202   8.250 -0.5154  0.5016  0.7780
  176SAPI  H17X20107   1.097   0.113   8.299 -0.4551  1.6866  2.8979
  176SAPI  H17Y20108   1.071   0.212   8.140  0.8043 -0.9736  0.8536
  176SAPI  C31820109   0.907   0.190   8.278 -0.1774 -0.4241 -0.6543
  176SAPI  H18X20110   0.887   0.206   8.386  0.3037 -2.2486 -0.2764
  176SAPI  H18Y20111   0.861   0.091   8.258 -1.7744  0.3181 -0.7207
  176SAPI  H18Z20112   0.856   0.272   8.223  1.8064 -0.5034 -2.6776
  177SLPC     N20113   0.504   4.161  11.221 -0.6386 -0.4653 -0.1140
  177SLPC   C1320114   0.518   4.308  11.218  0.3869  0.0367  0.2734
  177SLPC  H13A20115   0.437   4.359  11.170  0.9752 -0.6184 -1.4514
  177SLPC  H13B20116   0.538   4.336  11.321  0.0075 -1.1996  0.6926
  177SLPC  H13C20117   0.607   4.333  11.161 -0.4704 -0.6537 -1.3932
  177SLPC   C1420118   0.464   4.110  11.079  0.1069 -0.2542 -0.5207
  177SLPC  H14A20119   0.439   4.005  11.082 -1.5344  0.1468  1.3198
  177SLPC  H14B20120   0.376   4.167  11.054  0.4935  1.7807  2.4638
  177SLPC  H14C20121   0.552   4.131  11.020  0.4747  0.8507  0.3895
  177SLPC   C1520122   0.398   4.134  11.316  0.0176 -0.5823  0.0224
  177SLPC  H15A20123   0.425   4.149  11.420 -0.7387  0.0521  0.1317
  177SLPC  H15B20124   0.310   4.195  11.306  0.6633  0.4900  0.6836
  177SLPC  H15C20125   0.366   4.031  11.311  0.0712 -0.8787  4.2263
  177SLPC   C1220126   0.628   4.090  11.276 -0.3895  0.1835 -0.6286
  177SLPC  H12A20127   0.615   3.989  11.241 -2.0214  1.0805 -2.7149
  177SLPC  H12B20128   0.624   4.090  11.384  0.3041 -1.5140 -0.5924
  177SLPC   C1120129   0.762   4.142  11.226  0.6142 -0.0209  0.2866
  177SLPC  H11A20130   0.845   4.109  11.292  0.6087 -0.4655  0.0763
  177SLPC  H11B20131   0.766   4.253  11.220 -0.1935  0.0295  0.6258
  177SLPC     P20132   0.821   3.951  11.063 -0.0941  0.0380  0.2459
  177SLPC   O1320133   0.959   3.940  11.118  0.1935 -0.1258 -0.3539
  177SLPC   O1420134   0.720   3.853  11.097  0.8675  0.0745  0.1977
  177SLPC   O1220135   0.772   4.103  11.091 -0.2533  0.6293  0.4155
  177SLPC   O1120136   0.829   3.944  10.904  0.1202 -0.3167 -0.3593
  177SLPC    C120137   0.727   4.004  10.825 -0.1126 -0.1890  0.0791
  177SLPC    HA20138   0.631   3.952  10.844  0.4377 -0.5451  1.9939
  177SLPC    HB20139   0.706   4.109  10.855  0.6684 -0.5168  1.8444
  177SLPC    C220140   0.767   4.012  10.677 -0.2026 -0.0833 -0.1228
  177SLPC    HS20141   0.850   3.941  10.657  1.1668  1.9504 -1.7068
  177SLPC   O2120142   0.819   4.140  10.643 -0.3628 -0.4124  0.2059
  177SLPC   C2120143   0.941   4.180  10.692  0.3989  0.5593 -0.1044
  177SLPC   O2220144   1.015   4.100  10.753 -0.3098 -0.5011 -0.0145
  177SLPC   C2220145   0.962   4.325  10.673  1.1227 -0.2645  0.3617
  177SLPC   H2R20146   0.867   4.377  10.647  1.3307  0.1259  0.3768
  177SLPC   H2S20147   0.988   4.355  10.776  1.7551 -3.4045  1.1631
  177SLPC    C320148   0.657   3.976  10.584  0.8562  0.0682 -0.2232
  177SLPC    HX20149   0.569   4.024  10.631  0.9782 -1.5170  1.6579
  177SLPC    HY20150   0.648   3.866  10.585  0.9362  0.0612 -0.2299
  177SLPC   O3120151   0.674   4.010  10.445 -0.1826 -0.0732  0.0472
  177SLPC   C3120152   0.558   4.048  10.384 -0.4953 -0.6411  0.4223
  177SLPC   O3220153   0.452   4.077  10.435  0.1288 -0.9080  0.0059
  177SLPC   C3220154   0.591   4.063  10.234 -0.1400  0.2827  0.2427
  177SLPC   H2X20155   0.621   3.960  10.205 -2.5747  0.0393 -1.6657
  177SLPC   H2Y20156   0.680   4.128  10.227 -0.6041  1.0678  1.4898
  177SLPC   C2320157   1.074   4.359  10.575  0.5188 -1.1545  0.3566
  177SLPC   H3R20158   1.160   4.289  10.585 -1.8676 -4.4125 -0.8979
  177SLPC   H3S20159   1.105   4.463  10.599 -0.6762 -0.4901 -0.9518
  177SLPC   C2420160   1.034   4.358  10.431  0.5025  0.4100 -0.1224
  177SLPC   H4R20161   0.946   4.423  10.414 -0.6452 -1.1800 -0.2825
  177SLPC   H4S20162   0.998   4.253  10.428 -2.1711  1.2650  1.1698
  177SLPC   C2520163   1.143   4.402  10.327  0.5993 -0.0476  0.0272
  177SLPC   H5R20164   1.195   4.309  10.295 -2.5750 -2.0018  0.4043
  177SLPC   H5S20165   1.221   4.464  10.377  0.7490 -1.4227  1.5718
  177SLPC   C2620166   1.073   4.484  10.213  0.0434 -0.3045  0.0063
  177SLPC   H6R20167   1.037   4.577  10.263 -3.0438 -2.3739  1.7716
  177SLPC   H6S20168   0.988   4.421  10.178  0.1353 -0.1486 -0.5060
  177SLPC   C2720169   1.170   4.520  10.097  0.9403  1.0956 -0.5061
  177SLPC   H7R20170   1.230   4.431  10.066 -1.1097 -1.0210  1.3788
  177SLPC   H7S20171   1.241   4.596  10.136  0.1411  1.0475  1.0770
  177SLPC   C2820172   1.106   4.578   9.971  0.1779 -0.1753  0.2538
  177SLPC   H8R20173   1.022   4.514   9.936 -0.7796  1.0241  0.3229
  177SLPC   H8S20174   1.181   4.573   9.889  1.0868 -0.6013  1.1102
  177SLPC   C2920175   1.033   4.713   9.997  0.4140  0.1834 -0.8428
  177SLPC   H9R20176   0.972   4.700  10.088  1.6988 -2.9745 -0.3485
  177SLPC  C21020177   1.024   4.818   9.916 -0.3593  0.6569 -0.1018
  177SLPC  H10R20178   0.976   4.913   9.943 -0.5199  0.5803 -0.1175
  177SLPC  C21120179   1.086   4.816   9.774  0.5808 -0.6057  0.7122
  177SLPC  H11R20180   1.157   4.900   9.756 -0.4994  0.0562 -0.5200
  177SLPC  H11S20181   1.144   4.724   9.751  1.1682 -0.2446  0.7234
  177SLPC  C21220182   0.986   4.835   9.665 -0.2540 -0.2023  0.2280
  177SLPC  H12R20183   0.905   4.902   9.696  1.4340  2.2060 -0.4654
  177SLPC  C21320184   0.978   4.771   9.549  0.8818  0.1555  0.1328
  177SLPC  H13R20185   0.883   4.786   9.494  0.4224  0.0165  0.8887
  177SLPC  C21420186   1.083   4.670   9.495 -0.1027 -0.1566 -0.2298
  177SLPC  H14R20187   1.054   4.564   9.513 -0.1537 -0.1254 -0.1304
  177SLPC  H14S20188   1.179   4.678   9.550  0.5505  1.0455 -1.5298
  177SLPC  C21520189   1.117   4.672   9.344 -0.2380  0.4285 -0.0280
  177SLPC  H15R20190   1.183   4.585   9.327  0.6188  1.5255 -2.5132
  177SLPC  H15S20191   1.162   4.769   9.312 -1.8784  1.5171  0.8682
  177SLPC  C21620192   0.987   4.664   9.264  0.4510  0.2918 -0.7147
  177SLPC  H16R20193   0.925   4.755   9.276  0.2788  0.2854 -1.4990
  177SLPC  H16S20194   0.934   4.567   9.276 -1.3812  1.2557 -0.9506
  177SLPC  C21720195   1.016   4.664   9.114 -0.4757  0.1972 -0.1356
  177SLPC  H17R20196   1.047   4.565   9.076  0.6213  0.1632  0.8357
  177SLPC  H17S20197   1.087   4.744   9.085 -0.2991  0.5734  1.2788
  177SLPC  C21820198   0.885   4.707   9.032  0.8932  0.5531 -0.4837
  177SLPC  H18R20199   0.863   4.816   9.032  0.6845  0.5111 -0.0176
  177SLPC  H18S20200   0.800   4.654   9.080  3.3458 -3.3813 -0.1937
  177SLPC  H18T20201   0.909   4.678   8.927  0.4631  0.2651 -0.5032
  177SLPC   C3320202   0.479   4.117  10.147 -0.7719  0.2448  0.0327
  177SLPC   H3X20203   0.451   4.216  10.190 -1.6048 -0.5585  1.3745
  177SLPC   H3Y20204   0.398   4.042  10.148 -0.2513 -0.3054  1.5430
  177SLPC   C3420205   0.517   4.146  10.005 -0.7483 -0.1407 -0.1046
  177SLPC   H4X20206   0.566   4.245  10.007 -0.4445 -0.2103 -2.4666
  177SLPC   H4Y20207   0.422   4.157   9.947 -0.8717 -2.0359 -0.2977
  177SLPC   C3520208   0.602   4.047   9.925  0.5288 -0.2287  1.0547
  177SLPC   H5X20209   0.557   3.949   9.952  2.4732 -0.8960  2.0010
  177SLPC   H5Y20210   0.706   4.034   9.962  1.0163 -0.1405 -0.2785
  177SLPC   C3620211   0.589   4.069   9.771  0.2927  0.9076  0.3180
  177SLPC   H6X20212   0.613   4.173   9.739  0.7376  0.4035 -1.0557
  177SLPC   H6Y20213   0.484   4.058   9.736  0.5578  0.8630 -0.4743
  177SLPC   C3720214   0.674   3.985   9.670  0.0009  0.4435 -0.9350
  177SLPC   H7X20215   0.629   3.884   9.668 -0.4617  0.6641 -1.8797
  177SLPC   H7Y20216   0.783   3.987   9.688 -0.0271 -0.2231 -0.7087
  177SLPC   C3820217   0.654   4.040   9.530  0.2183  0.2346  0.0410
  177SLPC   H8X20218   0.723   4.126   9.528 -0.1498  0.5692  1.2150
  177SLPC   H8Y20219   0.552   4.084   9.522  0.4414  1.2227  2.1975
  177SLPC   C3920220   0.660   3.927   9.425 -0.0911 -0.2965 -1.0914
  177SLPC   H9X20221   0.569   3.862   9.425  0.2111 -0.7653  1.4464
  177SLPC   H9Y20222   0.748   3.863   9.449 -0.2706 -0.4109 -0.7399
  177SLPC  C31020223   0.669   3.985   9.282  0.5687 -0.7161 -0.2492
  177SLPC  H10X20224   0.611   4.080   9.285  1.2344 -0.2927 -0.7384
  177SLPC  H10Y20225   0.607   3.926   9.210 -0.2736  1.7022 -1.5575
  177SLPC  C31120226   0.808   4.018   9.219  0.5218  0.2807  0.3398
  177SLPC  H11X20227   0.849   3.915   9.215 -0.0901  0.0353  0.2954
  177SLPC  H11Y20228   0.872   4.084   9.282  0.8876 -1.0709  1.4062
  177SLPC  C31220229   0.801   4.068   9.073 -0.5162  0.8070 -0.2114
  177SLPC  H12X20230   0.718   4.014   9.023 -1.1613  1.1497  0.4612
  177SLPC  H12Y20231   0.887   4.038   9.011 -0.7661 -2.9660  1.1761
  177SLPC  C31320232   0.770   4.224   9.069 -0.7195  0.4932 -0.1582
  177SLPC  H13X20233   0.846   4.276   9.130  0.5250  0.7456 -1.8981
  177SLPC  H13Y20234   0.666   4.230   9.108 -0.8185  0.0187 -0.3404
  177SLPC  C31420235   0.780   4.276   8.928  0.6442  1.0141  0.8109
  177SLPC  H14X20236   0.730   4.375   8.933 -0.3405  0.6200 -0.9292
  177SLPC  H14Y20237   0.718   4.217   8.857  0.0838  1.5534  0.8375
  177SLPC  C31520238   0.925   4.280   8.874  0.2605 -0.2883 -0.0597
  177SLPC  H15X20239   0.971   4.186   8.838 -1.7662 -0.3534 -2.6065
  177SLPC  H15Y20240   0.993   4.313   8.956 -0.4085  1.0154 -0.0108
  177SLPC  C31620241   0.947   4.378   8.758 -0.2611 -0.1106 -0.6967
  177SLPC  H16X20242   0.879   4.466   8.766  1.6133  1.5232 -2.1595
  177SLPC  H16Y20243   0.910   4.326   8.667 -0.6583  0.8655 -1.1110
  177SLPC  C31720244   1.089   4.435   8.731 -0.5357  0.7270  0.4324
  177SLPC  H17X20245   1.093   4.503   8.643 -0.2611  1.7841  1.2450
  177SLPC  H17Y20246   1.157   4.351   8.707 -0.1233  1.3484 -0.6284
  177SLPC  C31820247   1.159   4.508   8.842 -1.2017 -0.4779  0.3052
  177SLPC  H18X20248   1.255   4.545   8.800 -1.9027  0.9247 -0.1049
  177SLPC  H18Y20249   1.190   4.446   8.928  1.8059  0.6469  0.0854
  177SLPC  H18Z20250   1.100   4.594   8.880 -0.9115 -1.1184  2.2284
  178SLPC     N20251   3.283   6.117  11.086 -0.1940 -0.1701 -0.7281
  178SLPC   C1320252   3.378   6.221  11.137 -0.2284  0.9634  0.6589
  178SLPC  H13A20253   3.332   6.318  11.154 -3.1284 -0.1766 -0.4543
  178SLPC  H13B20254   3.407   6.196  11.238  2.3577 -0.7417 -0.4425
  178SLPC  H13C20255   3.470   6.224  11.081  0.6355 -0.6124  1.9490
  178SLPC   C1420256   3.153   6.138  11.167  0.6857 -0.5267  0.0837
  178SLPC  H14A20257   3.076   6.070  11.137 -0.9104  1.6535 -0.9016
  178SLPC  H14B20258   3.161   6.131  11.275  0.1171  3.4007  0.4624
  178SLPC  H14C20259   3.123   6.236  11.132 -1.3247 -1.0430  0.3483
  178SLPC   C1520260   3.339   5.992  11.139  0.2834 -0.1694 -0.8529
  178SLPC  H15A20261   3.428   5.961  11.086  1.7448  2.3674  0.0191
  178SLPC  H15B20262   3.349   6.000  11.246 -2.5572 -2.0535 -0.3881
  178SLPC  H15C20263   3.267   5.912  11.126 -0.0203  0.2104 -1.5013
  178SLPC   C1220264   3.267   6.124  10.943  0.2729 -0.0763  0.1419
  178SLPC  H12A20265   3.361   6.150  10.895  1.0503 -3.0404 -0.0739
  178SLPC  H12B20266   3.201   6.203  10.909 -0.1984  0.0188  1.2729
  178SLPC   C1120267   3.209   6.006  10.867  0.1553 -0.5390 -0.8692
  178SLPC  H11A20268   3.286   5.926  10.858 -0.6435 -1.3417 -0.6332
  178SLPC  H11B20269   3.184   6.038  10.764  2.6592  0.5290 -1.1895
  178SLPC     P20270   2.949   6.004  10.909  0.3167 -0.7483 -0.2438
  178SLPC   O1320271   2.873   5.964  11.028  0.1117  0.1490  0.3939
  178SLPC   O1420272   2.947   6.144  10.865 -0.1471 -0.4272  0.3296
  178SLPC   O1220273   3.097   5.958  10.933  0.0613  0.5075 -0.2935
  178SLPC   O1120274   2.900   5.914  10.788 -0.0048 -0.4227  0.1455
  178SLPC    C120275   2.923   5.932  10.654 -0.1810 -0.1355 -0.0789
  178SLPC    HA20276   3.028   5.950  10.625 -0.5899  3.0040  0.2630
  178SLPC    HB20277   2.885   5.845  10.596  0.5876 -0.7153  0.2922
  178SLPC    C220278   2.837   6.054  10.605 -0.9861 -0.2471  0.1014
  178SLPC    HS20279   2.855   6.146  10.665  0.6700 -0.3430 -0.2231
  178SLPC   O2120280   2.700   6.015  10.627 -0.5749 -0.3119 -0.0726
  178SLPC   C2120281   2.612   6.112  10.640  0.6203 -0.3391  0.0513
  178SLPC   O2220282   2.639   6.228  10.677  0.3246  0.2747 -0.0673
  178SLPC   C2220283   2.468   6.064  10.615  0.5152 -0.8047 -0.8275
  178SLPC   H2R20284   2.463   6.003  10.522 -3.2831  0.2367 -1.4056
  178SLPC   H2S20285   2.435   5.995  10.695 -1.0126 -0.9223 -1.5420
  178SLPC    C320286   2.848   6.085  10.450 -0.2881  0.2986 -0.1067
  178SLPC    HX20287   2.842   5.995  10.385  0.6892  0.3605 -0.2874
  178SLPC    HY20288   2.954   6.115  10.442 -0.6729  1.8511  0.5842
  178SLPC   O3120289   2.754   6.183  10.391 -0.0489  0.0487  0.0199
  178SLPC   C3120290   2.820   6.282  10.327 -0.5463  1.0579  0.4600
  178SLPC   O3220291   2.937   6.279  10.294 -0.1682  0.0350 -0.2899
  178SLPC   C3220292   2.712   6.390  10.311  0.0619 -0.5740 -0.5570
  178SLPC   H2X20293   2.698   6.426  10.415  2.1555 -1.0301 -0.0911
  178SLPC   H2Y20294   2.620   6.343  10.269 -0.2658 -0.4160 -0.0203
  178SLPC   C2320295   2.374   6.189  10.606 -0.5147 -1.2010 -0.4918
  178SLPC   H3R20296   2.407   6.266  10.678  1.9235 -1.1353 -1.6399
  178SLPC   H3S20297   2.273   6.154  10.635 -1.2944  1.5249  0.1338
  178SLPC   C2420298   2.372   6.264  10.470  0.1583 -0.3379 -0.5667
  178SLPC   H4R20299   2.384   6.187  10.391 -1.8970 -0.7014 -0.5536
  178SLPC   H4S20300   2.467   6.321  10.478 -0.7643  1.1672  0.0185
  178SLPC   C2520301   2.263   6.377  10.460  0.1254  0.7355 -0.2355
  178SLPC   H5R20302   2.281   6.466  10.524 -0.0143  1.0370 -0.6217
  178SLPC   H5S20303   2.169   6.325  10.488 -1.9906  4.3074 -0.4330
  178SLPC   C2620304   2.241   6.437  10.318  0.3039  0.4556  0.3382
  178SLPC   H6R20305   2.344   6.450  10.280  0.1564  0.6490  0.0135
  178SLPC   H6S20306   2.196   6.538  10.330  0.7551  0.7868 -0.7215
  178SLPC   C2720307   2.168   6.348  10.215 -0.4297 -0.1132 -0.1900
  178SLPC   H7R20308   2.067   6.329  10.258 -0.0770 -0.9386  0.3040
  178SLPC   H7S20309   2.218   6.248  10.219 -1.0659 -0.5857 -3.0478
  178SLPC   C2820310   2.160   6.396  10.076  0.0286 -0.0026  0.3644
  178SLPC   H8R20311   2.149   6.507  10.075 -0.4062 -0.0424  0.6119
  178SLPC   H8S20312   2.072   6.354  10.024  0.9775  0.9882 -2.1698
  178SLPC   C2920313   2.281   6.356  10.002 -0.1058  0.5340  0.5940
  178SLPC   H9R20314   2.369   6.339  10.066  1.4707  1.7147 -1.2082
  178SLPC  C21020315   2.282   6.312   9.872 -0.4299 -0.0560 -0.8199
  178SLPC  H10R20316   2.375   6.282   9.821  0.1747  0.3042  0.0639
  178SLPC  C21120317   2.161   6.312   9.779 -0.9184  0.1949  0.7562
  178SLPC  H11R20318   2.076   6.258   9.826 -0.7390 -0.8706 -0.1378
  178SLPC  H11S20319   2.183   6.235   9.702 -0.0002  1.6396 -0.4549
  178SLPC  C21220320   2.103   6.437   9.724 -0.5576 -0.3590  0.0671
  178SLPC  H12R20321   2.077   6.507   9.804  1.3543  3.5532 -2.5892
  178SLPC  C21320322   2.078   6.476   9.600 -0.2606  0.1213  1.1639
  178SLPC  H13R20323   2.026   6.572   9.586  0.2083  0.2811  0.4834
  178SLPC  C21420324   2.111   6.411   9.473  0.8792  1.0790  0.5115
  178SLPC  H14R20325   2.022   6.363   9.425  1.9040 -0.6242  0.2857
  178SLPC  H14S20326   2.188   6.334   9.493  1.1208  1.1359 -0.1736
  178SLPC  C21520327   2.168   6.496   9.360  0.1659  0.0285  0.4328
  178SLPC  H15R20328   2.247   6.440   9.305  0.7232  0.2349  1.0238
  178SLPC  H15S20329   2.217   6.587   9.400 -0.1693  1.1679 -1.6412
  178SLPC  C21620330   2.069   6.548   9.252  0.4591 -0.2475  0.4878
  178SLPC  H16R20331   1.994   6.608   9.307  0.3721  0.1244 -0.0293
  178SLPC  H16S20332   2.016   6.473   9.189  0.1143 -0.3559  0.9091
  178SLPC  C21720333   2.141   6.632   9.147 -0.0691  1.5290 -0.0567
  178SLPC  H17R20334   2.238   6.582   9.127 -0.8106 -0.6522  1.6295
  178SLPC  H17S20335   2.162   6.733   9.187  0.7600  0.2303  2.8896
  178SLPC  C21820336   2.068   6.656   9.013 -0.0736  0.2250 -0.7773
  178SLPC  H18R20337   2.044   6.556   8.973  2.2589 -0.0723 -1.5102
  178SLPC  H18S20338   2.137   6.703   8.940  0.5203  0.1523 -0.2750
  178SLPC  H18T20339   1.977   6.717   9.033 -2.2081 -3.2042  0.4068
  178SLPC   C3320340   2.762   6.506  10.218 -0.3889  0.6472  0.0956
  178SLPC   H3X20341   2.868   6.531  10.242  0.0107  0.6362 -1.6025
  178SLPC   H3Y20342   2.698   6.596  10.226 -1.5718 -0.0011 -1.8395
  178SLPC   C3420343   2.747   6.484  10.066 -0.4488  0.3874  1.2077
  178SLPC   H4X20344   2.792   6.564  10.004 -1.5054  0.4539  0.5019
  178SLPC   H4Y20345   2.637   6.484  10.049 -0.9555 -2.2528  4.0001
  178SLPC   C3520346   2.808   6.359  10.010 -0.1131 -0.0997  0.3200
  178SLPC   H5X20347   2.771   6.265  10.055 -1.2791  0.5358  0.7203
  178SLPC   H5Y20348   2.918   6.364  10.020  0.2144  1.4891 -3.5050
  178SLPC   C3620349   2.769   6.363   9.865  0.0351 -0.8031  0.2599
  178SLPC   H6X20350   2.824   6.453   9.831 -2.1857  0.2246 -0.7342
  178SLPC   H6Y20351   2.663   6.392   9.848 -0.5008 -1.9335  1.5585
  178SLPC   C3720352   2.787   6.234   9.789 -0.5679  0.2507  0.0757
  178SLPC   H7X20353   2.727   6.148   9.826 -1.0214  1.3960  2.0391
  178SLPC   H7Y20354   2.894   6.205   9.794 -0.3147  0.9711 -0.9224
  178SLPC   C3820355   2.770   6.247   9.641  0.4266  0.2982 -0.1422
  178SLPC   H8X20356   2.813   6.162   9.584  0.9379  2.1239 -2.5738
  178SLPC   H8Y20357   2.819   6.337   9.600  1.4387  0.4179  1.3208
  178SLPC   C3920358   2.618   6.253   9.613  0.0555 -0.0679 -0.4304
  178SLPC   H9X20359   2.591   6.358   9.635 -2.0280 -0.3763 -1.4061
  178SLPC   H9Y20360   2.569   6.187   9.688  0.0457 -0.1135 -0.4763
  178SLPC  C31020361   2.574   6.232   9.466 -0.5903  0.5059 -0.2575
  178SLPC  H10X20362   2.647   6.269   9.391  0.3565 -3.9242 -1.6248
  178SLPC  H10Y20363   2.476   6.284   9.456 -0.8424  0.0204 -0.3185
  178SLPC  C31120364   2.552   6.079   9.425  0.4790 -0.1247 -0.3460
  178SLPC  H11X20365   2.475   6.033   9.490  0.6042 -1.4620 -1.1300
  178SLPC  H11Y20366   2.648   6.025   9.436  0.1502 -1.0532 -1.9237
  178SLPC  C31220367   2.528   6.057   9.271  0.3067 -0.5965 -0.1216
  178SLPC  H12X20368   2.562   5.958   9.234  0.3859 -1.4410  2.1269
  178SLPC  H12Y20369   2.582   6.139   9.218  1.5598 -1.7079 -0.5971
  178SLPC  C31320370   2.380   6.040   9.244  0.0055  0.2709 -0.1459
  178SLPC  H13X20371   2.328   6.129   9.284 -0.9892 -0.8933  1.2089
  178SLPC  H13Y20372   2.355   5.942   9.290 -0.6221  0.5678  0.1365
  178SLPC  C31420373   2.339   6.035   9.097 -0.0431 -0.9595  0.1108
  178SLPC  H14X20374   2.322   5.929   9.069  1.1398 -0.5503 -2.2591
  178SLPC  H14Y20375   2.412   6.083   9.028  0.2379 -0.5094  0.7182
  178SLPC  C31520376   2.200   6.100   9.076 -0.3462 -0.0388  0.6029
  178SLPC  H15X20377   2.143   6.069   9.167 -1.0699  0.7715  0.4326
  178SLPC  H15Y20378   2.225   6.208   9.076  1.4506 -0.4441  1.3744
  178SLPC  C31620379   2.137   6.053   8.934  0.3670  0.2763 -0.0453
  178SLPC  H16X20380   2.145   5.945   8.909 -0.2450  0.2634 -0.1948
  178SLPC  H16Y20381   2.173   6.116   8.850 -0.1347  2.9210  1.6662
  178SLPC  C31720382   1.988   6.091   8.931  0.0101  0.0010 -0.6975
  178SLPC  H17X20383   1.941   6.013   8.995 -1.2556  2.0995  0.9997
  178SLPC  H17Y20384   1.951   6.077   8.827  0.3046 -0.8823 -0.6870
  178SLPC  C31820385   1.949   6.236   8.974 -0.1428 -0.0600  0.3341
  178SLPC  H18X20386   2.005   6.278   9.060  0.9395 -1.2428  0.2358
  178SLPC  H18Y20387   1.838   6.245   8.980 -0.3816 -1.1468 -1.8640
  178SLPC  H18Z20388   1.978   6.304   8.891  1.1401  0.4367  1.1725
  179SLPC     N20389   2.844   2.993  10.777  0.4880  0.0910  0.1170
  179SLPC   C1320390   2.925   3.107  10.835 -0.2724 -0.4254  0.7239
  179SLPC  H13A20391   2.911   3.198  10.777  3.1913 -1.5995 -2.1865
  179SLPC  H13B20392   2.912   3.126  10.940  1.2060 -1.2109  1.0603
  179SLPC  H13C20393   3.027   3.077  10.815 -0.5754 -1.1312  0.2489
  179SLPC   C1420394   2.700   3.017  10.826  0.4417 -0.9649 -0.7812
  179SLPC  H14A20395   2.698   3.040  10.932 -0.5659 -1.2790 -0.7212
  179SLPC  H14B20396   2.642   3.094  10.776  0.5637 -0.5502 -0.2847
  179SLPC  H14C20397   2.639   2.930  10.805  1.4547 -1.8552 -0.0748
  179SLPC   C1520398   2.897   2.860  10.829  0.3772  0.8132  0.3460
  179SLPC  H15A20399   2.919   2.863  10.935  1.6159 -1.3731  0.1602
  179SLPC  H15B20400   2.830   2.777  10.811  1.3334  0.0037  0.4948
  179SLPC  H15C20401   2.995   2.843  10.786 -0.1226 -0.5260 -0.2916
  179SLPC   C1220402   2.835   2.996  10.627 -0.0515  0.5300  0.8194
  179SLPC  H12A20403   2.793   3.085  10.584 -0.9143 -1.3064 -2.3317
  179SLPC  H12B20404   2.777   2.910  10.596  0.1706  0.8203 -0.4136
  179SLPC   C1120405   2.968   2.986  10.548 -1.0593 -0.2473 -0.4567
  179SLPC  H11A20406   2.932   2.948  10.449 -1.6087 -1.1906  0.0994
  179SLPC  H11B20407   3.027   2.903  10.592 -0.2161  0.5422 -0.1065
  179SLPC     P20408   3.152   3.140  10.462  0.3335 -0.1527 -0.4150
  179SLPC   O1320409   3.172   3.289  10.455 -0.5134  0.5566 -0.8501
  179SLPC   O1420410   3.274   3.065  10.506  0.1694  0.3219  0.0858
  179SLPC   O1220411   3.035   3.112  10.559 -0.1009  0.7548 -0.1340
  179SLPC   O1120412   3.108   3.089  10.319  0.6106  0.1835 -0.0459
  179SLPC    C120413   3.213   3.105  10.216  0.1475 -0.1172  0.5104
  179SLPC    HA20414   3.277   3.196  10.223 -2.0936  1.4880  0.5394
  179SLPC    HB20415   3.288   3.023  10.208  0.7831  0.4800  0.2797
  179SLPC    C220416   3.137   3.119  10.083  0.0856 -0.5058 -0.5410
  179SLPC    HS20417   3.095   3.021  10.052  0.7418 -1.6118  1.9292
  179SLPC   O2120418   3.230   3.171   9.981  0.3028  0.8710 -0.0898
  179SLPC   C2120419   3.312   3.081   9.928  0.0011 -0.2982 -0.3737
  179SLPC   O2220420   3.326   2.968   9.966  0.4608  0.2917  0.1979
  179SLPC   C2220421   3.392   3.150   9.819  0.5405 -0.4194 -0.0825
  179SLPC   H2R20422   3.317   3.204   9.756 -0.1433 -0.0132  1.0621
  179SLPC   H2S20423   3.450   3.237   9.857  0.8381 -1.5350  2.0858
  179SLPC    C320424   3.025   3.222  10.097  0.0781 -0.3543 -0.8294
  179SLPC    HX20425   3.078   3.314  10.131 -1.0858 -0.0615  0.2144
  179SLPC    HY20426   2.944   3.200  10.170 -0.1093 -0.8704 -1.1899
  179SLPC   O3120427   2.966   3.245   9.963 -0.0578  0.6721  0.0982
  179SLPC   C3120428   3.011   3.350   9.896  0.3933 -0.0785  1.0481
  179SLPC   O3220429   3.092   3.433   9.935 -0.4028  0.1953  0.1866
  179SLPC   C3220430   2.952   3.373   9.759  0.0148 -0.0054  0.2860
  179SLPC   H2X20431   2.972   3.475   9.721 -1.5854  0.5180  0.8570
  179SLPC   H2Y20432   2.841   3.373   9.758 -0.0488  2.0216 -3.0920
  179SLPC   C2320433   3.485   3.059   9.754 -0.7950  0.1125 -0.1047
  179SLPC   H3R20434   3.430   2.985   9.691 -5.4241  0.5992  3.1042
  179SLPC   H3S20435   3.550   3.008   9.829 -0.2330  2.3012  0.9443
  179SLPC   C2420436   3.572   3.160   9.664 -0.6648  0.5753 -0.1718
  179SLPC   H4R20437   3.622   3.225   9.739  0.2473 -1.4323  1.0294
  179SLPC   H4S20438   3.502   3.226   9.608 -0.3867 -0.2331 -1.4862
  179SLPC   C2520439   3.675   3.102   9.566  0.6503  0.4657 -0.6437
  179SLPC   H5R20440   3.730   3.018   9.615  2.1916  2.3028  0.8638
  179SLPC   H5S20441   3.757   3.176   9.550  0.4290  1.4687  2.4165
  179SLPC   C2620442   3.622   3.036   9.439 -0.4304 -0.3053  0.0077
  179SLPC   H6R20443   3.533   3.095   9.410 -1.5747 -1.7058  0.6088
  179SLPC   H6S20444   3.583   2.934   9.458  0.2945 -0.5312  0.3202
  179SLPC   C2720445   3.727   3.041   9.332  0.5117 -0.0729  0.8768
  179SLPC   H7R20446   3.825   3.025   9.382  1.0306  1.7478  0.4849
  179SLPC   H7S20447   3.739   3.148   9.303  1.7239 -0.2114  0.8371
  179SLPC   C2820448   3.693   2.932   9.226  0.7343  0.2552 -0.1276
  179SLPC   H8R20449   3.587   2.955   9.203  0.6702  0.9638  0.8624
  179SLPC   H8S20450   3.693   2.838   9.285  0.2551  1.6150  2.0579
  179SLPC   C2920451   3.770   2.917   9.096 -0.3009  0.1304  0.0572
  179SLPC   H9R20452   3.831   3.006   9.071  0.6290 -0.5825 -0.2679
  179SLPC  C21020453   3.776   2.807   9.020  0.0145  0.3472  0.1387
  179SLPC  H10R20454   3.843   2.819   8.934  1.2393  2.5151  1.3477
  179SLPC  C21120455   3.705   2.681   9.041 -0.1077 -0.2505  0.2921
  179SLPC  H11R20456   3.678   2.658   9.146 -1.6220 -0.9813 -0.2375
  179SLPC  H11S20457   3.776   2.602   9.008 -0.5963 -0.7792  0.4850
  179SLPC  C21220458   3.583   2.679   8.947 -0.1162  0.9081 -0.0716
  179SLPC  H12R20459   3.606   2.698   8.841  1.5160  1.8368  0.4491
  179SLPC  C21320460   3.455   2.664   8.992 -0.1255  0.6988 -0.0165
  179SLPC  H13R20461   3.379   2.664   8.912  3.3110 -2.6765 -3.5446
  179SLPC  C21420462   3.402   2.655   9.134 -0.5869  0.7017 -0.6581
  179SLPC  H14R20463   3.490   2.638   9.199  0.4169  2.5106 -1.4963
  179SLPC  H14S20464   3.324   2.576   9.142 -0.3385  0.5057 -0.1913
  179SLPC  C21520465   3.333   2.778   9.189 -0.1712  0.1725  0.3379
  179SLPC  H15R20466   3.226   2.795   9.163 -0.3472  1.3952  1.8315
  179SLPC  H15S20467   3.385   2.869   9.152 -0.1489  0.2987  0.6838
  179SLPC  C21620468   3.334   2.799   9.342  1.0072  0.1211 -0.3875
  179SLPC  H16R20469   3.334   2.908   9.360 -0.6323 -0.0337  0.6962
  179SLPC  H16S20470   3.421   2.751   9.391  0.2951 -0.8291 -0.0364
  179SLPC  C21720471   3.209   2.747   9.404  0.0464 -1.4679 -0.2243
  179SLPC  H17R20472   3.213   2.637   9.397 -1.5082 -1.5903  0.4527
  179SLPC  H17S20473   3.117   2.776   9.348  0.8076  0.3228 -0.6031
  179SLPC  C21820474   3.187   2.781   9.556  0.2396  0.2483 -0.2666
  179SLPC  H18R20475   3.104   2.723   9.602  2.0357 -2.4955 -0.3345
  179SLPC  H18S20476   3.163   2.887   9.577  1.2916  0.0725  1.9929
  179SLPC  H18T20477   3.280   2.754   9.611 -0.5886  0.9603  1.5007
  179SLPC   C3320478   3.015   3.268   9.666 -0.0430 -0.0573  1.3619
  179SLPC   H3X20479   2.985   3.162   9.680  0.1557 -0.2376  0.4476
  179SLPC   H3Y20480   3.124   3.277   9.685  0.0463  2.4408 -0.1278
  179SLPC   C3420481   3.010   3.292   9.513 -0.3274 -0.1472 -0.3239
  179SLPC   H4X20482   3.042   3.394   9.482  1.0402  0.3729  2.5881
  179SLPC   H4Y20483   2.906   3.267   9.483 -0.3430 -2.3539  1.4177
  179SLPC   C3520484   3.097   3.199   9.429 -0.8178 -0.2563  0.9608
  179SLPC   H5X20485   3.061   3.099   9.459  0.0006 -0.6649  0.6034
  179SLPC   H5Y20486   3.205   3.209   9.450 -0.9011  1.4367  0.7308
  179SLPC   C3620487   3.080   3.228   9.284 -0.9464  0.4191 -0.1390
  179SLPC   H6X20488   3.116   3.324   9.243  0.0093 -0.6112 -1.7925
  179SLPC   H6Y20489   2.974   3.219   9.252 -1.1883  0.4446  0.6383
  179SLPC   C3720490   3.157   3.130   9.205 -1.0431 -0.7574  0.2466
  179SLPC   H7X20491   3.108   3.030   9.207  1.0287 -1.7920  3.4378
  179SLPC   H7Y20492   3.261   3.117   9.240 -0.8821  0.4548  0.2190
  179SLPC   C3820493   3.175   3.175   9.063  0.3428  0.0154 -0.7519
  179SLPC   H8X20494   3.219   3.277   9.069  0.0129  0.0188  2.1522
  179SLPC   H8Y20495   3.074   3.190   9.019  0.7747  0.1358 -1.7106
  179SLPC   C3920496   3.257   3.066   8.988 -0.7068 -0.3273 -0.3297
  179SLPC   H9X20497   3.229   2.965   9.024  0.6983 -0.8430 -0.6330
  179SLPC   H9Y20498   3.365   3.083   9.010 -0.6332  1.7370 -2.1236
  179SLPC  C31020499   3.227   3.069   8.832  0.4046  0.2733  0.8438
  179SLPC  H10X20500   3.119   3.059   8.810  0.6694 -2.6657  0.7962
  179SLPC  H10Y20501   3.273   2.973   8.801  1.9776  1.1809  0.3340
  179SLPC  C31120502   3.305   3.185   8.760  0.5518 -0.0540  0.5575
  179SLPC  H11X20503   3.362   3.236   8.840  0.7543 -0.5588  0.7350
  179SLPC  H11Y20504   3.236   3.251   8.703 -0.0710  1.1033  2.5798
  179SLPC  C31220505   3.395   3.122   8.658  0.3686 -0.6217 -0.2411
  179SLPC  H12X20506   3.414   3.201   8.582  0.4969 -0.7737 -0.3629
  179SLPC  H12Y20507   3.339   3.040   8.609  0.1446 -1.8967  2.0721
  179SLPC  C31320508   3.519   3.055   8.730 -0.1112 -0.2262 -0.2740
  179SLPC  H13X20509   3.486   2.959   8.775 -0.6311  1.0242  2.1288
  179SLPC  H13Y20510   3.557   3.124   8.809  0.6005  0.2680 -1.0392
  179SLPC  C31420511   3.641   3.020   8.640  0.6439  0.1655 -0.2922
  179SLPC  H14X20512   3.599   2.958   8.558 -0.6483 -0.2174  0.6378
  179SLPC  H14Y20513   3.709   2.962   8.706 -0.5526  0.8094  1.5324
  179SLPC  C31520514   3.708   3.147   8.574 -0.4884  0.8411  0.3956
  179SLPC  H15X20515   3.714   3.227   8.651 -1.2132  4.2867 -2.9922
  179SLPC  H15Y20516   3.639   3.183   8.495  0.3955 -2.0977 -1.8096
  179SLPC  C31620517   3.854   3.127   8.527  0.1185 -0.1161  0.2871
  179SLPC  H16X20518   3.859   3.042   8.456 -0.1409  0.0233  0.0991
  179SLPC  H16Y20519   3.915   3.104   8.617 -1.4306 -2.3930  0.8255
  179SLPC  C31720520   3.904   3.253   8.470 -0.3742 -0.2623 -0.0954
  179SLPC  H17X20521   3.896   3.338   8.541 -0.4546 -0.4514  0.1230
  179SLPC  H17Y20522   3.850   3.278   8.377 -0.7361  1.7139  0.6292
  179SLPC  C31820523   4.053   3.230   8.434 -0.2431  0.0583  0.0072
  179SLPC  H18X20524   4.063   3.133   8.380 -1.5161 -0.5647  0.8654
  179SLPC  H18Y20525   4.115   3.223   8.526 -3.4788 -0.7584  2.1837
  179SLPC  H18Z20526   4.078   3.320   8.375  1.4959  0.7829  1.8018
  180SLPC     N20527   5.311   0.859  10.784 -0.3862 -0.0246 -0.6387
  180SLPC   C1320528   5.324   1.006  10.771 -0.4670 -1.1275 -0.3418
  180SLPC  H13A20529   5.423   1.025  10.731 -0.4467  1.1019  0.6771
  180SLPC  H13B20530   5.263   1.052  10.695  3.5551  1.1065 -2.3986
  180SLPC  H13C20531   5.307   1.061  10.862 -2.4690  0.1900 -1.4926
  180SLPC   C1420532   5.208   0.827  10.889 -0.5904 -0.2352 -0.2262
  180SLPC  H14A20533   5.245   0.849  10.988  0.7189 -1.8889 -0.3363
  180SLPC  H14B20534   5.117   0.885  10.879 -0.8779 -0.7972 -0.9254
  180SLPC  H14C20535   5.185   0.722  10.890 -0.5496 -0.2405  0.9430
  180SLPC   C1520536   5.441   0.793  10.820  0.2407  0.6972  0.1154
  180SLPC  H15A20537   5.514   0.809  10.742 -0.1249 -0.8721 -0.5791
  180SLPC  H15B20538   5.475   0.816  10.920  1.4493  3.0055 -0.7958
  180SLPC  H15C20539   5.427   0.685  10.821  0.8959  0.6115  1.7268
  180SLPC   C1220540   5.266   0.802  10.644  0.0667 -1.0884 -0.3835
  180SLPC  H12A20541   5.300   0.866  10.563 -1.2404 -0.9360 -0.8170
  180SLPC  H12B20542   5.159   0.808  10.654 -0.0510 -1.9458 -1.0648
  180SLPC   C1120543   5.304   0.657  10.609  0.6243  0.3342 -0.0957
  180SLPC  H11A20544   5.412   0.649  10.587  0.1337  0.0146 -2.6341
  180SLPC  H11B20545   5.262   0.634  10.508 -0.2368  2.4068 -0.2372
  180SLPC     P20546   5.121   0.508  10.721 -0.0666  0.3188  0.3609
  180SLPC   O1320547   5.103   0.402  10.616  0.2132  0.2620  0.1430
  180SLPC   O1420548   5.108   0.467  10.864 -0.4234 -0.5178 -0.1671
  180SLPC   O1220549   5.264   0.557  10.700 -0.1009  0.2236 -0.2826
  180SLPC   O1120550   5.021   0.633  10.678  0.8191 -0.4943  0.6778
  180SLPC    C120551   4.905   0.609  10.597 -0.4219 -0.0903  0.0709
  180SLPC    HA20552   4.840   0.529  10.641  0.7281 -0.8259  0.4738
  180SLPC    HB20553   4.842   0.699  10.606 -0.4779 -0.4265  4.2605
  180SLPC    C220554   4.926   0.594  10.444 -0.4681  0.4994 -0.5098
  180SLPC    HS20555   4.997   0.510  10.430  0.8591  1.6978 -1.2015
  180SLPC   O2120556   4.995   0.711  10.402 -0.1489 -0.2280 -0.3360
  180SLPC   C2120557   5.079   0.696  10.302  0.3179 -0.5762 -1.0001
  180SLPC   O2220558   5.104   0.586  10.251  0.1095 -0.5206 -0.5277
  180SLPC   C2220559   5.146   0.825  10.269 -0.5710 -0.0125 -0.2120
  180SLPC   H2R20560   5.157   0.876  10.367  1.4206 -1.7219  0.4903
  180SLPC   H2S20561   5.249   0.811  10.229 -0.8756  1.0211 -1.4150
  180SLPC    C320562   4.796   0.571  10.376 -0.5384  0.2830  0.1373
  180SLPC    HX20563   4.739   0.666  10.385 -0.0499  0.7133 -1.1602
  180SLPC    HY20564   4.716   0.502  10.409 -1.2647  0.9491 -0.2195
  180SLPC   O3120565   4.818   0.548  10.235 -0.2683  0.4041 -0.0012
  180SLPC   C3120566   4.836   0.417  10.199 -0.2017 -0.5689 -0.9386
  180SLPC   O3220567   4.867   0.328  10.281 -0.1581  0.9570  0.0673
  180SLPC   C3220568   4.828   0.399  10.053  0.0399 -0.1054 -0.2739
  180SLPC   H2X20569   4.724   0.416  10.019  0.6252  1.0167 -1.5848
  180SLPC   H2Y20570   4.854   0.298  10.015 -0.0364  0.0376 -0.7204
  180SLPC   C2320571   5.057   0.902  10.170 -0.0636  0.5497 -0.8924
  180SLPC   H3R20572   5.094   1.007  10.176  1.5194 -0.1061  1.5508
  180SLPC   H3S20573   4.953   0.899  10.207  0.0637 -0.9865 -0.6087
  180SLPC   C2420574   5.075   0.847  10.027  0.1582  0.1878  0.5842
  180SLPC   H4R20575   4.978   0.869   9.977  0.4568  0.0038 -0.0821
  180SLPC   H4S20576   5.091   0.737  10.028  0.7707  0.2648 -0.3782
  180SLPC   C2520577   5.191   0.915   9.949  0.3715  0.0186  0.0207
  180SLPC   H5R20578   5.285   0.899  10.007  1.3112 -0.6456 -1.6548
  180SLPC   H5S20579   5.181   1.025   9.959 -0.6569 -0.0820  0.0737
  180SLPC   C2620580   5.193   0.872   9.804 -0.0434 -0.1402  0.6566
  180SLPC   H6R20581   5.097   0.904   9.757  0.1330 -0.3188  0.1803
  180SLPC   H6S20582   5.201   0.762   9.795  2.5253  0.0675  0.1392
  180SLPC   C2720583   5.306   0.930   9.726  0.4090 -0.4947  0.3251
  180SLPC   H7R20584   5.398   0.888   9.772 -0.9301 -3.3400  0.5259
  180SLPC   H7S20585   5.312   1.036   9.761  1.0383 -0.5680  0.4512
  180SLPC   C2820586   5.306   0.920   9.573  0.3905  0.3442  0.4041
  180SLPC   H8R20587   5.393   0.974   9.529  0.4747 -1.4041 -1.6972
  180SLPC   H8S20588   5.209   0.957   9.534  0.1484 -0.5736  0.1167
  180SLPC   C2920589   5.316   0.772   9.530  0.6683  0.2771  0.3897
  180SLPC   H9R20590   5.320   0.704   9.616  0.5690  0.7171  0.7430
  180SLPC  C21020591   5.338   0.737   9.399  0.1720  0.1987 -0.6569
  180SLPC  H10R20592   5.350   0.631   9.375 -1.2087 -0.7852  2.6548
  180SLPC  C21120593   5.345   0.824   9.279  0.1962 -0.5055  0.3716
  180SLPC  H11R20594   5.427   0.791   9.212 -0.0862 -0.6394  0.0924
  180SLPC  H11S20595   5.363   0.933   9.297 -0.2754 -0.5325  1.0176
  180SLPC  C21220596   5.210   0.816   9.209 -0.3251  0.1566 -0.2644
  180SLPC  H12R20597   5.133   0.851   9.278  1.0955  1.2197  0.8293
  180SLPC  C21320598   5.182   0.768   9.088 -0.1192 -0.1857 -0.1536
  180SLPC  H13R20599   5.081   0.778   9.046 -0.3809  1.8329  0.9237
  180SLPC  C21420600   5.291   0.717   8.993  0.1038  0.0385  0.7503
  180SLPC  H14R20601   5.286   0.606   8.991  0.6344  0.0303 -2.7652
  180SLPC  H14S20602   5.394   0.753   9.015 -0.1944  1.7895 -0.6148
  180SLPC  C21520603   5.271   0.761   8.854 -0.0849 -0.1975 -0.2685
  180SLPC  H15R20604   5.280   0.872   8.846  1.7483 -0.3475 -0.4704
  180SLPC  H15S20605   5.170   0.743   8.812 -0.0737  0.2783 -0.5072
  180SLPC  C21620606   5.362   0.704   8.752 -0.2727 -0.1162  0.1912
  180SLPC  H16R20607   5.355   0.594   8.766  1.6976 -0.0517  1.7793
  180SLPC  H16S20608   5.459   0.738   8.795  1.0510  2.2943 -4.3009
  180SLPC  C21720609   5.344   0.745   8.611  0.1034  0.3549  0.1200
  180SLPC  H17R20610   5.335   0.855   8.619  2.5896  0.6518 -0.8932
  180SLPC  H17S20611   5.254   0.701   8.563 -0.0119 -0.8444  1.3747
  180SLPC  C21820612   5.458   0.721   8.517 -0.2989  0.0182 -0.4020
  180SLPC  H18R20613   5.453   0.615   8.483 -0.5429 -0.0673 -0.1050
  180SLPC  H18S20614   5.555   0.749   8.563 -0.2749  1.9563 -1.5636
  180SLPC  H18T20615   5.452   0.776   8.420  1.2359 -0.7059 -0.9202
  180SLPC   C3320616   4.903   0.500   9.956  0.2631  0.5602  0.1468
  180SLPC   H3X20617   5.006   0.461   9.937 -0.3019 -0.1762 -1.4844
  180SLPC   H3Y20618   4.911   0.598  10.008 -1.6725  0.5553  0.4912
  180SLPC   C3420619   4.839   0.514   9.814  0.4814  0.4010 -0.4204
  180SLPC   H4X20620   4.736   0.556   9.813 -0.9039 -2.8124  0.4850
  180SLPC   H4Y20621   4.826   0.414   9.767  0.2830  0.3494 -0.2542
  180SLPC   C3520622   4.923   0.594   9.719 -0.3342  0.2570 -0.4030
  180SLPC   H5X20623   5.024   0.551   9.704 -1.1106 -1.9994  0.5518
  180SLPC   H5Y20624   4.954   0.687   9.771  3.8858 -0.8969 -0.7011
  180SLPC   C3620625   4.851   0.605   9.583 -0.1537  0.1682 -0.4215
  180SLPC   H6X20626   4.756   0.659   9.599 -0.3444 -0.0051 -0.9530
  180SLPC   H6Y20627   4.820   0.504   9.548  2.1016  0.1355 -2.4313
  180SLPC   C3720628   4.935   0.663   9.468 -0.2170 -0.4870  0.0795
  180SLPC   H7X20629   5.038   0.621   9.474  0.1261  0.6006  2.6858
  180SLPC   H7Y20630   4.962   0.768   9.493  0.6901 -1.2039  2.2777
  180SLPC   C3820631   4.876   0.648   9.329  0.1563  0.5801  0.5149
  180SLPC   H8X20632   4.922   0.723   9.261  0.8596 -0.6352 -0.3722
  180SLPC   H8Y20633   4.768   0.673   9.330  0.0971  0.3441  2.2675
  180SLPC   C3920634   4.890   0.509   9.268  0.8986  0.2641 -0.2535
  180SLPC   H9X20635   4.839   0.437   9.335 -2.7107  0.2718 -2.8489
  180SLPC   H9Y20636   4.994   0.474   9.255  1.1686  1.0598 -0.2742
  180SLPC  C31020637   4.818   0.501   9.140  0.7195  0.4411  0.1374
  180SLPC  H10X20638   4.709   0.513   9.153  0.5820 -0.7315  0.1343
  180SLPC  H10Y20639   4.832   0.395   9.109 -1.3531  0.1452  0.1465
  180SLPC  C31120640   4.864   0.599   9.027  0.2311  0.2968 -0.6811
  180SLPC  H11X20641   4.974   0.587   9.021  0.3865  1.0595  0.4999
  180SLPC  H11Y20642   4.856   0.705   9.059  2.2545 -0.1363  1.3378
  180SLPC  C31220643   4.790   0.580   8.894  0.7988  0.2683  0.1483
  180SLPC  H12X20644   4.684   0.611   8.908  0.2856 -1.1879 -0.4211
  180SLPC  H12Y20645   4.796   0.473   8.865  1.8597 -0.3039  2.4356
  180SLPC  C31320646   4.858   0.672   8.794  0.2943  0.2571 -0.2095
  180SLPC  H13X20647   4.965   0.644   8.803 -0.2923 -2.3211 -0.9752
  180SLPC  H13Y20648   4.852   0.780   8.820  0.4986 -0.0925  1.2854
  180SLPC  C31420649   4.791   0.667   8.658  0.3174 -0.3965  0.6996
  180SLPC  H14X20650   4.699   0.729   8.647  0.7255 -0.0701 -1.0094
  180SLPC  H14Y20651   4.764   0.563   8.633 -0.5312  0.3002 -1.3448
  180SLPC  C31520652   4.892   0.722   8.551 -0.1529 -0.1675  0.0046
  180SLPC  H15X20653   4.988   0.681   8.588  0.0528 -1.1867 -1.6171
  180SLPC  H15Y20654   4.890   0.833   8.556 -3.0280 -0.1961  0.3513
  180SLPC  C31620655   4.869   0.676   8.408  0.4995 -0.2085  0.0013
  180SLPC  H16X20656   4.760   0.689   8.389  0.6197  0.8873  0.0155
  180SLPC  H16Y20657   4.884   0.566   8.410  0.0370 -0.2682  0.5142
  180SLPC  C31720658   4.946   0.750   8.295  0.2112  0.2858 -0.5185
  180SLPC  H17X20659   4.953   0.857   8.326  1.9243 -0.6909  2.6816
  180SLPC  H17Y20660   4.888   0.737   8.201 -2.1085  1.1537  0.7543
  180SLPC  C31820661   5.080   0.680   8.284 -0.4912 -0.2953 -0.2894
  180SLPC  H18X20662   5.131   0.694   8.186 -0.6095  2.0060 -0.0417
  180SLPC  H18Y20663   5.069   0.569   8.280 -0.8059 -0.4022  2.6274
  180SLPC  H18Z20664   5.146   0.700   8.371 -0.9979  1.8563 -0.3800
  181SLPC     N20665   1.207   4.253  11.094  0.0014  0.1552 -0.0439
  181SLPC   C1320666   1.128   4.177  11.200  0.1689 -0.1654 -0.9662
  181SLPC  H13A20667   1.196   4.106  11.245 -1.8900 -1.2280  0.5931
  181SLPC  H13B20668   1.101   4.242  11.282 -1.7569  0.8644 -2.4098
  181SLPC  H13C20669   1.039   4.129  11.164  1.7818 -2.4838 -1.9714
  181SLPC   C1420670   1.246   4.162  10.979  0.3321 -0.2443  0.1417
  181SLPC  H14A20671   1.315   4.209  10.911  2.8977 -0.4323  2.5099
  181SLPC  H14B20672   1.289   4.067  11.009 -0.0138 -1.1237 -2.0927
  181SLPC  H14C20673   1.153   4.143  10.927 -0.1879  2.1270  0.1686
  181SLPC   C1520674   1.331   4.309  11.156  0.2596 -0.4770  0.0735
  181SLPC  H15A20675   1.395   4.357  11.084 -0.0602  0.6859  0.5617
  181SLPC  H15B20676   1.300   4.391  11.219  2.6166  0.1042  0.4848
  181SLPC  H15C20677   1.385   4.236  11.214  0.4919 -1.6158 -1.5336
  181SLPC   C1220678   1.115   4.364  11.038  0.2605 -0.2716  0.0865
  181SLPC  H12A20679   1.079   4.421  11.123 -0.1999  0.2863 -0.4787
  181SLPC  H12B20680   1.025   4.320  11.000 -0.0867 -1.3285  2.0756
  181SLPC   C1120681   1.180   4.475  10.952  0.1987 -0.2269 -0.2218
  181SLPC  H11A20682   1.100   4.520  10.890 -0.4540  0.0916  0.8239
  181SLPC  H11B20683   1.247   4.421  10.883  1.1162 -0.0104  0.4889
  181SLPC     P20684   1.167   4.677  11.113 -0.2327  0.4582 -0.4743
  181SLPC   O1320685   1.024   4.641  11.123  0.0154 -0.5890  0.0313
  181SLPC   O1420686   1.242   4.707  11.240  1.3481  0.0226 -0.1127
  181SLPC   O1220687   1.252   4.573  11.027  0.2447  0.1990  0.0924
  181SLPC   O1120688   1.171   4.816  11.030 -0.6756  0.3697  0.3908
  181SLPC    C120689   1.296   4.882  11.005  0.1978  0.4082 -0.3760
  181SLPC    HA20690   1.285   4.987  11.041 -3.2291 -0.8185  2.4952
  181SLPC    HB20691   1.381   4.836  11.060 -0.7735 -2.5575 -1.2508
  181SLPC    C220692   1.327   4.890  10.855  0.8136 -0.3215  0.4308
  181SLPC    HS20693   1.436   4.911  10.847  1.0412 -0.3547  3.0643
  181SLPC   O2120694   1.243   4.988  10.784 -0.2983 -0.2419  0.3044
  181SLPC   C2120695   1.266   5.111  10.805  0.2837 -0.9600  0.1858
  181SLPC   O2220696   1.346   5.163  10.882 -0.2413 -0.0873  0.4826
  181SLPC   C2220697   1.175   5.191  10.701 -0.0576 -0.0173 -0.2940
  181SLPC   H2R20698   1.173   5.144  10.601 -0.9021 -1.9092  0.5841
  181SLPC   H2S20699   1.071   5.185  10.738  0.0621 -0.2398  0.0147
  181SLPC    C320700   1.312   4.754  10.772 -0.1653  0.3192  0.2987
  181SLPC    HX20701   1.206   4.724  10.759 -0.0554 -0.6879  1.6430
  181SLPC    HY20702   1.365   4.678  10.834  2.9029 -0.3585 -2.9316
  181SLPC   O3120703   1.373   4.757  10.641  0.3140 -0.3665 -0.5709
  181SLPC   C3120704   1.493   4.710  10.615  0.6018 -0.6535  0.2156
  181SLPC   O3220705   1.576   4.682  10.703 -0.5797 -0.2809 -0.5403
  181SLPC   C3220706   1.516   4.693  10.466 -0.1774 -0.1645  0.0131
  181SLPC   H2X20707   1.573   4.775  10.419  0.7686  0.0429  1.5008
  181SLPC   H2Y20708   1.414   4.690  10.423 -0.9796 -2.5126  1.9756
  181SLPC   C2320709   1.225   5.332  10.685  0.7026  0.2230  0.6666
  181SLPC   H3R20710   1.323   5.339  10.634 -0.7545  1.1747 -2.1548
  181SLPC   H3S20711   1.236   5.377  10.786  0.2056  0.0199  0.8130
  181SLPC   C2420712   1.119   5.417  10.603 -0.0038 -0.8688  0.7717
  181SLPC   H4R20713   1.132   5.524  10.628  0.3376 -0.6961 -0.1295
  181SLPC   H4S20714   1.018   5.390  10.642 -0.3827  1.3367  1.4020
  181SLPC   C2520715   1.116   5.396  10.450 -0.2866  0.1653  0.7276
  181SLPC   H5R20716   1.124   5.290  10.419  0.6169  0.7949 -1.2529
  181SLPC   H5S20717   1.211   5.441  10.415 -2.4953  3.7601 -0.9134
  181SLPC   C2620718   0.990   5.444  10.391  0.1186  0.0273 -0.0179
  181SLPC   H6R20719   0.957   5.539  10.438 -0.7342 -0.5459  0.5437
  181SLPC   H6S20720   0.904   5.378  10.414  1.1784 -1.9364 -1.5224
  181SLPC   C2720721   0.996   5.459  10.238 -0.1477  0.1948  0.0770
  181SLPC   H7R20722   1.012   5.359  10.193 -1.0651  0.4040 -0.7279
  181SLPC   H7S20723   1.085   5.516  10.203 -0.0305 -0.0349  0.0072
  181SLPC   C2820724   0.861   5.526  10.193  0.8209  0.2512  0.2086
  181SLPC   H8R20725   0.790   5.467  10.255  1.5051  0.2003  0.9504
  181SLPC   H8S20726   0.847   5.498  10.087  2.3626  0.0004  0.0620
  181SLPC   C2920727   0.872   5.673  10.228 -0.3844  0.6287  0.3935
  181SLPC   H9R20728   0.855   5.696  10.334  1.0912  2.5730  0.2346
  181SLPC  C21020729   0.900   5.775  10.142 -0.4054  0.5113 -0.5946
  181SLPC  H10R20730   0.904   5.877  10.183 -2.3143  0.2495  0.3065
  181SLPC  C21120731   0.943   5.739  10.001 -0.3395  0.6893  0.8042
  181SLPC  H11R20732   0.966   5.631   9.994  0.9259  1.1347 -3.5139
  181SLPC  H11S20733   1.044   5.783   9.988  0.7507 -1.5490  1.5985
  181SLPC  C21220734   0.850   5.784   9.890  0.4859 -0.0027 -0.2502
  181SLPC  H12R20735   0.753   5.817   9.929 -0.1902 -0.5595 -1.4256
  181SLPC  C21320736   0.873   5.785   9.758 -0.1256  0.2157  0.3506
  181SLPC  H13R20737   0.799   5.849   9.708 -2.6431 -1.5437  1.7214
  181SLPC  C21420738   0.995   5.745   9.677  0.5005 -0.8297  0.7739
  181SLPC  H14R20739   1.044   5.676   9.749 -0.1223 -0.6106  1.4182
  181SLPC  H14S20740   1.065   5.827   9.650 -2.3375  0.9549 -1.4952
  181SLPC  C21520741   0.956   5.668   9.545  0.0895  0.3713 -0.2853
  181SLPC  H15R20742   0.894   5.738   9.485 -1.5705  0.3287  1.3197
  181SLPC  H15S20743   0.888   5.584   9.573  2.9690 -1.7054  0.6982
  181SLPC  C21620744   1.077   5.618   9.474 -0.6378 -0.1831 -0.1578
  181SLPC  H16R20745   1.147   5.574   9.549  0.0895  1.3574  0.0879
  181SLPC  H16S20746   1.126   5.710   9.437 -0.2245 -0.2377  0.2591
  181SLPC  C21720747   1.042   5.522   9.355 -0.1931 -0.4002 -0.6092
  181SLPC  H17R20748   0.960   5.567   9.295 -0.0401  2.1200  0.9751
  181SLPC  H17S20749   0.998   5.430   9.398  1.0277 -1.2530 -1.1778
  181SLPC  C21820750   1.159   5.489   9.261 -0.6727  0.3731  0.2986
  181SLPC  H18R20751   1.250   5.455   9.315  0.4027  0.8118 -1.1878
  181SLPC  H18S20752   1.189   5.583   9.209 -1.7143 -0.2405 -1.4552
  181SLPC  H18T20753   1.147   5.405   9.189  1.4010  1.7202 -1.7005
  181SLPC   C3320754   1.582   4.554  10.442 -0.6639  0.1815  0.2100
  181SLPC   H3X20755   1.521   4.474  10.489 -0.1976 -0.5438 -0.3912
  181SLPC   H3Y20756   1.686   4.544  10.479 -0.3999 -2.0867 -1.0547
  181SLPC   C3420757   1.592   4.522  10.296  0.0367  0.6168  0.0694
  181SLPC   H4X20758   1.491   4.499  10.258 -0.5226 -0.0343  1.9022
  181SLPC   H4Y20759   1.644   4.424  10.297 -0.3849  0.3656  4.0194
  181SLPC   C3520760   1.657   4.629  10.210 -0.2353 -0.2438  0.2177
  181SLPC   H5X20761   1.755   4.667  10.246  1.1892 -2.5668 -1.1066
  181SLPC   H5Y20762   1.604   4.726  10.195  1.0584  0.7501  1.8557
  181SLPC   C3620763   1.690   4.573  10.069 -0.1233 -0.1057  0.1407
  181SLPC   H6X20764   1.726   4.468  10.071  0.7049  0.1845  2.2454
  181SLPC   H6Y20765   1.772   4.636  10.027 -0.6632 -0.8844 -2.1517
  181SLPC   C3720766   1.569   4.579   9.976  0.0304  0.3654 -0.4131
  181SLPC   H7X20767   1.505   4.668   9.991  0.9201  0.6510  1.9269
  181SLPC   H7Y20768   1.502   4.494   9.999  0.9095 -0.3957 -0.6060
  181SLPC   C3820769   1.614   4.575   9.830 -0.3919  0.0914 -0.9963
  181SLPC   H8X20770   1.678   4.487   9.809 -1.8878 -0.5497 -2.9939
  181SLPC   H8Y20771   1.677   4.663   9.808  0.2874 -0.6116 -1.8488
  181SLPC   C3920772   1.496   4.552   9.735 -1.1914 -0.1905 -0.1381
  181SLPC   H9X20773   1.426   4.637   9.751  0.3173  0.8209  1.2463
  181SLPC   H9Y20774   1.449   4.461   9.778  1.6586 -0.9402  1.5217
  181SLPC  C31020775   1.528   4.518   9.587  0.8596 -0.4809  0.1011
  181SLPC  H10X20776   1.425   4.500   9.550 -0.2097 -1.1629  3.2843
  181SLPC  H10Y20777   1.578   4.419   9.583 -0.8718 -1.3766  0.0935
  181SLPC  C31120778   1.601   4.622   9.502 -0.6634  0.5431  1.2404
  181SLPC  H11X20779   1.634   4.573   9.409 -3.4469  1.3208 -0.2137
  181SLPC  H11Y20780   1.688   4.662   9.558  2.2983 -2.5724 -1.0257
  181SLPC  C31220781   1.516   4.740   9.458  0.2741 -0.5916 -0.0944
  181SLPC  H12X20782   1.479   4.802   9.542  1.4312 -0.7105  0.5073
  181SLPC  H12Y20783   1.425   4.692   9.416  0.0587  0.8574 -1.3137
  181SLPC  C31320784   1.578   4.825   9.348  0.0506  0.0577  0.4083
  181SLPC  H13X20785   1.661   4.775   9.293 -0.3893  1.9413 -2.0588
  181SLPC  H13Y20786   1.630   4.910   9.397 -0.7774  0.7704  0.0582
  181SLPC  C31420787   1.485   4.874   9.240  0.2046 -0.3278 -0.1307
  181SLPC  H14X20788   1.514   4.959   9.175  0.9923 -0.8536 -0.4837
  181SLPC  H14Y20789   1.387   4.904   9.282 -0.1707 -2.1856  0.3722
  181SLPC  C31520790   1.444   4.749   9.148  0.3722 -0.3953 -0.2324
  181SLPC  H15X20791   1.374   4.774   9.065 -0.6160  0.8239  0.9519
  181SLPC  H15Y20792   1.400   4.672   9.215 -0.6958  0.5201  0.1328
  181SLPC  C31620793   1.557   4.689   9.068 -0.2283  0.9328  0.0889
  181SLPC  H16X20794   1.615   4.632   9.145 -1.8270 -0.6431  0.1617
  181SLPC  H16Y20795   1.620   4.774   9.034 -1.4248  3.0026  2.8614
  181SLPC  C31720796   1.521   4.592   8.963  0.0482  0.0127  0.8833
  181SLPC  H17X20797   1.455   4.645   8.891 -0.5569  0.9931  2.1401
  181SLPC  H17Y20798   1.458   4.511   9.006 -1.3548  0.6288  0.0518
  181SLPC  C31820799   1.639   4.534   8.888 -0.8307  0.3786 -0.0720
  181SLPC  H18X20800   1.693   4.624   8.853 -3.3515  2.0382  0.1631
  181SLPC  H18Y20801   1.610   4.462   8.808  1.3602 -0.2438 -0.3537
  181SLPC  H18Z20802   1.711   4.488   8.959 -3.1594 -1.6111  1.0762
  182SLPC     N20803   5.944   4.455  10.780 -0.3067 -0.1097 -0.0262
  182SLPC   C1320804   5.832   4.538  10.840 -0.6441  1.3564 -0.1902
  182SLPC  H13A20805   5.793   4.482  10.924  1.6359  0.5227  0.3569
  182SLPC  H13B20806   5.875   4.632  10.871  0.0361  0.6770  0.9643
  182SLPC  H13C20807   5.745   4.552  10.777  0.3470  1.0555 -1.6635
  182SLPC   C1420808   5.884   4.331  10.729 -0.7803  0.1720 -0.3379
  182SLPC  H14A20809   5.957   4.268  10.680  1.9262  0.4366  3.1568
  182SLPC  H14B20810   5.840   4.275  10.810 -1.8798 -0.1657 -1.1510
  182SLPC  H14C20811   5.799   4.349  10.665 -0.4257  1.7240 -0.3919
  182SLPC   C1520812   6.043   4.422  10.880 -0.6175 -0.0127  0.2771
  182SLPC  H15A20813   6.110   4.506  10.891 -0.0599 -0.7311  2.7334
  182SLPC  H15B20814   5.989   4.396  10.970 -0.9411  1.8637  0.6457
  182SLPC  H15C20815   6.105   4.339  10.851 -1.6176 -0.6635 -0.0261
  182SLPC   C1220816   6.005   4.526  10.666  0.1994  0.8363 -0.0855
  182SLPC  H12A20817   5.943   4.535  10.578 -2.3115 -1.5520  1.3440
  182SLPC  H12B20818   6.091   4.468  10.637  0.2103  1.2359 -0.8740
  182SLPC   C1120819   6.070   4.668  10.701  1.0758  0.3468 -0.2895
  182SLPC  H11A20820   6.139   4.690  10.617  2.7264 -0.1109  0.9245
  182SLPC  H11B20821   6.131   4.655  10.793 -1.4990 -0.3903  1.3656
  182SLPC     P20822   5.994   4.908  10.767 -0.0825 -0.2065 -0.0103
  182SLPC   O1320823   5.864   4.976  10.773 -0.1906 -0.4504  0.8643
  182SLPC   O1420824   6.081   4.907  10.887  0.0740 -0.2895  0.2181
  182SLPC   O1220825   5.967   4.762  10.715 -0.2969  0.2545  0.0089
  182SLPC   O1120826   6.079   4.959  10.641 -0.6561 -0.1361  0.3643
  182SLPC    C120827   6.013   5.014  10.528 -0.4560  0.3104 -0.1272
  182SLPC    HA20828   5.964   4.933  10.470  2.5357 -1.4517 -0.2719
  182SLPC    HB20829   5.932   5.086  10.555 -1.2758 -0.9749  0.9365
  182SLPC    C220830   6.122   5.088  10.436 -0.7218  0.0698 -0.1492
  182SLPC    HS20831   6.089   5.192  10.419 -1.2241 -0.0802 -0.0879
  182SLPC   O2120832   6.138   5.022  10.310 -0.5923 -0.1611 -0.4576
  182SLPC   C2120833   6.156   5.093  10.200  0.1779  0.2661  0.5276
  182SLPC   O2220834   6.117   5.208  10.185  0.2592  0.5751 -0.2457
  182SLPC   C2220835   6.202   4.992  10.090 -0.0234 -0.2712  0.1350
  182SLPC   H2R20836   6.272   4.926  10.146  1.7589 -0.3848 -2.1570
  182SLPC   H2S20837   6.112   4.937  10.055 -0.1474 -1.3435  2.0589
  182SLPC    C320838   6.273   5.075  10.492 -0.3007 -0.4036 -0.2903
  182SLPC    HX20839   6.289   4.965  10.505 -0.3827 -0.4982 -0.9372
  182SLPC    HY20840   6.270   5.126  10.590 -2.7668  1.1207 -1.0888
  182SLPC   O3120841   6.371   5.133  10.409  0.2168 -0.1749 -1.0664
  182SLPC   C3120842   6.376   5.265  10.415 -0.5578  0.3716 -0.1664
  182SLPC   O3220843   6.333   5.335  10.506  0.2726  0.0020  0.0949
  182SLPC   C3220844   6.455   5.320  10.295  1.2220 -0.2075 -0.7464
  182SLPC   H2X20845   6.491   5.241  10.226  0.0763 -2.5516  1.2534
  182SLPC   H2Y20846   6.545   5.355  10.350  0.3946  1.4343 -0.4218
  182SLPC   C2320847   6.282   5.070   9.982 -0.0445  0.1106  0.3690
  182SLPC   H3R20848   6.367   5.132  10.018 -1.3406  1.6008  0.9354
  182SLPC   H3S20849   6.212   5.150   9.948 -1.4382 -1.4116 -0.3870
  182SLPC   C2420850   6.342   4.977   9.874 -0.5793 -0.6175  0.1962
  182SLPC   H4R20851   6.265   4.919   9.821 -2.1002  1.6197 -0.1086
  182SLPC   H4S20852   6.415   4.906   9.919 -0.9148 -0.6419  0.7064
  182SLPC   C2520853   6.413   5.054   9.758 -0.0287  0.6213  0.7826
  182SLPC   H5R20854   6.499   5.112   9.798  1.4139 -1.4255  0.7466
  182SLPC   H5S20855   6.335   5.114   9.708  0.9878 -0.2296 -1.8835
  182SLPC   C2620856   6.477   4.952   9.658 -0.1812  0.4509 -0.2513
  182SLPC   H6R20857   6.412   4.864   9.637 -0.9839  1.2776 -1.3090
  182SLPC   H6S20858   6.566   4.901   9.701 -2.5156 -1.2339  2.7999
  182SLPC   C2720859   6.535   5.027   9.531 -0.4591 -0.6712  0.3891
  182SLPC   H7R20860   6.587   5.118   9.566 -2.3115 -0.2269  2.0746
  182SLPC   H7S20861   6.445   5.056   9.472  0.3133 -1.1493 -1.0317
  182SLPC   C2820862   6.620   4.943   9.439  0.2534 -0.1629  0.5195
  182SLPC   H8R20863   6.718   4.931   9.489  0.9411 -0.3590 -0.8293
  182SLPC   H8S20864   6.655   5.009   9.356 -0.9318 -0.1277  0.0333
  182SLPC   C2920865   6.559   4.822   9.387 -0.0770  0.0157 -1.0596
  182SLPC   H9R20866   6.529   4.748   9.462  0.3338 -1.6011 -2.4483
  182SLPC  C21020867   6.516   4.798   9.265  0.2607 -0.2858  0.9086
  182SLPC  H10R20868   6.466   4.702   9.245 -2.2410  0.5846  2.6361
  182SLPC  C21120869   6.521   4.882   9.146  0.5024 -0.4223 -0.3116
  182SLPC  H11R20870   6.597   4.962   9.151  2.4964 -2.3468  1.2456
  182SLPC  H11S20871   6.426   4.938   9.147  1.0633  0.5194  0.3014
  182SLPC  C21220872   6.557   4.816   9.016 -0.0544  0.5525  0.6170
  182SLPC  H12R20873   6.493   4.731   8.990  3.9588 -1.9063 -1.7716
  182SLPC  C21320874   6.671   4.840   8.946 -0.0405 -0.0168 -0.5958
  182SLPC  H13R20875   6.688   4.776   8.858 -0.6299 -0.3964 -0.4328
  182SLPC  C21420876   6.782   4.933   8.979  0.3309 -1.0379 -0.1568
  182SLPC  H14R20877   6.860   4.893   9.047  0.9493 -0.4424 -0.5055
  182SLPC  H14S20878   6.750   5.029   9.024  1.8193 -1.6497  2.3243
  182SLPC  C21520879   6.844   4.971   8.843  0.4262 -0.8776  0.4055
  182SLPC  H15R20880   6.762   5.010   8.780  2.3073  0.5093 -1.2489
  182SLPC  H15S20881   6.886   4.888   8.782 -1.8659 -0.5669 -1.6694
  182SLPC  C21620882   6.964   5.064   8.856 -0.6456  0.7532  0.2970
  182SLPC  H16R20883   6.957   5.149   8.927 -0.5003  0.9719  0.0494
  182SLPC  H16S20884   6.969   5.115   8.757 -1.7035  0.2761 -0.0081
  182SLPC  C21720885   7.084   4.977   8.891  0.4607 -0.4016 -0.4217
  182SLPC  H17R20886   7.083   4.895   8.816 -1.8204 -2.5285  1.8293
  182SLPC  H17S20887   7.075   4.938   8.994 -0.2960 -0.3405 -0.4621
  182SLPC  C21820888   7.218   5.051   8.884 -0.0858 -0.3432 -0.3007
  182SLPC  H18R20889   7.225   5.132   8.959  0.0957  0.1308 -0.8288
  182SLPC  H18S20890   7.233   5.103   8.787 -0.9103 -2.2355 -1.4822
  182SLPC  H18T20891   7.308   4.987   8.896  0.0974  0.4247  2.7518
  182SLPC   C3320892   6.391   5.451  10.225  0.7462 -0.2449 -0.1261
  182SLPC   H3X20893   6.367   5.532  10.298  1.7986 -0.3783  0.3783
  182SLPC   H3Y20894   6.292   5.423  10.184 -0.2202 -1.2429  2.7593
  182SLPC   C3420895   6.464   5.505  10.100 -0.7811  0.4936 -0.6850
  182SLPC   H4X20896   6.463   5.430  10.017 -2.2242 -1.9495  1.4612
  182SLPC   H4Y20897   6.567   5.528  10.133  0.8077 -6.1287 -0.2570
  182SLPC   C3520898   6.414   5.637  10.045 -0.0398  0.2693 -0.0739
  182SLPC   H5X20899   6.496   5.677   9.982 -1.2403  0.5203 -1.5093
  182SLPC   H5Y20900   6.404   5.704  10.132  2.0259 -1.2566  1.3898
  182SLPC   C3620901   6.280   5.627   9.970 -0.5525 -0.2174  0.7778
  182SLPC   H6X20902   6.257   5.722   9.917 -0.0492 -1.0359 -0.9138
  182SLPC   H6Y20903   6.199   5.615  10.046 -0.4736 -0.5297  0.8135
  182SLPC   C3720904   6.268   5.526   9.857 -0.0523  0.0770 -0.4263
  182SLPC   H7X20905   6.177   5.532   9.793  2.0862 -1.5219 -3.7538
  182SLPC   H7Y20906   6.273   5.431   9.914  0.8324  0.2316 -0.2391
  182SLPC   C3820907   6.383   5.532   9.754  0.0092  0.7413  0.7802
  182SLPC   H8X20908   6.484   5.523   9.800  1.2225  0.6941 -1.7622
  182SLPC   H8Y20909   6.374   5.635   9.713 -1.3319  0.6066  0.7228
  182SLPC   C3920910   6.354   5.438   9.637 -0.4841  0.0487  0.7955
  182SLPC   H9X20911   6.250   5.443   9.597  0.6870 -1.6817 -2.6255
  182SLPC   H9Y20912   6.374   5.337   9.677  1.8031  0.1170 -0.1083
  182SLPC  C31020913   6.446   5.464   9.513 -0.0352 -0.9550  0.1425
  182SLPC  H10X20914   6.551   5.436   9.535 -0.2091 -1.0915  0.8399
  182SLPC  H10Y20915   6.442   5.574   9.501  0.8517 -1.1162 -1.6774
  182SLPC  C31120916   6.396   5.375   9.406  0.2809 -0.2690 -0.4271
  182SLPC  H11X20917   6.285   5.389   9.402  0.2127 -1.0282 -1.4371
  182SLPC  H11Y20918   6.411   5.272   9.444 -1.7996  0.4686  2.6702
  182SLPC  C31220919   6.461   5.398   9.275  0.1752 -0.3658 -0.0840
  182SLPC  H12X20920   6.571   5.386   9.285  0.2700 -0.0393 -0.7039
  182SLPC  H12Y20921   6.430   5.501   9.250 -1.5002 -0.6258  0.9068
  182SLPC  C31320922   6.410   5.300   9.165  0.4187  0.0567 -0.1969
  182SLPC  H13X20923   6.299   5.294   9.170  0.2398  0.3710 -3.0727
  182SLPC  H13Y20924   6.459   5.202   9.185  1.8946  1.1927  2.0434
  182SLPC  C31420925   6.456   5.364   9.033  0.2518  0.2301 -0.0774
  182SLPC  H14X20926   6.566   5.350   9.042  0.0538  0.3191  2.7125
  182SLPC  H14Y20927   6.444   5.474   9.021  3.0420  0.6064  0.1915
  182SLPC  C31520928   6.403   5.293   8.905  0.1132 -0.1837 -0.7161
  182SLPC  H15X20929   6.433   5.347   8.813 -1.9440  0.9745 -0.7542
  182SLPC  H15Y20930   6.292   5.299   8.913  0.2335  1.7322 -0.3870
  182SLPC  C31620931   6.437   5.145   8.878 -0.0692  0.1301  0.0666
  182SLPC  H16X20932   6.389   5.083   8.957  0.0676 -1.1628 -0.8476
  182SLPC  H16Y20933   6.546   5.127   8.876  0.0577  0.9663 -0.4848
  182SLPC  C31720934   6.394   5.104   8.734 -0.2391 -0.4329 -0.5774
  182SLPC  H17X20935   6.437   5.007   8.700  1.0552 -0.2280  0.4378
  182SLPC  H17Y20936   6.448   5.175   8.669 -0.3302 -0.0733 -0.2643
  182SLPC  C31820937   6.246   5.117   8.710  0.4098  0.1798  0.3444
  182SLPC  H18X20938   6.219   5.218   8.673 -0.8865 -0.2627  0.0436
  182SLPC  H18Y20939   6.194   5.089   8.804 -1.0057 -1.4495 -0.8869
  182SLPC  H18Z20940   6.205   5.043   8.637 -1.8939  1.4394  0.2922
  183SLPC     N20941   0.972   6.569  11.074 -0.2897 -0.4765  0.2812
  183SLPC   C1320942   0.971   6.478  11.190 -0.1031 -0.2105  0.4269
  183SLPC  H13A20943   0.937   6.526  11.281 -0.2914 -0.3690  0.4390
  183SLPC  H13B20944   0.903   6.396  11.177  0.3435 -0.6523  0.8507
  183SLPC  H13C20945   1.067   6.430  11.198  0.0026 -0.9155 -3.9686
  183SLPC   C1420946   1.073   6.674  11.113  0.0019  0.9147  0.3270
  183SLPC  H14A20947   1.053   6.759  11.049  0.0377 -0.5921 -1.7299
  183SLPC  H14B20948   1.052   6.708  11.214 -1.0084  0.3169  0.3171
  183SLPC  H14C20949   1.178   6.648  11.110  0.1077  0.7795  3.4971
  183SLPC   C1520950   0.837   6.634  11.061  0.9633 -0.0157 -0.0178
  183SLPC  H15A20951   0.762   6.558  11.044  1.5620 -0.1347 -2.2764
  183SLPC  H15B20952   0.805   6.688  11.149 -1.2805  1.6018 -1.7622
  183SLPC  H15C20953   0.831   6.710  10.985  2.7809 -0.9748 -1.1347
  183SLPC   C1220954   1.015   6.497  10.947  0.4355  0.3132 -0.6094
  183SLPC  H12A20955   1.004   6.560  10.861  1.5150  2.7457  0.9904
  183SLPC  H12B20956   0.942   6.421  10.922  2.7876 -2.8561  1.7467
  183SLPC   C1120957   1.162   6.447  10.934 -0.1423 -0.6274  0.2824
  183SLPC  H11A20958   1.167   6.387  10.840  0.0321 -0.4413  0.1732
  183SLPC  H11B20959   1.183   6.370  11.011  0.0079  1.7772  2.6744
  183SLPC     P20960   1.249   6.652  10.795 -0.1746 -0.6419  0.3567
  183SLPC   O1320961   1.210   6.790  10.829 -0.3287 -0.2302 -0.7556
  183SLPC   O1420962   1.377   6.647  10.710 -0.5594 -0.1195 -0.3950
  183SLPC   O1220963   1.260   6.556  10.924 -0.1641  0.0234 -0.0665
  183SLPC   O1120964   1.129   6.602  10.707 -0.4732 -0.1024 -0.3319
  183SLPC    C120965   1.139   6.532  10.585 -0.6589 -0.4037  0.7608
  183SLPC    HA20966   1.243   6.540  10.547 -1.7455 -0.3741 -2.4449
  183SLPC    HB20967   1.119   6.423  10.597  0.1555 -0.8892 -1.9249
  183SLPC    C220968   1.035   6.591  10.482 -0.5859 -0.5194  0.2774
  183SLPC    HS20969   0.944   6.532  10.509 -0.8637  0.6151  1.8476
  183SLPC   O2120970   1.083   6.573  10.344  0.3338 -0.2107  0.5034
  183SLPC   C2120971   0.981   6.567  10.267 -0.3058  0.4987 -0.5185
  183SLPC   O2220972   0.863   6.546  10.293  0.1156  0.3438  0.2623
  183SLPC   C2220973   1.036   6.551  10.124 -0.4685  0.5619 -0.0167
  183SLPC   H2R20974   1.091   6.644  10.100  1.5173 -1.0973 -2.1316
  183SLPC   H2S20975   1.105   6.464  10.115  0.2590  1.2360 -1.1215
  183SLPC    C320976   1.007   6.737  10.515  0.2573  0.0416 -0.8186
  183SLPC    HX20977   1.108   6.782  10.526  0.1652  0.4152 -1.4965
  183SLPC    HY20978   0.959   6.731  10.615 -0.4448  0.6374 -1.1220
  183SLPC   O3120979   0.924   6.801  10.420  0.0416 -0.3106  0.2932
  183SLPC   C3120980   0.865   6.908  10.476 -0.5817  0.3518  0.2190
  183SLPC   O3220981   0.893   6.941  10.593  0.3469  0.4618 -0.2288
  183SLPC   C3220982   0.756   6.981  10.395  0.1839 -0.6192  0.5797
  183SLPC   H2X20983   0.774   7.081  10.439 -1.0261 -0.6200  1.1038
  183SLPC   H2Y20984   0.657   6.938  10.420 -0.0988  0.8729  2.0821
  183SLPC   C2320985   0.914   6.539  10.028 -0.9436 -0.2838 -0.0357
  183SLPC   H3R20986   0.834   6.610  10.060 -1.2456 -0.6398  0.0109
  183SLPC   H3S20987   0.858   6.445  10.047 -0.5952 -0.2429  1.2113
  183SLPC   C2420988   0.949   6.559   9.878  0.0693  0.2270 -0.2918
  183SLPC   H4R20989   0.855   6.576   9.822  1.4916 -3.2236 -3.9513
  183SLPC   H4S20990   0.992   6.465   9.838 -0.0758 -0.1176  0.3626
  183SLPC   C2520991   1.049   6.680   9.849 -0.0020 -0.0049  0.1254
  183SLPC   H5R20992   1.149   6.644   9.880  0.5610  0.2639 -1.3677
  183SLPC   H5S20993   1.014   6.764   9.913 -0.2917  0.8381 -1.1340
  183SLPC   C2620994   1.062   6.709   9.700 -0.1538 -0.0103 -0.4757
  183SLPC   H6R20995   1.131   6.796   9.700 -0.5385  0.3022  0.3836
  183SLPC   H6S20996   0.962   6.729   9.657 -0.2449 -0.2873 -0.3970
  183SLPC   C2720997   1.133   6.606   9.610 -0.0446 -0.6612 -0.2351
  183SLPC   H7R20998   1.071   6.516   9.632 -1.1714 -0.5262 -2.7190
  183SLPC   H7S20999   1.231   6.574   9.651 -1.0677 -0.7320  2.2280
  183SLPC   C2821000   1.140   6.644   9.459  0.7656  0.1245  0.1082
  183SLPC   H8R21001   1.203   6.565   9.412  1.1773  0.6284 -0.1815
  183SLPC   H8S21002   1.191   6.741   9.441  1.8266 -0.5249 -0.4249
  183SLPC   C2921003   0.996   6.651   9.411 -0.1115 -0.5764  0.2815
  183SLPC   H9R21004   0.943   6.739   9.450 -0.8008 -1.9578  2.5881
  183SLPC  C21021005   0.946   6.576   9.314 -0.2448 -0.0771  0.0885
  183SLPC  H10R21006   0.840   6.589   9.288 -0.2216 -2.1165 -1.1514
  183SLPC  C21121007   1.007   6.460   9.238  1.2424 -0.3023 -1.0275
  183SLPC  H11R21008   0.933   6.377   9.235  0.3913  0.4397 -1.0361
  183SLPC  H11S21009   1.106   6.425   9.272  1.0757  0.7843  0.6768
  183SLPC  C21221010   1.025   6.515   9.100 -0.3241 -0.3263 -0.0213
  183SLPC  H12R21011   1.094   6.600   9.094 -0.2379 -0.5526 -2.9501
  183SLPC  C21321012   0.980   6.468   8.989 -1.0423  0.6524 -0.0932
  183SLPC  H13R21013   1.000   6.531   8.901  1.0008 -2.2320 -1.7811
  183SLPC  C21421014   0.896   6.347   8.959 -0.1953 -0.4785  0.8931
  183SLPC  H14R21015   0.882   6.297   9.057 -2.2113  2.5747  2.2426
  183SLPC  H14S21016   0.948   6.267   8.903 -2.2668 -1.0310 -0.2735
  183SLPC  C21521017   0.758   6.380   8.892 -0.1929 -0.3761  0.1262
  183SLPC  H15R21018   0.728   6.283   8.847  2.2465 -1.3404  0.5336
  183SLPC  H15S21019   0.777   6.460   8.817  1.5729  0.3109  1.2787
  183SLPC  C21621020   0.663   6.443   8.991 -0.3259 -0.9901  0.0974
  183SLPC  H16R21021   0.717   6.530   9.033  0.6244 -1.8462  0.6931
  183SLPC  H16S21022   0.638   6.384   9.082  1.0858 -1.6340  0.0855
  183SLPC  C21721023   0.537   6.489   8.918 -0.2765  0.2011 -0.3955
  183SLPC  H17R21024   0.556   6.534   8.818 -1.2591  2.3263  0.3336
  183SLPC  H17S21025   0.488   6.574   8.971  0.4994 -0.8339  2.0703
  183SLPC  C21821026   0.434   6.379   8.899  0.5259  0.0545 -0.6642
  183SLPC  H18R21027   0.342   6.410   8.845  1.1832  0.8955 -1.3202
  183SLPC  H18S21028   0.399   6.357   9.002 -1.7700  0.1722 -1.3848
  183SLPC  H18T21029   0.486   6.290   8.858  1.3750  0.2721 -0.0718
  183SLPC   C3321030   0.777   6.994  10.245 -0.6714 -0.4628 -0.0938
  183SLPC   H3X21031   0.768   6.900  10.187  1.0445  0.3104 -1.6912
  183SLPC   H3Y21032   0.878   7.033  10.220 -1.6952  2.0531 -0.4919
  183SLPC   C3421033   0.678   7.098  10.192 -0.2680  0.3164  0.6341
  183SLPC   H4X21034   0.685   7.198  10.240 -0.8473 -0.5739  2.5938
  183SLPC   H4Y21035   0.578   7.057  10.220 -0.4418  0.2733 -0.0458
  183SLPC   C3521036   0.693   7.132  10.043 -0.0677 -0.8649  0.7796
  183SLPC   H5X21037   0.794   7.177  10.030 -0.4565 -0.6760 -1.9844
  183SLPC   H5Y21038   0.624   7.204   9.995  1.2003  0.4808  0.9319
  183SLPC   C3621039   0.717   7.009   9.961 -0.0807  0.1281 -0.2172
  183SLPC   H6X21040   0.650   6.926   9.990  3.3690 -2.0713  1.7748
  183SLPC   H6Y21041   0.823   6.981   9.980 -0.6448 -0.6546  1.8351
  183SLPC   C3721042   0.704   7.029   9.806  0.9335  1.1741  0.2615
  183SLPC   H7X21043   0.804   7.068   9.776  1.9111 -1.6256 -0.2700
  183SLPC   H7Y21044   0.622   7.103   9.790  0.0814 -0.1519 -1.6774
  183SLPC   C3821045   0.681   6.886   9.752 -0.9256  0.3705 -0.0359
  183SLPC   H8X21046   0.572   6.868   9.763 -0.2627 -5.0466 -1.1505
  183SLPC   H8Y21047   0.725   6.808   9.818 -1.0518  1.5489  1.4639
  183SLPC   C3921048   0.716   6.860   9.604 -0.5281 -1.1187 -0.1068
  183SLPC   H9X21049   0.731   6.754   9.574  1.6378 -0.9426  0.2721
  183SLPC   H9Y21050   0.818   6.894   9.580 -0.1318 -2.7702 -0.8720
  183SLPC  C31021051   0.627   6.932   9.503  0.2498 -0.7945 -0.2033
  183SLPC  H10X21052   0.660   7.038   9.514  2.9569 -1.9111  3.3584
  183SLPC  H10Y21053   0.521   6.928   9.538  0.9638 -1.5261  1.9230
  183SLPC  C31121054   0.639   6.880   9.372 -0.1892 -0.1241  0.2615
  183SLPC  H11X21055   0.594   6.779   9.365  1.1027 -0.6393 -0.7162
  183SLPC  H11Y21056   0.748   6.869   9.355 -0.0395  0.7666  0.6216
  183SLPC  C31221057   0.571   6.963   9.261 -0.1470  0.1730  0.4774
  183SLPC  H12X21058   0.609   7.067   9.260 -3.7944  1.6175 -3.2922
  183SLPC  H12Y21059   0.463   6.971   9.289 -1.0952  0.5825 -3.0058
  183SLPC  C31321060   0.571   6.897   9.129 -0.2395  0.1850 -0.0623
  183SLPC  H13X21061   0.512   6.805   9.148 -0.7587  0.3418 -0.8882
  183SLPC  H13Y21062   0.674   6.870   9.096  0.4926  0.0220  2.2747
  183SLPC  C31421063   0.502   6.978   9.024  0.8421 -0.3166 -0.1210
  183SLPC  H14X21064   0.564   7.070   9.024 -1.6297  1.3970  0.5822
  183SLPC  H14Y21065   0.400   7.013   9.050  0.8112 -0.9323  0.6153
  183SLPC  C31521066   0.497   6.916   8.878  0.8816 -0.5050  0.4969
  183SLPC  H15X21067   0.455   6.997   8.815 -0.7256 -2.1437 -0.6007
  183SLPC  H15Y21068   0.420   6.836   8.866 -0.9733  1.3307 -0.1255
  183SLPC  C31621069   0.633   6.848   8.842 -0.3960 -0.6583 -0.2091
  183SLPC  H16X21070   0.647   6.756   8.902  1.9568  1.5680  2.8453
  183SLPC  H16Y21071   0.722   6.902   8.881 -0.0812 -1.3289  0.0101
  183SLPC  C31721072   0.668   6.809   8.702 -0.2924 -0.0180 -0.0678
  183SLPC  H17X21073   0.669   6.898   8.636 -1.8707  1.3086  1.6654
  183SLPC  H17Y21074   0.592   6.741   8.657  0.8146 -0.8160 -0.7480
  183SLPC  C31821075   0.807   6.740   8.683 -0.2608 -0.0316 -0.1818
  183SLPC  H18X21076   0.789   6.647   8.742 -1.4006  0.0097 -0.4403
  183SLPC  H18Y21077   0.877   6.808   8.736 -0.3373  0.1846 -0.3549
  183SLPC  H18Z21078   0.832   6.716   8.578  0.5436  3.5862 -0.8926
  184SLPC     N21079   3.600   4.453  11.124  0.8817 -0.8357 -0.2430
  184SLPC   C1321080   3.519   4.342  11.074  0.2842  0.2614  0.4497
  184SLPC  H13A21081   3.445   4.377  11.004  0.0785 -0.7274  0.1580
  184SLPC  H13B21082   3.584   4.272  11.023  0.0398  0.3164  0.0612
  184SLPC  H13C21083   3.459   4.289  11.146  2.3074  0.3799  2.2747
  184SLPC   C1421084   3.689   4.397  11.229 -0.0061 -0.2869 -0.4564
  184SLPC  H14A21085   3.773   4.459  11.258  0.8431 -0.1765 -3.0743
  184SLPC  H14B21086   3.632   4.358  11.312 -1.9440  0.2897 -1.4863
  184SLPC  H14C21087   3.736   4.306  11.195  2.0936  0.9684 -1.0278
  184SLPC   C1521088   3.511   4.559  11.180  0.0828  0.7131  0.4230
  184SLPC  H15A21089   3.454   4.596  11.096 -3.4293 -0.3324  2.2158
  184SLPC  H15B21090   3.440   4.523  11.253 -1.8181  0.5201 -1.4479
  184SLPC  H15C21091   3.562   4.643  11.224 -0.1824  0.1796  1.7743
  184SLPC   C1221092   3.679   4.524  11.012 -0.3961  0.0478 -0.2517
  184SLPC  H12A21093   3.732   4.450  10.952 -2.2569 -0.4984 -1.2586
  184SLPC  H12B21094   3.750   4.592  11.057 -0.5446  0.4226 -0.5829
  184SLPC   C1121095   3.603   4.611  10.907  0.1551  0.4623 -0.9357
  184SLPC  H11A21096   3.674   4.669  10.845 -0.1975  0.2600 -1.5394
  184SLPC  H11B21097   3.542   4.686  10.962  0.6293  0.0016  0.2224
  184SLPC     P21098   3.582   4.434  10.726  0.2214  0.2871 -0.0476
  184SLPC   O1321099   3.668   4.333  10.797 -0.2441  0.8451 -0.1801
  184SLPC   O1421100   3.477   4.363  10.648 -0.3875 -0.2750 -0.2353
  184SLPC   O1221101   3.515   4.526  10.834  0.0339 -0.9494  0.5873
  184SLPC   O1121102   3.662   4.532  10.642 -0.4278 -0.4494 -0.9260
  184SLPC    C121103   3.597   4.616  10.549 -0.1032  0.6257 -0.6619
  184SLPC    HA21104   3.495   4.637  10.587 -0.4095 -0.5946 -0.7702
  184SLPC    HB21105   3.656   4.710  10.547  0.2892  0.3708 -1.3864
  184SLPC    C221106   3.587   4.554  10.406 -0.1766  0.0824  0.0258
  184SLPC    HS21107   3.552   4.449  10.398  0.4618 -0.2338  1.2988
  184SLPC   O2121108   3.723   4.554  10.360 -0.0434 -0.7412  0.3576
  184SLPC   C2121109   3.771   4.471  10.270  0.1242  0.1460 -0.5005
  184SLPC   O2221110   3.708   4.381  10.219  0.4069 -0.6591 -0.4524
  184SLPC   C2221111   3.911   4.513  10.244  0.0229  0.5743 -0.6273
  184SLPC   H2R21112   3.938   4.606  10.299  1.4236 -0.5385  0.6093
  184SLPC   H2S21113   3.971   4.432  10.292 -3.1721  0.2585  3.1024
  184SLPC    C321114   3.492   4.633  10.307  0.4754 -0.0384 -0.3893
  184SLPC    HX21115   3.528   4.738  10.304  0.6963 -0.0904  0.3753
  184SLPC    HY21116   3.393   4.648  10.354  0.0837  0.7619 -1.4633
  184SLPC   O3121117   3.487   4.569  10.174 -0.0667  0.2511  0.8989
  184SLPC   C3121118   3.388   4.478  10.164 -0.9027 -0.6506  0.2341
  184SLPC   O3221119   3.313   4.440  10.252 -0.3461  0.1542 -0.3161
  184SLPC   C3221120   3.375   4.432  10.016  0.2918 -0.2455 -0.3900
  184SLPC   H2X21121   3.345   4.520   9.955 -1.2875 -1.4163 -1.3522
  184SLPC   H2Y21122   3.287   4.364  10.028  0.8265 -0.6945  1.1377
  184SLPC   C2321123   3.941   4.535  10.090  0.2747 -0.2616  1.1742
  184SLPC   H3R21124   3.917   4.438  10.042  2.2045 -0.0099 -0.3251
  184SLPC   H3S21125   4.049   4.554  10.072  0.3693 -0.9838  0.9737
  184SLPC   C2421126   3.863   4.651  10.037 -0.2748  0.0868  0.3117
  184SLPC   H4R21127   3.906   4.750  10.062 -0.9423  1.2415 -2.9886
  184SLPC   H4S21128   3.760   4.648  10.079 -0.9372  0.8150 -1.2469
  184SLPC   C2521129   3.838   4.654   9.884 -0.4032 -0.2372 -0.1359
  184SLPC   H5R21130   3.778   4.744   9.857  1.6816  1.0908 -0.4823
  184SLPC   H5S21131   3.780   4.570   9.840 -0.6823 -0.1601  0.0869
  184SLPC   C2621132   3.969   4.662   9.802 -0.2336  0.0576 -0.2470
  184SLPC   H6R21133   3.972   4.597   9.712  0.0999 -0.1591 -0.0793
  184SLPC   H6S21134   4.048   4.633   9.874  1.2718  2.2191 -0.9785
  184SLPC   C2721135   3.999   4.801   9.759  0.0878  0.0715 -0.0171
  184SLPC   H7R21136   4.106   4.804   9.729  0.4373 -0.3166  1.1843
  184SLPC   H7S21137   3.976   4.868   9.844  1.9046  0.4763  0.1848
  184SLPC   C2821138   3.935   4.841   9.624  0.0152 -0.6190 -0.5944
  184SLPC   H8R21139   3.825   4.830   9.635 -0.2165  0.9911 -1.1445
  184SLPC   H8S21140   3.963   4.765   9.549 -0.4778 -1.8917  0.4958
  184SLPC   C2921141   3.979   4.978   9.589 -0.2344 -0.2764  0.6123
  184SLPC   H9R21142   4.025   5.030   9.675 -0.0769  0.6148  0.0007
  184SLPC  C21021143   3.995   5.029   9.465  0.1512  0.4670  0.4601
  184SLPC  H10R21144   4.022   5.136   9.456  0.7024  0.1608 -2.0375
  184SLPC  C21121145   3.967   4.957   9.333  0.8894 -0.1437  0.2514
  184SLPC  H11R21146   3.857   4.957   9.316  0.6699 -0.3454  1.6403
  184SLPC  H11S21147   3.994   4.850   9.349  1.1258  0.0228  1.0048
  184SLPC  C21221148   4.032   5.020   9.206  0.6461 -0.4580 -0.2810
  184SLPC  H12R21149   4.036   5.130   9.214  1.2975 -0.4740 -0.3034
  184SLPC  C21321150   4.081   4.966   9.091  0.1910 -0.0936 -0.5016
  184SLPC  H13R21151   4.126   5.026   9.010  1.4535  0.5905  0.6939
  184SLPC  C21421152   4.068   4.821   9.060  0.2538 -0.0702  0.3857
  184SLPC  H14R21153   3.982   4.777   9.114 -1.1122  1.5411 -0.4262
  184SLPC  H14S21154   4.164   4.765   9.062 -0.2304 -0.8780  1.2090
  184SLPC  C21521155   4.026   4.803   8.914 -0.1939  0.2684 -0.3156
  184SLPC  H15R21156   4.100   4.856   8.850 -0.1879  1.3991  0.5950
  184SLPC  H15S21157   3.922   4.836   8.893 -1.2612 -2.3440  0.6864
  184SLPC  C21621158   4.014   4.655   8.880 -0.1854 -0.6142  0.8679
  184SLPC  H16R21159   3.931   4.602   8.933 -0.6908 -1.0181 -0.3108
  184SLPC  H16S21160   4.100   4.595   8.915  0.2610 -0.2292  0.4272
  184SLPC  C21721161   4.010   4.633   8.733  0.0433  0.1281 -0.3860
  184SLPC  H17R21162   4.002   4.523   8.713  3.0113  0.0845 -1.5661
  184SLPC  H17S21163   4.097   4.669   8.674  0.8642 -0.1087  0.6708
  184SLPC  C21821164   3.892   4.699   8.667  0.9389  0.3682  0.5071
  184SLPC  H18R21165   3.882   4.807   8.688  2.2405  0.6981 -0.4877
  184SLPC  H18S21166   3.797   4.654   8.704  0.3582 -0.3886 -1.7805
  184SLPC  H18T21167   3.903   4.693   8.556  3.3920  1.4982  0.6795
  184SLPC   C3321168   3.498   4.362   9.966  0.0027 -0.4603  1.1570
  184SLPC   H3X21169   3.528   4.271  10.022  0.3088 -1.4327 -0.5472
  184SLPC   H3Y21170   3.587   4.429   9.963  1.4103 -2.3819 -2.3013
  184SLPC   C3421171   3.469   4.325   9.818 -0.7045 -0.5436  0.3736
  184SLPC   H4X21172   3.563   4.311   9.760 -0.7301 -1.6289  0.5999
  184SLPC   H4Y21173   3.420   4.409   9.763  2.3156  0.1907 -1.3115
  184SLPC   C3521174   3.368   4.210   9.807  0.5935 -0.2416  0.5682
  184SLPC   H5X21175   3.284   4.240   9.873 -0.5875 -0.3704 -0.8379
  184SLPC   H5Y21176   3.396   4.110   9.846  0.5256  0.2433  1.8849
  184SLPC   C3621177   3.319   4.186   9.662 -0.5919 -0.3408  0.3198
  184SLPC   H6X21178   3.291   4.280   9.609 -0.0260  0.5434  1.5480
  184SLPC   H6Y21179   3.230   4.120   9.668 -1.6428  1.1172  1.2330
  184SLPC   C3721180   3.417   4.099   9.578 -0.2534 -0.4191 -0.0715
  184SLPC   H7X21181   3.417   4.003   9.634 -5.2756 -0.2066  0.5144
  184SLPC   H7Y21182   3.518   4.144   9.564 -0.2687 -0.0118  1.0368
  184SLPC   C3821183   3.362   4.090   9.439  0.2883 -0.1604  0.5073
  184SLPC   H8X21184   3.357   4.192   9.395  2.9643 -0.3228 -0.2233
  184SLPC   H8Y21185   3.255   4.060   9.433  0.1809  0.6288 -2.4346
  184SLPC   C3921186   3.452   4.000   9.351 -0.4154 -0.3883  0.1833
  184SLPC   H9X21187   3.455   3.897   9.393 -0.7984 -0.7930 -0.7787
  184SLPC   H9Y21188   3.554   4.041   9.365 -1.2435  1.9000 -0.2954
  184SLPC  C31021189   3.418   4.003   9.196 -0.6046 -0.1290 -0.0423
  184SLPC  H10X21190   3.396   4.105   9.156 -3.0494 -1.2892 -1.7777
  184SLPC  H10Y21191   3.319   3.956   9.179 -1.6026  2.3647 -1.5014
  184SLPC  C31121192   3.520   3.924   9.116 -0.3737 -0.4785 -0.5787
  184SLPC  H11X21193   3.517   3.820   9.157  0.5161  0.2852  1.5114
  184SLPC  H11Y21194   3.619   3.972   9.134 -0.1571 -0.4223 -1.9178
  184SLPC  C31221195   3.494   3.921   8.966 -0.4622 -0.2773  0.3959
  184SLPC  H12X21196   3.583   3.887   8.910  0.6807  1.0628  1.3664
  184SLPC  H12Y21197   3.464   4.019   8.923  0.4151  1.0450  2.6915
  184SLPC  C31321198   3.391   3.816   8.924  0.0397  0.1531 -0.0302
  184SLPC  H13X21199   3.291   3.851   8.956  0.4520  0.9178  0.4230
  184SLPC  H13Y21200   3.405   3.721   8.981 -0.2267 -1.6683 -2.8623
  184SLPC  C31421201   3.386   3.797   8.769 -0.1919 -0.8950  0.1312
  184SLPC  H14X21202   3.482   3.752   8.735 -0.1486 -2.4922  2.2486
  184SLPC  H14Y21203   3.384   3.899   8.724 -1.9464  0.2774  2.6903
  184SLPC  C31521204   3.264   3.725   8.724 -0.1913 -0.1128 -0.1743
  184SLPC  H15X21205   3.180   3.797   8.728 -0.5364 -0.5627  1.0352
  184SLPC  H15Y21206   3.232   3.657   8.806 -0.1180 -3.1405 -2.5525
  184SLPC  C31621207   3.297   3.642   8.604  0.3523  0.3937 -1.0355
  184SLPC  H16X21208   3.386   3.581   8.631 -0.4483 -0.2505  0.2043
  184SLPC  H16Y21209   3.329   3.702   8.516  0.7797  0.9775 -0.4920
  184SLPC  C31721210   3.184   3.556   8.551 -0.3551 -0.4621 -0.7438
  184SLPC  H17X21211   3.144   3.497   8.636 -1.0154 -0.5551 -1.1115
  184SLPC  H17Y21212   3.235   3.481   8.487  0.0911  0.7581 -1.8291
  184SLPC  C31821213   3.066   3.631   8.489 -0.6877  0.0033 -0.3946
  184SLPC  H18X21214   3.029   3.706   8.563  0.8638  0.5621 -0.1473
  184SLPC  H18Y21215   2.982   3.566   8.458 -0.7152 -1.3993  2.4588
  184SLPC  H18Z21216   3.099   3.682   8.396 -0.4090  1.0646  0.2738
  185SLPC     N21217   1.637   0.359   6.661  0.9036  0.8350  0.3793
  185SLPC   C1321218   1.525   0.269   6.622  0.2162  0.3153  0.1537
  185SLPC  H13A21219   1.525   0.179   6.681  0.4808  0.5837  0.5634
  185SLPC  H13B21220   1.431   0.321   6.634  0.2509  0.1376  1.2337
  185SLPC  H13C21221   1.530   0.243   6.517 -0.0283 -1.1319  0.5010
  185SLPC   C1421222   1.755   0.271   6.635 -0.5934 -0.0861  0.6672
  185SLPC  H14A21223   1.763   0.182   6.695  1.4861  0.0150  0.5725
  185SLPC  H14B21224   1.750   0.240   6.531 -2.1688  0.2168  0.6333
  185SLPC  H14C21225   1.844   0.331   6.642 -0.0971 -0.8464  0.9469
  185SLPC   C1521226   1.618   0.388   6.809 -0.4512  0.7951 -0.0609
  185SLPC  H15A21227   1.644   0.297   6.862 -2.3750 -0.4461 -1.1778
  185SLPC  H15B21228   1.689   0.462   6.842  0.0682  0.5354 -0.5751
  185SLPC  H15C21229   1.516   0.421   6.819 -0.4539  1.0361 -0.8086
  185SLPC   C1221230   1.639   0.491   6.582 -0.1338 -0.6693 -0.0829
  185SLPC  H12A21231   1.547   0.546   6.595  0.6797  0.3779  1.4138
  185SLPC  H12B21232   1.632   0.478   6.475  0.1657 -1.5478 -0.0020
  185SLPC   C1121233   1.747   0.600   6.612  0.4410  0.3119  0.0591
  185SLPC  H11A21234   1.837   0.537   6.631  0.7916  0.8503  0.1884
  185SLPC  H11B21235   1.705   0.650   6.702  1.0995 -1.9123  1.6646
  185SLPC     P21236   1.892   0.757   6.482  0.3151 -0.1073 -0.3293
  185SLPC   O1321237   2.006   0.660   6.453 -0.5249  0.1605  0.1947
  185SLPC   O1421238   1.870   0.867   6.385 -0.4579 -0.0472 -0.0307
  185SLPC   O1221239   1.760   0.685   6.503 -0.0730  0.3576  0.2002
  185SLPC   O1121240   1.912   0.821   6.622 -0.0118 -0.2729 -0.0010
  185SLPC    C121241   1.806   0.909   6.674  0.2073  0.2111 -0.2175
  185SLPC    HA21242   1.818   1.009   6.627  0.1711 -0.0411 -0.7642
  185SLPC    HB21243   1.702   0.877   6.655 -0.5202  2.3029  0.1613
  185SLPC    C221244   1.812   0.920   6.829  0.6700 -0.6085 -0.5760
  185SLPC    HS21245   1.911   0.960   6.858 -0.3341  2.4168 -1.1715
  185SLPC   O2121246   1.770   0.794   6.893 -0.0786 -0.1896  0.1794
  185SLPC   C2121247   1.847   0.743   6.986  0.5170  0.6290  0.8370
  185SLPC   O2221248   1.952   0.799   7.022  0.2029 -0.1263  0.4219
  185SLPC   C2221249   1.785   0.619   7.051 -1.0567  0.0999  0.6123
  185SLPC   H2R21250   1.680   0.632   7.083 -1.6208  2.4595 -2.0362
  185SLPC   H2S21251   1.787   0.546   6.967 -0.5640  1.4289 -0.5604
  185SLPC    C321252   1.712   1.031   6.869  0.6843 -0.5408 -0.1540
  185SLPC    HX21253   1.614   1.001   6.825  0.9581 -3.4565  1.1133
  185SLPC    HY21254   1.746   1.120   6.812  2.1860 -0.3591  1.0057
  185SLPC   O3121255   1.707   1.053   7.014  0.6506  0.3600  0.4505
  185SLPC   C3121256   1.809   1.126   7.057  0.7058 -0.4707 -0.4796
  185SLPC   O3221257   1.894   1.179   6.987  0.1111 -0.1116 -0.0567
  185SLPC   C3221258   1.815   1.135   7.212  0.2941  0.6382  0.5482
  185SLPC   H2X21259   1.903   1.074   7.242 -0.5492 -2.1843 -2.3757
  185SLPC   H2Y21260   1.742   1.078   7.273  1.0018 -0.6847  0.1933
  185SLPC   C2321261   1.876   0.563   7.165 -0.0785  0.2137 -0.3247
  185SLPC   H3R21262   1.983   0.559   7.135  0.7916 -0.3139  2.6544
  185SLPC   H3S21263   1.859   0.454   7.176  1.5787  0.0104  0.4506
  185SLPC   C2421264   1.855   0.633   7.292  1.1813 -0.2350  0.4091
  185SLPC   H4R21265   1.749   0.623   7.322 -0.1952  3.8754 -2.6691
  185SLPC   H4S21266   1.863   0.741   7.266  0.2921 -0.5454 -1.1793
  185SLPC   C2521267   1.953   0.614   7.404  0.1250 -0.2337 -0.2685
  185SLPC   H5R21268   2.048   0.665   7.378  1.2535 -2.8391 -1.4523
  185SLPC   H5S21269   1.974   0.505   7.415 -0.1464 -0.3593 -0.9647
  185SLPC   C2621270   1.898   0.661   7.536  0.5853 -0.4012  0.3379
  185SLPC   H6R21271   1.966   0.628   7.617  0.9544 -1.8348 -0.5383
  185SLPC   H6S21272   1.805   0.603   7.554  0.0616  0.6973  1.1810
  185SLPC   C2721273   1.865   0.811   7.538 -0.9827 -0.1719  0.1843
  185SLPC   H7R21274   1.778   0.834   7.474 -0.7690  0.0526 -0.0230
  185SLPC   H7S21275   1.949   0.873   7.500 -0.7104 -0.3484  0.4895
  185SLPC   C2821276   1.821   0.863   7.679  0.1855  0.4526  0.4235
  185SLPC   H8R21277   1.728   0.811   7.713  1.7402 -1.5106  1.7728
  185SLPC   H8S21278   1.779   0.965   7.663 -2.9591 -0.5368  1.9329
  185SLPC   C2921279   1.928   0.856   7.785  0.1346 -0.0865 -0.2253
  185SLPC   H9R21280   2.015   0.920   7.765 -0.5778 -0.1899 -3.9896
  185SLPC  C21021281   1.938   0.786   7.905  0.1831  0.1286  0.0149
  185SLPC  H10R21282   2.021   0.806   7.974 -0.5730 -0.9275  1.2682
  185SLPC  C21121283   1.833   0.692   7.967 -0.3032 -0.0521  0.1727
  185SLPC  H11R21284   1.740   0.695   7.907 -0.3936  0.7328  0.3478
  185SLPC  H11S21285   1.816   0.728   8.071  0.5638  0.4168  0.1522
  185SLPC  C21221286   1.871   0.537   7.963 -0.2604  0.0697  0.0410
  185SLPC  H12R21287   1.959   0.514   7.901  0.2775 -2.0597  1.5634
  185SLPC  C21321288   1.829   0.442   8.052  0.1703  0.5817  0.0485
  185SLPC  H13R21289   1.851   0.336   8.030  0.8308  0.6941  0.1604
  185SLPC  C21421290   1.727   0.466   8.158  0.2394 -0.3385 -0.4069
  185SLPC  H14R21291   1.626   0.462   8.113  1.2705 -1.1728 -2.6972
  185SLPC  H14S21292   1.721   0.568   8.202 -1.8751 -0.1567 -1.0745
  185SLPC  C21521293   1.750   0.372   8.282 -0.3556 -0.3233  0.2462
  185SLPC  H15R21294   1.856   0.359   8.315  0.1108  0.6589 -0.8345
  185SLPC  H15S21295   1.717   0.271   8.251  1.0278  0.4246 -4.0271
  185SLPC  C21621296   1.655   0.401   8.405 -0.3014 -0.1002 -0.9658
  185SLPC  H16R21297   1.549   0.418   8.378  0.0947  2.2520 -1.0994
  185SLPC  H16S21298   1.677   0.499   8.452 -1.1958  0.4661 -1.7156
  185SLPC  C21721299   1.658   0.297   8.510  0.0997 -1.2826 -0.0299
  185SLPC  H17R21300   1.764   0.288   8.542  0.0703 -0.4427  0.3032
  185SLPC  H17S21301   1.646   0.199   8.460 -3.2362 -0.0132 -1.8826
  185SLPC  C21821302   1.567   0.322   8.632  0.1695 -0.0076  0.1571
  185SLPC  H18R21303   1.557   0.430   8.651 -3.2511 -0.4024  0.9070
  185SLPC  H18S21304   1.600   0.279   8.729  1.6651  2.4149  0.7660
  185SLPC  H18T21305   1.466   0.286   8.603 -0.2298 -0.8641  2.4983
  185SLPC   C3321306   1.830   1.282   7.257  0.1718 -0.8461 -0.2384
  185SLPC   H3X21307   1.736   1.341   7.245  1.8299  2.5219  2.5558
  185SLPC   H3Y21308   1.894   1.333   7.182  0.4938  0.3255  0.8222
  185SLPC   C3421309   1.876   1.305   7.401 -0.7392  0.2326  0.4166
  185SLPC   H4X21310   1.790   1.277   7.465 -1.4999 -2.2145 -1.5957
  185SLPC   H4Y21311   1.908   1.411   7.403 -3.7055  1.1426  1.7900
  185SLPC   C3521312   2.002   1.229   7.450  0.8165 -0.2481 -0.1758
  185SLPC   H5X21313   2.069   1.219   7.362 -0.7871  0.0387 -1.4564
  185SLPC   H5Y21314   1.964   1.130   7.485 -0.0964  0.1678  0.0201
  185SLPC   C3621315   2.087   1.307   7.557  0.3754 -0.4255 -0.4456
  185SLPC   H6X21316   2.122   1.406   7.518  1.3473 -1.3161 -1.8938
  185SLPC   H6Y21317   2.178   1.246   7.570 -0.4533 -2.0058 -1.9376
  185SLPC   C3721318   2.010   1.329   7.694 -0.7866  0.4878  0.4505
  185SLPC   H7X21319   1.914   1.382   7.673 -0.5475  0.6703 -0.2040
  185SLPC   H7Y21320   2.078   1.403   7.742 -0.8307  0.2293  0.9175
  185SLPC   C3821321   2.007   1.208   7.787  0.1532 -0.3145  0.5088
  185SLPC   H8X21322   2.112   1.177   7.771 -0.5600 -2.1044 -0.8879
  185SLPC   H8Y21323   1.926   1.139   7.755 -0.6280 -1.1390  4.0241
  185SLPC   C3921324   1.986   1.258   7.935  0.4687  0.1370 -0.6231
  185SLPC   H9X21325   1.885   1.299   7.954  1.6328  1.9230  2.0517
  185SLPC   H9Y21326   2.067   1.333   7.947 -0.0652  0.4128  1.4003
  185SLPC  C31021327   2.009   1.134   8.033  0.3721  0.4571  0.1976
  185SLPC  H10X21328   2.109   1.089   8.016  0.0276 -1.2272  2.4068
  185SLPC  H10Y21329   1.932   1.062   7.997 -0.5164  1.0706  0.8703
  185SLPC  C31121330   1.990   1.181   8.181 -0.5270 -0.2638  0.0270
  185SLPC  H11X21331   1.887   1.215   8.202  0.0612  1.7270 -0.2193
  185SLPC  H11Y21332   2.046   1.277   8.184  1.9309 -1.6086 -1.1989
  185SLPC  C31221333   2.055   1.085   8.284  0.8199  0.5703  0.3566
  185SLPC  H12X21334   2.054   1.131   8.386  1.2994 -0.3457  0.7776
  185SLPC  H12Y21335   2.163   1.080   8.256  0.9582  4.3914 -0.1026
  185SLPC  C31321336   1.983   0.955   8.302 -0.2740  0.2728  0.2890
  185SLPC  H13X21337   1.961   0.915   8.200 -0.2329  2.5637 -0.6438
  185SLPC  H13Y21338   1.887   0.975   8.355 -0.2642 -2.6062  1.4729
  185SLPC  C31421339   2.062   0.842   8.380  0.1633 -0.0100 -0.0557
  185SLPC  H14X21340   2.069   0.867   8.489 -0.8354 -2.0426  0.5008
  185SLPC  H14Y21341   2.169   0.845   8.350  0.0699  2.5555 -0.2105
  185SLPC  C31521342   2.012   0.700   8.363 -0.1098 -0.0678  0.1218
  185SLPC  H15X21343   2.007   0.686   8.253 -0.7297 -0.5780  0.2146
  185SLPC  H15Y21344   1.912   0.691   8.411 -1.2649  0.3610 -2.1143
  185SLPC  C31621345   2.099   0.583   8.416  0.0750 -0.2214  0.1871
  185SLPC  H16X21346   2.202   0.588   8.374 -1.1236 -0.3923 -2.9092
  185SLPC  H16Y21347   2.040   0.499   8.373  2.4994 -0.4906 -2.8125
  185SLPC  C31721348   2.093   0.573   8.568  0.7013  0.2782 -0.3522
  185SLPC  H17X21349   1.994   0.589   8.616  0.9926 -1.0808  0.7236
  185SLPC  H17Y21350   2.161   0.651   8.609 -1.8745  1.5416  1.6682
  185SLPC  C31821351   2.151   0.434   8.606 -0.0592 -0.1056  0.2421
  185SLPC  H18X21352   2.257   0.425   8.575  0.3577  2.4569  0.8804
  185SLPC  H18Y21353   2.086   0.355   8.561 -2.7006  1.9103  0.3742
  185SLPC  H18Z21354   2.144   0.407   8.714  2.1532  0.4701  0.5548
  186SLPC     N21355   2.022   3.590   5.907  0.3385 -0.2253 -0.3396
  186SLPC   C1321356   2.149   3.607   5.832  0.4982  0.0148 -0.2859
  186SLPC  H13A21357   2.133   3.567   5.732 -0.0886  0.5028 -0.3929
  186SLPC  H13B21358   2.173   3.712   5.832  0.7871 -0.0411 -1.0853
  186SLPC  H13C21359   2.231   3.555   5.878  1.4335  0.4451 -1.4256
  186SLPC   C1421360   2.000   3.441   5.941  0.2082  0.3434  0.0204
  186SLPC  H14A21361   2.080   3.412   6.008  2.9359  4.4049 -1.2596
  186SLPC  H14B21362   1.905   3.419   5.989 -0.9716 -1.5167 -3.0351
  186SLPC  H14C21363   1.996   3.376   5.856 -0.9587  0.7405 -0.2466
  186SLPC   C1521364   1.905   3.633   5.824  0.3028  0.7223 -0.0531
  186SLPC  H15A21365   1.903   3.738   5.800  2.0859  0.9522  0.7390
  186SLPC  H15B21366   1.901   3.589   5.725 -1.8475  2.3364 -0.7012
  186SLPC  H15C21367   1.812   3.607   5.873  0.4757  1.7345  0.8265
  186SLPC   C1221368   2.021   3.674   6.040  0.4033 -0.4380  0.4292
  186SLPC  H12A21369   1.923   3.659   6.081  0.0699  0.2714 -0.0995
  186SLPC  H12B21370   2.025   3.777   6.010  0.0398 -0.7093 -0.6052
  186SLPC   C1121371   2.139   3.652   6.130  0.2887  0.5208  1.0578
  186SLPC  H11A21372   2.118   3.741   6.193 -0.3999  0.0235  1.5364
  186SLPC  H11B21373   2.236   3.665   6.076 -0.1944 -1.4006 -0.3204
  186SLPC     P21374   2.015   3.495   6.298 -0.0279  0.0091  0.1579
  186SLPC   O1321375   1.886   3.555   6.261  0.5374 -0.1488  0.2732
  186SLPC   O1421376   2.008   3.348   6.286  0.0301  0.7357  0.0845
  186SLPC   O1221377   2.140   3.535   6.208  0.0888  0.5446 -0.5036
  186SLPC   O1121378   2.052   3.544   6.439  0.2828 -0.0390  0.4319
  186SLPC    C121379   2.174   3.615   6.475 -0.0097 -1.1370  0.1411
  186SLPC    HA21380   2.263   3.569   6.427 -0.6481  0.4902 -2.7758
  186SLPC    HB21381   2.169   3.715   6.425  1.8404  0.1062  2.3730
  186SLPC    C221382   2.191   3.623   6.632  0.0668  0.9066  0.4477
  186SLPC    HS21383   2.269   3.697   6.660  0.6497  0.6255 -0.4094
  186SLPC   O2121384   2.213   3.489   6.686 -0.1754  0.2079  0.1752
  186SLPC   C2121385   2.340   3.463   6.690 -0.3865  0.4856 -0.4805
  186SLPC   O2221386   2.431   3.528   6.639 -0.5304  0.2883  0.0995
  186SLPC   C2221387   2.356   3.341   6.778  0.4905  0.6371 -0.1538
  186SLPC   H2R21388   2.260   3.285   6.767  0.0890  0.8163  2.1611
  186SLPC   H2S21389   2.436   3.280   6.732 -0.5448  0.1731 -1.3736
  186SLPC    C321390   2.062   3.689   6.697 -0.0115  0.4715 -0.1112
  186SLPC    HX21391   1.978   3.616   6.689  1.6933 -1.3110 -2.3163
  186SLPC    HY21392   2.024   3.769   6.629  0.5573 -0.6905 -1.8403
  186SLPC   O3121393   2.084   3.735   6.833  0.2552  0.1974 -0.0188
  186SLPC   C3121394   1.976   3.742   6.909  0.2073  0.1550 -0.7887
  186SLPC   O3221395   1.860   3.715   6.886  0.3865  0.2746  0.3223
  186SLPC   C3221396   2.018   3.799   7.047 -0.0057  0.1401 -0.4290
  186SLPC   H2X21397   2.036   3.906   7.022  2.0150  0.3590  1.7975
  186SLPC   H2Y21398   2.110   3.755   7.090 -0.2198 -0.0059 -0.1175
  186SLPC   C2321399   2.405   3.387   6.918  0.0916  0.4254 -0.8886
  186SLPC   H3R21400   2.482   3.466   6.902  0.5334 -0.3099 -2.5059
  186SLPC   H3S21401   2.449   3.302   6.974 -0.8168  0.9210  0.6036
  186SLPC   C2421402   2.284   3.427   7.007 -0.4406  0.3517  0.4334
  186SLPC   H4R21403   2.220   3.339   7.031 -3.4139  2.5391  0.7823
  186SLPC   H4S21404   2.222   3.514   6.978 -0.6949  1.3134  3.6351
  186SLPC   C2521405   2.340   3.461   7.148 -0.5538  0.1009 -0.5076
  186SLPC   H5R21406   2.430   3.525   7.134  2.7571 -3.8263  1.5823
  186SLPC   H5S21407   2.390   3.366   7.177  1.7897  1.6791  0.8060
  186SLPC   C2621408   2.239   3.504   7.253 -0.1650  0.1288 -0.0182
  186SLPC   H6R21409   2.194   3.594   7.207 -2.1238  0.7346  2.9368
  186SLPC   H6S21410   2.296   3.547   7.337 -1.0154  1.2634 -0.0093
  186SLPC   C2721411   2.145   3.407   7.309  0.0976  0.4016  0.2849
  186SLPC   H7R21412   2.199   3.312   7.331 -3.4225 -1.6761  0.2795
  186SLPC   H7S21413   2.071   3.382   7.231  1.4610  1.6103 -1.4372
  186SLPC   C2821414   2.081   3.457   7.435 -0.7725 -0.9498  0.6233
  186SLPC   H8R21415   2.057   3.564   7.416  0.3158 -0.9238 -0.7079
  186SLPC   H8S21416   2.162   3.444   7.510 -0.9424 -1.0020  0.7977
  186SLPC   C2921417   1.966   3.377   7.488 -0.2006 -0.3443  1.1613
  186SLPC   H9R21418   1.931   3.294   7.425 -1.6638 -0.0749  1.6011
  186SLPC  C21021419   1.906   3.388   7.613 -0.1722  0.0124  0.0938
  186SLPC  H10R21420   1.822   3.322   7.636 -1.0515  1.0132 -0.2319
  186SLPC  C21121421   1.939   3.485   7.723  0.3018  0.0730 -0.3317
  186SLPC  H11R21422   1.961   3.583   7.673  2.9906 -0.2763  0.0963
  186SLPC  H11S21423   2.029   3.451   7.777 -1.3102  0.1498  2.4934
  186SLPC  C21221424   1.825   3.513   7.821  0.1877 -0.5716  0.0187
  186SLPC  H12R21425   1.724   3.514   7.778  1.6520 -0.9544 -3.5370
  186SLPC  C21321426   1.839   3.521   7.957  0.2953 -0.8092 -0.6875
  186SLPC  H13R21427   1.746   3.553   8.006  0.5988 -0.9881  0.0107
  186SLPC  C21421428   1.962   3.512   8.037  0.1065  0.3215 -0.0152
  186SLPC  H14R21429   1.971   3.590   8.115 -1.8409 -0.5950  1.1782
  186SLPC  H14S21430   2.058   3.528   7.983  0.0228  1.6637  0.2210
  186SLPC  C21521431   1.985   3.371   8.105  1.2480  0.0800  0.3074
  186SLPC  H15R21432   1.977   3.294   8.024  0.3719  0.9517 -0.4489
  186SLPC  H15S21433   1.907   3.351   8.182 -0.4216 -1.1066 -1.6100
  186SLPC  C21621434   2.114   3.386   8.187 -0.0836 -0.5978  0.1193
  186SLPC  H16R21435   2.101   3.462   8.267  0.4176 -0.2524 -0.1282
  186SLPC  H16S21436   2.193   3.416   8.115 -0.4477  0.4601  0.1543
  186SLPC  C21721437   2.169   3.253   8.250  0.2861  0.4201  0.2777
  186SLPC  H17R21438   2.220   3.187   8.178 -0.6891  0.6809 -0.6566
  186SLPC  H17S21439   2.086   3.190   8.288 -0.5458  0.1394 -1.9477
  186SLPC  C21821440   2.260   3.288   8.372 -0.2564  0.0142  0.5444
  186SLPC  H18R21441   2.341   3.360   8.348  0.7510 -0.8507  1.2947
  186SLPC  H18S21442   2.296   3.192   8.415  0.7548 -0.1100 -0.5931
  186SLPC  H18T21443   2.194   3.333   8.450 -1.4098 -1.4235  0.4197
  186SLPC   C3321444   1.901   3.804   7.154  0.5982 -0.0770 -0.1159
  186SLPC   H3X21445   1.863   3.702   7.172  0.6412  0.3715  2.7757
  186SLPC   H3Y21446   1.822   3.877   7.124 -2.1949 -3.0965 -0.3097
  186SLPC   C3421447   1.970   3.846   7.284 -0.1808 -0.9633 -0.2477
  186SLPC   H4X21448   2.008   3.947   7.259 -1.5282 -0.1430  0.9075
  186SLPC   H4Y21449   2.061   3.789   7.314 -0.6087 -1.7904 -0.4915
  186SLPC   C3521450   1.862   3.854   7.402 -0.4104  0.3539  0.0540
  186SLPC   H5X21451   1.811   3.755   7.408 -0.2378  0.2800  0.3475
  186SLPC   H5Y21452   1.791   3.935   7.377 -2.1033 -1.1782 -0.2046
  186SLPC   C3621453   1.931   3.863   7.535 -0.1301  0.2078 -0.7487
  186SLPC   H6X21454   2.010   3.940   7.543  0.6481 -0.8211  1.7564
  186SLPC   H6Y21455   1.991   3.770   7.546 -1.4843 -0.2083  3.8488
  186SLPC   C3721456   1.840   3.868   7.655 -0.2051  0.2154 -0.6469
  186SLPC   H7X21457   1.775   3.780   7.641  0.5556 -0.9275  2.5525
  186SLPC   H7Y21458   1.773   3.955   7.641 -1.8005 -0.5400  2.0334
  186SLPC   C3821459   1.918   3.886   7.785  0.0230  0.2153 -0.3920
  186SLPC   H8X21460   1.989   3.972   7.785  0.7456 -0.3476  1.8143
  186SLPC   H8Y21461   1.983   3.798   7.806 -2.3477 -0.8443  3.0314
  186SLPC   C3921462   1.820   3.897   7.906 -0.3451  0.2521  0.4992
  186SLPC   H9X21463   1.770   3.798   7.909  0.9327 -0.6513 -4.2064
  186SLPC   H9Y21464   1.740   3.974   7.902 -0.6605 -0.0943  0.1823
  186SLPC  C31021465   1.884   3.918   8.044 -0.3790  0.1547 -0.0463
  186SLPC  H10X21466   1.928   4.020   8.047 -0.3853  0.1158  2.7254
  186SLPC  H10Y21467   1.968   3.847   8.064 -0.8138 -0.5141 -0.5819
  186SLPC  C31121468   1.777   3.900   8.147 -0.3424  0.4256 -0.0680
  186SLPC  H11X21469   1.725   3.806   8.120  0.9910  0.1020 -1.5554
  186SLPC  H11Y21470   1.704   3.980   8.123 -0.1553  1.0028  1.2159
  186SLPC  C31221471   1.819   3.911   8.293 -0.4616  0.1638  0.3283
  186SLPC  H12X21472   1.731   3.937   8.355 -0.0666  2.8286 -0.1906
  186SLPC  H12Y21473   1.902   3.984   8.298  0.4461 -0.7732 -0.8491
  186SLPC  C31321474   1.885   3.782   8.348 -0.0386 -0.2405 -0.4253
  186SLPC  H13X21475   1.987   3.773   8.304  0.9227  1.0012  1.4682
  186SLPC  H13Y21476   1.838   3.689   8.309 -0.1624  0.1679 -1.2576
  186SLPC  C31421477   1.904   3.783   8.498 -0.2407 -0.2419  0.3169
  186SLPC  H14X21478   1.981   3.707   8.524 -0.4997 -0.1204  1.4877
  186SLPC  H14Y21479   1.821   3.757   8.568 -0.9662  0.1874 -0.3723
  186SLPC  C31521480   1.972   3.918   8.536 -0.5222  0.6143 -0.1274
  186SLPC  H15X21481   1.887   3.983   8.566 -1.1534 -0.3122  0.0849
  186SLPC  H15Y21482   2.034   3.967   8.457 -0.5762 -0.6997 -0.9969
  186SLPC  C31621483   2.073   3.900   8.658 -0.1073 -0.3390  0.6037
  186SLPC  H16X21484   2.161   3.848   8.614 -0.9936 -2.0237  0.7560
  186SLPC  H16Y21485   2.025   3.836   8.735 -0.3925 -0.1892  0.5521
  186SLPC  C31721486   2.127   4.031   8.718 -0.3428  0.2264  0.2350
  186SLPC  H17X21487   2.038   4.096   8.734 -0.2301 -0.1966  2.7239
  186SLPC  H17Y21488   2.192   4.088   8.648 -0.3212 -0.0038  0.0675
  186SLPC  C31821489   2.189   4.007   8.858 -0.2998  0.0201 -0.0912
  186SLPC  H18X21490   2.281   3.944   8.854  0.6125  1.1578  1.8729
  186SLPC  H18Y21491   2.118   3.945   8.916  0.5647  0.2965  1.2821
  186SLPC  H18Z21492   2.211   4.105   8.907 -0.3557 -0.1600  0.2929
  187SLPC     N21493   3.740   0.712   6.223  0.0467 -0.0404 -0.2037
  187SLPC   C1321494   3.724   0.615   6.115  0.7955  0.4882  0.4144
  187SLPC  H13A21495   3.697   0.642   6.014 -1.2935 -0.5901  0.6607
  187SLPC  H13B21496   3.809   0.548   6.104 -0.8660 -2.1670  2.9902
  187SLPC  H13C21497   3.641   0.551   6.143  0.5813  0.9257  0.7801
  187SLPC   C1421498   3.614   0.797   6.245 -0.9903 -0.0903  0.1126
  187SLPC  H14A21499   3.547   0.733   6.299 -1.0174 -1.6803 -1.7400
  187SLPC  H14B21500   3.630   0.894   6.290  0.1952 -0.2021 -0.0510
  187SLPC  H14C21501   3.571   0.815   6.148 -1.2812 -1.4142 -0.0126
  187SLPC   C1521502   3.852   0.806   6.174  0.7893 -0.0987 -0.7121
  187SLPC  H15A21503   3.855   0.890   6.241 -0.9123  0.8558 -1.8108
  187SLPC  H15B21504   3.945   0.750   6.177 -0.0334 -1.4477 -0.0822
  187SLPC  H15C21505   3.840   0.841   6.072  1.0226 -0.1568 -0.7606
  187SLPC   C1221506   3.788   0.651   6.355 -0.4797 -0.1738 -0.4596
  187SLPC  H12A21507   3.828   0.731   6.416  0.4487 -0.2133 -1.0120
  187SLPC  H12B21508   3.871   0.590   6.323  0.2853  0.2471  0.6846
  187SLPC   C1121509   3.690   0.566   6.434  0.1810  0.4898  0.1012
  187SLPC  H11A21510   3.611   0.627   6.482  0.2157  1.0128 -0.4946
  187SLPC  H11B21511   3.735   0.528   6.528  2.8756 -2.1532 -2.1430
  187SLPC     P21512   3.703   0.323   6.352  0.3786 -0.1454 -0.2891
  187SLPC   O1321513   3.650   0.224   6.252  0.6385  0.4023  0.2789
  187SLPC   O1421514   3.849   0.348   6.352 -0.0891  0.2739 -0.0607
  187SLPC   O1221515   3.634   0.464   6.345  0.9761  0.1937  0.4022
  187SLPC   O1121516   3.655   0.270   6.493 -0.2090  0.5299 -0.1671
  187SLPC    C121517   3.527   0.298   6.544 -0.0203 -0.0873 -0.3462
  187SLPC    HA21518   3.448   0.332   6.474 -1.8811 -0.5580  1.4821
  187SLPC    HB21519   3.483   0.198   6.567  1.0560 -0.3538  0.6220
  187SLPC    C221520   3.532   0.358   6.682  0.0580 -0.2763  0.2585
  187SLPC    HS21521   3.466   0.306   6.754  1.6516  0.3942  2.2528
  187SLPC   O2121522   3.484   0.494   6.681  0.3396  0.5534 -0.3571
  187SLPC   C2121523   3.397   0.536   6.763 -0.3698  0.8290  0.2766
  187SLPC   O2221524   3.358   0.473   6.863 -0.0709 -0.0781  0.0414
  187SLPC   C2221525   3.368   0.679   6.740 -0.3999  0.4657  1.3983
  187SLPC   H2R21526   3.439   0.729   6.671  0.2017 -2.0456  0.1384
  187SLPC   H2S21527   3.265   0.678   6.698 -0.3722 -2.3448  1.2644
  187SLPC    C321528   3.677   0.346   6.740 -0.7093  0.6100 -0.5934
  187SLPC    HX21529   3.761   0.393   6.685  0.4689 -1.2773 -0.4579
  187SLPC    HY21530   3.704   0.240   6.717 -2.8380  0.3488 -2.0255
  187SLPC   O3121531   3.677   0.383   6.885 -0.1520  0.0231 -0.2197
  187SLPC   C3121532   3.655   0.283   6.969  0.2189 -0.2699 -0.0831
  187SLPC   O3221533   3.651   0.168   6.937 -0.4107  0.0778 -0.8052
  187SLPC   C3221534   3.642   0.342   7.112 -0.2349 -0.2003 -0.3867
  187SLPC   H2X21535   3.561   0.417   7.102  2.1039  2.3783 -0.4298
  187SLPC   H2Y21536   3.743   0.383   7.134  0.2598 -2.5368  1.9774
  187SLPC   C2321537   3.352   0.755   6.875  0.6415  0.4483  1.0783
  187SLPC   H3R21538   3.263   0.711   6.924 -1.9880  3.0686 -1.1968
  187SLPC   H3S21539   3.317   0.855   6.841 -2.6767 -1.0539 -0.0167
  187SLPC   C2421540   3.476   0.764   6.954  1.0387  0.7022 -0.2720
  187SLPC   H4R21541   3.540   0.846   6.914 -0.1866  1.2792 -1.0643
  187SLPC   H4S21542   3.546   0.678   6.963  0.8740  0.8460  2.7477
  187SLPC   C2521543   3.444   0.806   7.104  0.0907 -0.0566 -0.0643
  187SLPC   H5R21544   3.393   0.904   7.103  0.0174 -0.0834  0.7527
  187SLPC   H5S21545   3.541   0.827   7.154  0.6981  0.7139 -1.5343
  187SLPC   C2621546   3.374   0.689   7.177  0.3527  0.1040  0.1793
  187SLPC   H6R21547   3.413   0.590   7.146  0.8459  0.2714  0.2737
  187SLPC   H6S21548   3.266   0.679   7.152 -0.3676  0.9192  2.7481
  187SLPC   C2721549   3.393   0.693   7.330  0.7594  0.0379  0.2715
  187SLPC   H7R21550   3.353   0.787   7.375 -2.1476 -1.3269  0.6323
  187SLPC   H7S21551   3.500   0.682   7.359  0.8468  0.7073  0.2258
  187SLPC   C2821552   3.305   0.578   7.396  0.0597 -0.2034  0.4196
  187SLPC   H8R21553   3.323   0.577   7.506 -2.1314  1.6724  0.8459
  187SLPC   H8S21554   3.333   0.481   7.349 -0.1359  0.5065 -1.1967
  187SLPC   C2921555   3.158   0.598   7.372  0.0671 -0.3510 -0.1219
  187SLPC   H9R21556   3.137   0.581   7.266 -0.2851  0.9371 -0.2742
  187SLPC  C21021557   3.058   0.621   7.462  0.0618 -0.0999 -0.0438
  187SLPC  H10R21558   2.950   0.631   7.439 -0.5570  1.2559  3.2271
  187SLPC  C21121559   3.075   0.614   7.607 -0.3606 -0.8594  0.3722
  187SLPC  H11R21560   3.173   0.654   7.639 -0.6625 -0.1192  0.3791
  187SLPC  H11S21561   3.072   0.508   7.640  2.4902 -0.5638  1.6542
  187SLPC  C21221562   2.974   0.692   7.685  0.0320 -0.5139  0.8725
  187SLPC  H12R21563   2.911   0.757   7.624  1.0461  1.6302  2.0372
  187SLPC  C21321564   2.971   0.702   7.822  0.7650  0.1017  0.0457
  187SLPC  H13R21565   2.900   0.770   7.872  0.3393 -0.3755  0.0912
  187SLPC  C21421566   3.078   0.632   7.904  0.4489  0.6945 -0.3738
  187SLPC  H14R21567   3.154   0.704   7.938  0.4824 -0.7051  2.6359
  187SLPC  H14S21568   3.139   0.557   7.849  2.3920  3.0671 -1.5452
  187SLPC  C21521569   3.020   0.588   8.041 -0.1326  0.2511  0.5375
  187SLPC  H15R21570   2.963   0.495   8.019  0.0259  0.4786 -0.8938
  187SLPC  H15S21571   2.954   0.656   8.098  1.2431  2.5843 -0.5634
  187SLPC  C21621572   3.138   0.554   8.139  0.5532 -0.2182  0.1550
  187SLPC  H16R21573   3.188   0.651   8.160  2.0982 -1.1377  0.8659
  187SLPC  H16S21574   3.203   0.475   8.096 -0.7677 -0.6749 -1.0134
  187SLPC  C21721575   3.104   0.494   8.278  0.0498  0.5039 -0.7362
  187SLPC  H17R21576   3.082   0.386   8.277  2.6416 -0.0505 -2.0319
  187SLPC  H17S21577   3.010   0.548   8.303 -0.3335  0.1501 -1.4079
  187SLPC  C21821578   3.198   0.519   8.390  0.6828 -0.3095 -0.1385
  187SLPC  H18R21579   3.215   0.627   8.409 -3.9872  0.4073  0.6405
  187SLPC  H18S21580   3.299   0.475   8.377  0.5868 -1.4892  2.5995
  187SLPC  H18T21581   3.148   0.484   8.484 -1.2108  1.7421 -0.3443
  187SLPC   C3321582   3.615   0.239   7.224 -0.7436  0.5400  0.7884
  187SLPC   H3X21583   3.686   0.154   7.216 -3.0832 -1.5530  1.5111
  187SLPC   H3Y21584   3.517   0.195   7.196  0.3354 -0.4956 -1.5427
  187SLPC   C3421585   3.635   0.297   7.365  0.0402  0.1414  0.1826
  187SLPC   H4X21586   3.564   0.380   7.389  0.0788  0.5130 -0.9466
  187SLPC   H4Y21587   3.741   0.332   7.361  0.2505 -0.6596 -1.4879
  187SLPC   C3521588   3.621   0.185   7.472 -0.4497  0.0254  0.1140
  187SLPC   H5X21589   3.678   0.096   7.436 -1.3950  0.5386 -2.7741
  187SLPC   H5Y21590   3.512   0.164   7.476 -0.1620 -1.5283  0.4592
  187SLPC   C3621591   3.667   0.239   7.613 -0.5679  0.0012  0.0382
  187SLPC   H6X21592   3.757   0.299   7.589 -0.4670 -0.1820 -0.0461
  187SLPC   H6Y21593   3.702   0.148   7.668 -2.4261 -1.0406 -0.4549
  187SLPC   C3721594   3.582   0.339   7.690 -0.0847  0.2942 -0.3419
  187SLPC   H7X21595   3.552   0.426   7.628  0.2078 -0.4696 -1.5749
  187SLPC   H7Y21596   3.489   0.291   7.728  0.6341 -0.4689  0.4977
  187SLPC   C3821597   3.663   0.404   7.803  0.1544  0.3033 -0.2222
  187SLPC   H8X21598   3.761   0.444   7.767  1.8609 -3.0447  0.5044
  187SLPC   H8Y21599   3.700   0.331   7.878 -0.2822 -0.0914 -0.3960
  187SLPC   C3921600   3.592   0.519   7.887  0.5996 -0.0637 -0.1691
  187SLPC   H9X21601   3.561   0.599   7.816 -2.2338 -0.0919  0.9878
  187SLPC   H9Y21602   3.674   0.563   7.948  0.5108  0.8456 -0.6818
  187SLPC  C31021603   3.475   0.482   7.972 -0.3945 -0.2182  0.4870
  187SLPC  H10X21604   3.401   0.432   7.907 -0.9558 -0.6769  1.4595
  187SLPC  H10Y21605   3.431   0.573   8.018  0.5495  0.1355  0.7101
  187SLPC  C31121606   3.513   0.386   8.089 -0.0787  0.4655  0.6508
  187SLPC  H11X21607   3.549   0.290   8.047  0.3942  0.2079  1.6120
  187SLPC  H11Y21608   3.414   0.364   8.133 -0.4726 -2.7354 -1.6664
  187SLPC  C31221609   3.616   0.431   8.196  0.0053 -0.5343  0.1040
  187SLPC  H12X21610   3.712   0.439   8.140 -2.1975 -3.5074 -4.3887
  187SLPC  H12Y21611   3.625   0.356   8.277 -0.1049 -0.9147 -0.2349
  187SLPC  C31321612   3.588   0.561   8.253  0.2331  0.9769  0.2362
  187SLPC  H13X21613   3.512   0.553   8.334  0.2170 -0.3747  0.0945
  187SLPC  H13Y21614   3.541   0.630   8.180  1.3688  2.2223  0.6715
  187SLPC  C31421615   3.724   0.630   8.313  0.6278 -0.4163  0.6096
  187SLPC  H14X21616   3.776   0.647   8.217  0.1318 -0.3569  0.3517
  187SLPC  H14Y21617   3.782   0.557   8.373  0.4206 -0.6508  0.5228
  187SLPC  C31521618   3.693   0.751   8.399  0.3535 -0.2057  0.3576
  187SLPC  H15X21619   3.794   0.772   8.441  1.7817 -1.2048 -2.4619
  187SLPC  H15Y21620   3.619   0.723   8.478  0.8833  0.8387  1.2320
  187SLPC  C31621621   3.674   0.875   8.313  0.8962  0.2908  0.0725
  187SLPC  H16X21622   3.575   0.867   8.262  1.2126 -1.3043 -0.3186
  187SLPC  H16Y21623   3.757   0.887   8.241  0.7735  1.5331  0.1351
  187SLPC  C31721624   3.669   1.015   8.383  1.3446 -1.1191  0.6623
  187SLPC  H17X21625   3.738   1.014   8.470  2.2944 -0.1864 -0.0714
  187SLPC  H17Y21626   3.572   1.013   8.436  2.5180 -0.1531  2.9082
  187SLPC  C31821627   3.684   1.143   8.295 -0.0384  0.3517  0.5426
  187SLPC  H18X21628   3.685   1.231   8.363  3.2698 -1.7770  3.4559
  187SLPC  H18Y21629   3.608   1.150   8.214  0.3334  2.1143  0.3227
  187SLPC  H18Z21630   3.781   1.136   8.240 -1.3581 -0.5669 -1.7080
  188SLPC     N21631   3.870   2.179   6.198  0.4134 -0.3326  1.2603
  188SLPC   C1321632   3.826   2.113   6.323  0.0514  0.2800  0.3340
  188SLPC  H13A21633   3.868   2.014   6.329  0.4781  0.4882  0.8031
  188SLPC  H13B21634   3.853   2.173   6.409 -0.6364 -0.0834  0.8046
  188SLPC  H13C21635   3.719   2.112   6.334  0.2516 -0.5074  2.4395
  188SLPC   C1421636   3.810   2.321   6.186  0.3840 -0.5885  0.5884
  188SLPC  H14A21637   3.702   2.317   6.192  0.2872  0.9468 -0.0132
  188SLPC  H14B21638   3.856   2.385   6.259  1.1532  0.4548 -0.7746
  188SLPC  H14C21639   3.846   2.370   6.097 -2.0159 -0.9344 -0.6296
  188SLPC   C1521640   3.825   2.093   6.079 -0.4218  0.0924 -0.6170
  188SLPC  H15A21641   3.718   2.083   6.070 -0.2206 -2.6120 -0.4520
  188SLPC  H15B21642   3.861   2.124   5.982 -0.8469  1.0906 -0.4549
  188SLPC  H15C21643   3.850   1.988   6.088 -1.3334 -0.3556 -2.9354
  188SLPC   C1221644   4.021   2.190   6.208  0.0627  0.5513  0.1493
  188SLPC  H12A21645   4.060   2.217   6.111  3.2624 -1.2868  0.8413
  188SLPC  H12B21646   4.056   2.092   6.235 -0.9827  0.2671  0.5061
  188SLPC   C1121647   4.089   2.288   6.311  0.6118  0.3567 -0.1814
  188SLPC  H11A21648   4.035   2.384   6.307  2.0834  1.1848 -0.4435
  188SLPC  H11B21649   4.195   2.307   6.285  0.5690 -0.9511 -1.3828
  188SLPC     P21650   4.145   2.123   6.518  0.1853 -0.0629  0.1676
  188SLPC   O1321651   4.185   2.007   6.432  0.3149 -1.1500 -0.0650
  188SLPC   O1421652   4.250   2.174   6.604 -0.2906 -0.1122  0.5035
  188SLPC   O1221653   4.072   2.236   6.443  0.3506  0.3542 -0.0616
  188SLPC   O1121654   4.033   2.069   6.615 -0.6370 -0.0169 -0.1217
  188SLPC    C121655   3.972   2.147   6.713  0.1464 -0.3565 -0.7284
  188SLPC    HA21656   4.005   2.254   6.709 -0.7820 -0.0200  0.4099
  188SLPC    HB21657   3.861   2.146   6.710  0.1450  1.5846 -3.4841
  188SLPC    C221658   4.008   2.096   6.860  0.4641  0.1976  0.3419
  188SLPC    HS21659   3.956   2.156   6.937 -1.5039 -1.0871  0.0476
  188SLPC   O2121660   4.140   2.118   6.889  0.1774 -0.2892 -0.7085
  188SLPC   C2121661   4.179   2.245   6.922 -0.3536  0.6207  0.6087
  188SLPC   O2221662   4.105   2.339   6.940  0.3639 -0.1724 -0.0923
  188SLPC   C2221663   4.332   2.247   6.927 -0.0282  0.5996  0.4816
  188SLPC   H2R21664   4.369   2.160   6.986 -0.6952 -0.6475 -0.9292
  188SLPC   H2S21665   4.366   2.212   6.827 -0.7857 -1.0881  0.8060
  188SLPC    C321666   3.988   1.950   6.883 -0.6246  0.0321  0.4114
  188SLPC    HX21667   4.064   1.877   6.847 -1.4587 -1.0546  0.8192
  188SLPC    HY21668   3.899   1.910   6.830  1.1928  0.0798 -2.8335
  188SLPC   O3121669   3.969   1.920   7.022 -0.2572  0.3841  0.0958
  188SLPC   C3121670   4.086   1.891   7.082  0.8120 -0.4189 -0.0863
  188SLPC   O3221671   4.190   1.858   7.032 -0.2619  0.7550 -0.4018
  188SLPC   C3221672   4.070   1.892   7.238  1.8738  0.1540 -0.6713
  188SLPC   H2X21673   4.108   1.796   7.279 -0.8177 -0.0620  1.4726
  188SLPC   H2Y21674   3.966   1.904   7.276  2.3262  0.9802  0.3565
  188SLPC   C2321675   4.395   2.380   6.968  0.3113 -0.1569 -0.6515
  188SLPC   H3R21676   4.340   2.461   6.914  0.5078 -0.1570 -0.8508
  188SLPC   H3S21677   4.496   2.378   6.923  0.9428 -3.7582  0.7665
  188SLPC   C2421678   4.417   2.404   7.118  0.3282  0.6556  0.2458
  188SLPC   H4R21679   4.457   2.505   7.141  1.7718 -0.0049  0.7306
  188SLPC   H4S21680   4.504   2.343   7.151  0.9508  2.1244  1.3723
  188SLPC   C2521681   4.281   2.387   7.195  0.6146 -0.3993  0.4189
  188SLPC   H5R21682   4.240   2.285   7.182 -0.4423  0.1088 -0.2872
  188SLPC   H5S21683   4.206   2.457   7.152  1.6444  2.7124  3.4111
  188SLPC   C2621684   4.289   2.427   7.344  0.3945  0.1902 -0.2255
  188SLPC   H6R21685   4.196   2.392   7.396 -0.1021 -0.6513 -1.6584
  188SLPC   H6S21686   4.291   2.538   7.348 -0.5734  0.1635  3.3045
  188SLPC   C2721687   4.415   2.381   7.414 -0.3304 -0.1143 -0.5783
  188SLPC   H7R21688   4.510   2.407   7.362  0.9723  1.5574  2.5123
  188SLPC   H7S21689   4.428   2.273   7.393 -0.7077 -0.8172  2.4870
  188SLPC   C2821690   4.409   2.416   7.564 -0.1602 -0.3728 -0.0953
  188SLPC   H8R21691   4.370   2.519   7.573 -0.6761 -0.5276 -0.5220
  188SLPC   H8S21692   4.509   2.410   7.612 -0.0368  0.1176 -0.2851
  188SLPC   C2921693   4.321   2.321   7.641 -0.0540  0.5778  0.1975
  188SLPC   H9R21694   4.257   2.259   7.577 -2.0680 -0.3270  2.9945
  188SLPC  C21021695   4.295   2.320   7.777  0.2198 -0.0310  0.2558
  188SLPC  H10R21696   4.209   2.260   7.810 -0.6538  2.2480  2.2577
  188SLPC  C21121697   4.363   2.422   7.871 -0.2091  0.7811  0.4165
  188SLPC  H11R21698   4.440   2.486   7.822 -0.3959 -0.2801 -1.2923
  188SLPC  H11S21699   4.399   2.371   7.963 -1.8089  1.4612  1.4490
  188SLPC  C21221700   4.263   2.523   7.930 -0.3053  0.3649 -0.1280
  188SLPC  H12R21701   4.165   2.530   7.880 -1.3343 -0.1909  1.7479
  188SLPC  C21321702   4.296   2.618   8.020  0.1459  0.5480  0.1518
  188SLPC  H13R21703   4.211   2.678   8.055 -0.0106  1.2141 -1.3364
  188SLPC  C21421704   4.438   2.653   8.074  0.1002  0.3064 -0.1383
  188SLPC  H14R21705   4.464   2.760   8.058 -1.7158  0.7014 -0.5345
  188SLPC  H14S21706   4.515   2.598   8.015 -0.6264  1.0366 -1.7976
  188SLPC  C21521707   4.462   2.603   8.224 -0.6230  0.4660  0.0503
  188SLPC  H15R21708   4.565   2.620   8.262 -0.3264 -2.1457  0.5466
  188SLPC  H15S21709   4.447   2.493   8.223 -2.5918  0.7202 -1.2454
  188SLPC  C21621710   4.381   2.684   8.330  0.1814 -0.0263 -0.6245
  188SLPC  H16R21711   4.275   2.662   8.307 -0.1625 -0.0191  0.9113
  188SLPC  H16S21712   4.413   2.790   8.327 -1.5570  0.5220 -0.3005
  188SLPC  C21721713   4.419   2.625   8.476 -0.3776 -0.1536  0.4486
  188SLPC  H17R21714   4.370   2.696   8.545 -1.6811 -3.0285  2.5622
  188SLPC  H17S21715   4.530   2.623   8.485 -0.2571  0.6526 -0.7473
  188SLPC  C21821716   4.363   2.488   8.510 -0.1993  0.1382  0.1681
  188SLPC  H18R21717   4.393   2.407   8.440  0.8029 -0.6471  1.4891
  188SLPC  H18S21718   4.252   2.484   8.503 -0.3519 -2.2378  2.7274
  188SLPC  H18T21719   4.394   2.457   8.612  2.3538  3.1347  0.3456
  188SLPC   C3321720   4.154   2.005   7.309  1.1666  0.3526 -0.1984
  188SLPC   H3X21721   4.119   2.093   7.251  0.0580  0.0539  0.0047
  188SLPC   H3Y21722   4.260   1.992   7.279  1.3306 -1.5914  1.1423
  188SLPC   C3421723   4.138   2.019   7.455 -0.2364  0.1883  0.3082
  188SLPC   H4X21724   4.229   2.060   7.504 -0.0524 -0.5237  0.5847
  188SLPC   H4Y21725   4.108   1.918   7.491 -2.9147  0.6315 -0.5983
  188SLPC   C3521726   4.024   2.122   7.487 -0.6432 -0.3873 -0.1670
  188SLPC   H5X21727   3.929   2.086   7.442 -0.3451 -1.2511 -0.1119
  188SLPC   H5Y21728   4.038   2.219   7.434 -0.6611  0.5522  1.5003
  188SLPC   C3621729   3.982   2.143   7.634 -0.0806  0.3712  0.5559
  188SLPC   H6X21730   3.944   2.245   7.655  0.0373  0.4175  0.5495
  188SLPC   H6Y21731   4.073   2.126   7.697 -1.8829 -0.5425  2.9799
  188SLPC   C3721732   3.890   2.031   7.686  0.4546 -0.5534 -0.8477
  188SLPC   H7X21733   3.918   1.933   7.643 -0.3094 -0.6997 -1.0180
  188SLPC   H7Y21734   3.786   2.047   7.651 -0.4948 -2.4509  0.9717
  188SLPC   C3821735   3.890   2.017   7.839  0.0468 -0.6628  0.3987
  188SLPC   H8X21736   3.994   2.019   7.878  1.0276  0.4658 -2.1435
  188SLPC   H8Y21737   3.848   1.916   7.862 -0.6641  0.0172  2.1842
  188SLPC   C3921738   3.816   2.137   7.901  0.0421 -0.2963  0.0148
  188SLPC   H9X21739   3.711   2.139   7.863  0.0740  2.6766 -0.0404
  188SLPC   H9Y21740   3.854   2.237   7.872 -1.0766  0.5938  1.5049
  188SLPC  C31021741   3.805   2.118   8.054  0.3256 -0.2322 -0.3132
  188SLPC  H10X21742   3.751   2.021   8.067  0.2861 -0.2124 -0.3300
  188SLPC  H10Y21743   3.742   2.201   8.093  0.2751 -0.5365  0.2520
  188SLPC  C31121744   3.933   2.105   8.134  0.2498 -0.4715 -0.2011
  188SLPC  H11X21745   3.988   2.011   8.111  1.0197  0.3486 -1.7434
  188SLPC  H11Y21746   3.903   2.097   8.241 -1.3541  1.5940 -0.4720
  188SLPC  C31221747   4.017   2.234   8.131  0.3976  0.5594  0.0393
  188SLPC  H12X21748   3.947   2.319   8.138 -2.0806 -0.9873 -4.1268
  188SLPC  H12Y21749   4.075   2.243   8.036 -0.1473  2.5188 -0.1277
  188SLPC  C31321750   4.129   2.240   8.238  0.2246 -0.2597  0.0227
  188SLPC  H13X21751   4.103   2.201   8.339  1.4598  0.8634  0.7855
  188SLPC  H13Y21752   4.176   2.338   8.261 -0.4457  0.3029 -1.0095
  188SLPC  C31421753   4.247   2.150   8.201 -0.2673  0.6459  0.0275
  188SLPC  H14X21754   4.287   2.163   8.098 -0.2490 -2.2268 -0.3696
  188SLPC  H14Y21755   4.211   2.044   8.205  1.6663 -0.1830 -3.1390
  188SLPC  C31521756   4.369   2.158   8.292  0.2766 -0.2446  0.4762
  188SLPC  H15X21757   4.395   2.265   8.283  2.0115 -0.6701  0.1983
  188SLPC  H15Y21758   4.451   2.103   8.241  0.7351  1.6130 -0.8078
  188SLPC  C31621759   4.345   2.119   8.435 -0.0736 -0.3786  0.0120
  188SLPC  H16X21760   4.276   2.184   8.494 -0.5817  0.6134 -1.6562
  188SLPC  H16Y21761   4.438   2.135   8.493 -0.4738 -1.3349  0.9225
  188SLPC  C31721762   4.319   1.968   8.461 -0.6068  0.5832  0.1246
  188SLPC  H17X21763   4.382   1.905   8.394  0.7208  0.8486  1.1005
  188SLPC  H17Y21764   4.217   1.944   8.425 -0.1094 -0.4492 -0.6408
  188SLPC  C31821765   4.335   1.912   8.599  0.1215  0.0606 -0.2613
  188SLPC  H18X21766   4.277   1.817   8.603 -0.0965  0.1532 -1.0893
  188SLPC  H18Y21767   4.294   1.985   8.673  0.0019 -2.3924  2.1847
  188SLPC  H18Z21768   4.440   1.904   8.633  0.1011  0.5694 -0.0688
  189SLPC     N21769   6.035   3.795   6.022 -0.0042  0.0991  0.0454
  189SLPC   C1321770   6.040   3.649   5.989  0.2104 -0.1230 -1.1352
  189SLPC  H13A21771   5.955   3.635   5.924 -1.2017  1.6174  0.3031
  189SLPC  H13B21772   6.134   3.615   5.948  1.0668 -0.5753  1.1199
  189SLPC  H13C21773   6.009   3.579   6.065 -2.2739  0.3608 -1.6888
  189SLPC   C1421774   6.036   3.862   5.888  0.6746  0.3846  0.3353
  189SLPC  H14A21775   5.947   3.829   5.836 -0.0068 -0.4059  1.9866
  189SLPC  H14B21776   6.027   3.968   5.908 -0.0029  0.1728  1.1307
  189SLPC  H14C21777   6.125   3.843   5.829 -0.0166  0.4744 -0.7472
  189SLPC   C1521778   6.162   3.835   6.093 -0.3461  0.2936  0.4365
  189SLPC  H15A21779   6.180   3.793   6.191 -1.0213 -1.2994 -0.1205
  189SLPC  H15B21780   6.240   3.794   6.031  0.5916  1.8707  0.5441
  189SLPC  H15C21781   6.176   3.942   6.090 -2.0540  0.4976 -1.5070
  189SLPC   C1221782   5.907   3.829   6.093 -0.5526  0.2932 -0.1616
  189SLPC  H12A21783   5.820   3.830   6.030 -0.4826 -1.4647 -0.2980
  189SLPC  H12B21784   5.917   3.932   6.126 -2.4275  0.6117 -0.5423
  189SLPC   C1121785   5.863   3.741   6.212  0.7969  1.0447  0.4064
  189SLPC  H11A21786   5.837   3.640   6.173  0.3233  1.3247 -0.0166
  189SLPC  H11B21787   5.772   3.770   6.268  0.4734 -1.6026  1.3276
  189SLPC     P21788   6.016   3.605   6.370 -0.2097 -0.3807 -0.4021
  189SLPC   O1321789   5.910   3.499   6.368  0.4260  0.0431  0.4196
  189SLPC   O1421790   6.143   3.567   6.311 -1.1187  0.1466  0.2725
  189SLPC   O1221791   5.962   3.740   6.312 -0.0133 -0.0644 -0.1600
  189SLPC   O1121792   6.034   3.650   6.521 -0.4212 -0.3588  0.3148
  189SLPC    C121793   5.933   3.725   6.585  0.5157 -0.9355  0.3270
  189SLPC    HA21794   5.976   3.823   6.615  2.5695 -1.7002 -0.0831
  189SLPC    HB21795   5.839   3.745   6.529 -0.7058  1.1355  2.9791
  189SLPC    C221796   5.900   3.672   6.726 -0.3604 -0.2007  0.2757
  189SLPC    HS21797   5.833   3.737   6.787 -1.1188 -1.4182  0.7630
  189SLPC   O2121798   6.016   3.653   6.805 -0.5147  0.4553 -0.4552
  189SLPC   C2121799   6.069   3.766   6.852 -0.3026  0.2717  0.4526
  189SLPC   O2221800   6.023   3.878   6.828  0.7217 -0.0009  0.3201
  189SLPC   C2221801   6.183   3.751   6.942  0.2614 -0.1776 -0.1017
  189SLPC   H2R21802   6.269   3.736   6.873 -1.0626 -3.2086 -1.1746
  189SLPC   H2S21803   6.206   3.840   7.005 -1.0113  1.1438 -1.4590
  189SLPC    C321804   5.840   3.533   6.711  0.6947  0.4529  0.4192
  189SLPC    HX21805   5.905   3.470   6.646  2.6897  0.2924  2.5052
  189SLPC    HY21806   5.745   3.550   6.656  1.1928 -1.5957 -1.1275
  189SLPC   O3121807   5.807   3.465   6.836 -0.7185  0.8899  0.0044
  189SLPC   C3121808   5.701   3.510   6.902  0.2942  0.1895 -0.6650
  189SLPC   O3221809   5.632   3.598   6.857 -0.0038  0.1732  0.0686
  189SLPC   C3221810   5.670   3.431   7.028 -0.6573  0.1448 -0.0121
  189SLPC   H2X21811   5.766   3.392   7.068 -0.5512  0.4608  0.0414
  189SLPC   H2Y21812   5.616   3.338   6.999 -1.3279  0.0488  1.5317
  189SLPC   C2321813   6.173   3.632   7.033  0.3191  0.0718 -0.6166
  189SLPC   H3R21814   6.275   3.614   7.073  0.4598  0.4988 -0.7713
  189SLPC   H3S21815   6.147   3.540   6.977 -0.7903 -0.6969  1.1064
  189SLPC   C2421816   6.069   3.640   7.147 -0.3534 -0.7327  0.2538
  189SLPC   H4R21817   5.962   3.653   7.119  0.3019  1.3076 -1.4564
  189SLPC   H4S21818   6.100   3.728   7.206 -0.3829 -1.7735  1.8316
  189SLPC   C2521819   6.088   3.511   7.236 -0.8257 -0.3434  0.1011
  189SLPC   H5R21820   6.191   3.502   7.276  0.2868  0.1731 -2.5193
  189SLPC   H5S21821   6.060   3.422   7.177  0.1274  1.1312 -2.6895
  189SLPC   C2621822   6.009   3.524   7.367 -0.0209 -0.0296 -0.7033
  189SLPC   H6R21823   5.902   3.541   7.342 -0.1691 -0.1436 -0.1669
  189SLPC   H6S21824   6.039   3.619   7.417  0.3621 -0.1997 -0.6161
  189SLPC   C2721825   6.027   3.407   7.453 -0.0860 -0.0120 -0.5463
  189SLPC   H7R21826   6.134   3.389   7.475  0.9649  2.7020 -3.1040
  189SLPC   H7S21827   5.981   3.317   7.406 -0.2273 -0.3948  0.3169
  189SLPC   C2821828   5.965   3.422   7.595 -1.1124 -0.1254  0.3113
  189SLPC   H8R21829   5.857   3.447   7.600 -1.1805 -0.6651  1.7321
  189SLPC   H8S21830   6.022   3.504   7.642 -1.4818  0.5127 -0.3420
  189SLPC   C2921831   5.969   3.298   7.683 -0.2700  0.1594 -0.0694
  189SLPC   H9R21832   5.986   3.206   7.625  3.0636  0.1259  0.8365
  189SLPC  C21021833   5.962   3.292   7.820 -0.2393  0.0262  0.1651
  189SLPC  H10R21834   5.977   3.193   7.865  1.0154  0.3711  0.5135
  189SLPC  C21121835   5.936   3.412   7.909  0.0474  0.3567  0.8371
  189SLPC  H11R21836   5.838   3.393   7.957 -0.4109  1.2557  0.2673
  189SLPC  H11S21837   5.928   3.508   7.853 -2.5178  1.0528  2.2996
  189SLPC  C21221838   6.039   3.423   8.026 -0.1879 -0.0789  0.0405
  189SLPC  H12R21839   6.137   3.467   8.002 -1.2220  3.4921  1.9585
  189SLPC  C21321840   6.032   3.389   8.156  0.0894  0.1339  0.1799
  189SLPC  H13R21841   6.120   3.401   8.222  0.5785  0.9430 -0.6025
  189SLPC  C21421842   5.903   3.339   8.219 -0.1687  0.9827 -0.0992
  189SLPC  H14R21843   5.902   3.228   8.207 -1.8757  0.7809  1.5561
  189SLPC  H14S21844   5.812   3.386   8.176 -0.2395 -0.9024 -2.1338
  189SLPC  C21521845   5.868   3.365   8.368  0.9170 -0.4935  0.2477
  189SLPC  H15R21846   5.771   3.317   8.391 -0.1222  0.4707 -1.9995
  189SLPC  H15S21847   5.845   3.470   8.397 -0.2087 -0.7110  0.1762
  189SLPC  C21621848   5.972   3.315   8.470 -0.2170  0.1601 -0.2326
  189SLPC  H16R21849   5.948   3.350   8.572  1.7225 -0.5866  0.5010
  189SLPC  H16S21850   6.074   3.349   8.445  0.7342 -2.1889  0.3263
  189SLPC  C21721851   5.979   3.162   8.471  0.7361  0.6365  1.6215
  189SLPC  H17R21852   6.026   3.134   8.374  0.1483  0.9479  1.2474
  189SLPC  H17S21853   5.880   3.112   8.480  0.9816 -0.0307  0.6635
  189SLPC  C21821854   6.058   3.094   8.581  0.0253 -0.1145  0.2596
  189SLPC  H18R21855   5.998   3.051   8.664  0.8956  1.8181  1.9246
  189SLPC  H18S21856   6.128   3.171   8.619 -0.1204  0.6592 -1.0430
  189SLPC  H18T21857   6.128   3.012   8.553  1.2615  0.2602  2.1537
  189SLPC   C3321858   5.620   3.521   7.141 -0.0459 -0.7913  1.1907
  189SLPC   H3X21859   5.520   3.568   7.127  0.6745  0.1448 -1.0058
  189SLPC   H3Y21860   5.701   3.596   7.153  0.2206 -0.4156 -2.3668
  189SLPC   C3421861   5.614   3.449   7.281 -0.3970 -0.5407 -0.4598
  189SLPC   H4X21862   5.715   3.406   7.301  0.1637  1.1190  0.4048
  189SLPC   H4Y21863   5.535   3.371   7.277  0.6289 -1.6963  1.1032
  189SLPC   C3521864   5.572   3.550   7.394  0.6155 -0.1897  0.5122
  189SLPC   H5X21865   5.487   3.615   7.365 -0.0240 -1.4518 -0.5189
  189SLPC   H5Y21866   5.663   3.611   7.411  1.5271 -1.5859  0.6759
  189SLPC   C3621867   5.540   3.475   7.521 -0.2268  0.9063  0.4696
  189SLPC   H6X21868   5.607   3.387   7.520 -0.8161  0.4588 -1.7186
  189SLPC   H6Y21869   5.434   3.442   7.517 -0.0411  0.4956 -1.5972
  189SLPC   C3721870   5.562   3.563   7.649  0.4207 -0.0337  0.0840
  189SLPC   H7X21871   5.489   3.645   7.634 -1.8419 -2.1627 -0.9138
  189SLPC   H7Y21872   5.667   3.601   7.648 -0.2713  2.0027 -2.4789
  189SLPC   C3821873   5.530   3.485   7.774 -0.0381  0.6957  0.2059
  189SLPC   H8X21874   5.579   3.386   7.778 -0.9149  0.3342  2.9689
  189SLPC   H8Y21875   5.421   3.471   7.790  0.1088 -1.1419 -0.3497
  189SLPC   C3921876   5.584   3.575   7.887  0.7007  0.0495 -1.3860
  189SLPC   H9X21877   5.537   3.675   7.879  1.0818  0.2275 -1.3671
  189SLPC   H9Y21878   5.693   3.596   7.878  0.7644  0.2876 -0.1491
  189SLPC  C31021879   5.540   3.525   8.030  1.1959  0.0068 -0.0112
  189SLPC  H10X21880   5.533   3.414   8.036 -1.7968  0.2504  1.9975
  189SLPC  H10Y21881   5.437   3.560   8.050  0.4993 -1.1941 -1.3880
  189SLPC  C31121882   5.630   3.587   8.134 -0.4982 -0.5793 -0.5175
  189SLPC  H11X21883   5.627   3.693   8.100  2.6322 -0.4275 -0.4803
  189SLPC  H11Y21884   5.733   3.548   8.120  0.6672  2.5059 -0.9726
  189SLPC  C31221885   5.576   3.582   8.274 -0.6247  0.1687 -0.1205
  189SLPC  H12X21886   5.595   3.481   8.316 -0.3347  1.5605  3.3150
  189SLPC  H12Y21887   5.465   3.592   8.277 -0.8877 -2.3553 -0.2615
  189SLPC  C31321888   5.647   3.684   8.365 -0.0617  0.1613 -0.6188
  189SLPC  H13X21889   5.626   3.791   8.341  0.1697  0.8765  2.2675
  189SLPC  H13Y21890   5.755   3.679   8.338  0.2053 -0.1369  0.5116
  189SLPC  C31421891   5.631   3.656   8.523 -0.6481 -0.0844 -0.2276
  189SLPC  H14X21892   5.712   3.586   8.551 -0.0796  0.9229  0.6592
  189SLPC  H14Y21893   5.527   3.624   8.544  0.1142 -0.9662  2.2959
  189SLPC  C31521894   5.661   3.791   8.602  0.5021 -0.2557  0.1780
  189SLPC  H15X21895   5.599   3.871   8.556  2.9626  0.5248 -1.8830
  189SLPC  H15Y21896   5.770   3.812   8.601  0.3090  0.7560 -0.6079
  189SLPC  C31621897   5.622   3.781   8.746 -0.8208 -0.7690 -0.2089
  189SLPC  H16X21898   5.676   3.700   8.799  1.4275 -0.5157 -2.0603
  189SLPC  H16Y21899   5.514   3.761   8.765 -1.5660  1.4281 -1.9218
  189SLPC  C31721900   5.651   3.909   8.831 -0.0587  0.3101 -0.6726
  189SLPC  H17X21901   5.583   3.989   8.795 -0.9936  0.3841  1.2126
  189SLPC  H17Y21902   5.757   3.935   8.809  0.0881  1.8984  1.7183
  189SLPC  C31821903   5.645   3.885   8.982 -0.2774  0.1138 -0.0120
  189SLPC  H18X21904   5.680   3.975   9.037  1.6765  0.2161 -1.3711
  189SLPC  H18Y21905   5.714   3.804   9.013 -0.1361  0.3817  0.3716
  189SLPC  H18Z21906   5.543   3.853   9.011  0.6398 -1.0392  2.0515
  190SLPC     N21907   6.382   3.403   6.582 -0.5885  0.1303  0.0860
  190SLPC   C1321908   6.349   3.352   6.451  0.7352 -0.0468 -0.6972
  190SLPC  H13A21909   6.434   3.348   6.385  0.2552  1.2892 -1.4277
  190SLPC  H13B21910   6.316   3.249   6.455 -1.0209  0.4927 -0.7437
  190SLPC  H13C21911   6.274   3.405   6.394  0.9940 -1.3986 -2.3027
  190SLPC   C1421912   6.259   3.450   6.649  0.1461 -0.2284 -0.0206
  190SLPC  H14A21913   6.281   3.500   6.742  0.4165 -0.1771 -0.1124
  190SLPC  H14B21914   6.199   3.520   6.592 -0.1259 -0.7138 -0.3374
  190SLPC  H14C21915   6.194   3.365   6.665  0.9046 -0.9553 -0.7527
  190SLPC   C1521916   6.456   3.529   6.565 -0.1193  0.1788 -0.5804
  190SLPC  H15A21917   6.548   3.512   6.512  0.6444  3.1242 -0.2900
  190SLPC  H15B21918   6.413   3.608   6.505  3.2690  1.7504 -1.0582
  190SLPC  H15C21919   6.490   3.567   6.660 -0.8386  0.9777 -0.6387
  190SLPC   C1221920   6.463   3.307   6.671 -0.3469 -0.1807 -0.2833
  190SLPC  H12A21921   6.427   3.207   6.654  1.7677 -0.8952 -0.7927
  190SLPC  H12B21922   6.447   3.337   6.774  0.5743 -0.7945  0.0484
  190SLPC   C1121923   6.615   3.291   6.641 -0.5223 -0.0684 -0.2788
  190SLPC  H11A21924   6.658   3.230   6.723  0.4522 -0.2605 -0.9309
  190SLPC  H11B21925   6.672   3.386   6.641 -1.7156  0.7063  2.3325
  190SLPC     P21926   6.622   3.086   6.479  0.5591  0.3858  0.1131
  190SLPC   O1321927   6.604   3.089   6.328 -0.3126  0.5448  0.5415
  190SLPC   O1421928   6.740   3.019   6.532 -0.3059 -0.1520  0.1623
  190SLPC   O1221929   6.636   3.240   6.510  0.0989  0.1380  0.0135
  190SLPC   O1121930   6.498   3.036   6.556  0.2780  0.1126  0.6735
  190SLPC    C121931   6.452   2.901   6.549  0.9381  0.0705 -0.1282
  190SLPC    HA21932   6.411   2.884   6.446  1.3925 -1.3746 -0.0879
  190SLPC    HB21933   6.528   2.819   6.552  0.1691 -0.8063 -2.5359
  190SLPC    C221934   6.351   2.874   6.659 -0.1199  0.3047  0.0435
  190SLPC    HS21935   6.287   2.965   6.666 -2.8433 -1.5529 -0.1330
  190SLPC   O2121936   6.422   2.848   6.782  0.7660  0.3365  0.0145
  190SLPC   C2121937   6.461   2.950   6.849 -0.0847  0.4965 -0.5170
  190SLPC   O2221938   6.429   3.068   6.829  0.0141 -0.2401  0.1993
  190SLPC   C2221939   6.542   2.921   6.975  0.2506 -0.0254  0.3322
  190SLPC   H2R21940   6.619   2.851   6.935  0.6699  1.0755 -0.8167
  190SLPC   H2S21941   6.596   3.011   7.011  2.6016 -0.4408 -1.9743
  190SLPC    C321942   6.254   2.758   6.634  0.1498  0.4174  0.3810
  190SLPC    HX21943   6.309   2.661   6.644 -0.6400  0.2250  3.3048
  190SLPC    HY21944   6.221   2.777   6.530 -0.0209 -0.3503  0.2893
  190SLPC   O3121945   6.146   2.767   6.732  0.2631  0.6149 -0.7542
  190SLPC   C3121946   6.064   2.653   6.725  0.2883 -0.1577 -0.3699
  190SLPC   O3221947   6.072   2.570   6.639 -0.0843 -0.2421 -0.2609
  190SLPC   C3221948   5.971   2.645   6.841 -1.1233  0.4558  0.2426
  190SLPC   H2X21949   5.897   2.564   6.823 -0.7841 -0.3840  2.4562
  190SLPC   H2Y21950   5.914   2.740   6.830  1.6381  1.9223 -1.9801
  190SLPC   C2321951   6.475   2.845   7.086  0.3365  0.6038 -0.1903
  190SLPC   H3R21952   6.455   2.742   7.052  0.2633  0.8463 -0.8964
  190SLPC   H3S21953   6.381   2.898   7.112 -1.1722 -2.4369  0.7793
  190SLPC   C2421954   6.564   2.840   7.213 -0.1398 -0.9584  0.3197
  190SLPC   H4R21955   6.589   2.948   7.218  2.0950 -1.3257 -2.1834
  190SLPC   H4S21956   6.653   2.784   7.180  0.8919  0.4192  0.7059
  190SLPC   C2521957   6.496   2.783   7.336  0.1860  0.4208  0.7663
  190SLPC   H5R21958   6.457   2.685   7.302  0.6044  0.8310 -0.9426
  190SLPC   H5S21959   6.411   2.846   7.371  0.4412  0.5444  1.1678
  190SLPC   C2621960   6.589   2.789   7.455  0.0735  0.4976 -0.2233
  190SLPC   H6R21961   6.616   2.896   7.459  0.8128  0.3200 -0.4599
  190SLPC   H6S21962   6.669   2.719   7.425  0.1304  0.8781 -0.9566
  190SLPC   C2721963   6.520   2.753   7.593 -0.3999  0.1414 -0.1930
  190SLPC   H7R21964   6.493   2.646   7.585 -1.2128  0.4166 -1.3299
  190SLPC   H7S21965   6.427   2.812   7.607 -0.7326 -0.2213 -0.8292
  190SLPC   C2821966   6.607   2.758   7.722  0.1514 -0.2168  0.1876
  190SLPC   H8R21967   6.663   2.854   7.728  0.3075 -0.2342 -0.8327
  190SLPC   H8S21968   6.682   2.677   7.705  0.7798  0.1219  1.2968
  190SLPC   C2921969   6.522   2.732   7.839 -0.8632 -0.5284 -0.4049
  190SLPC   H9R21970   6.415   2.717   7.818 -0.7936 -1.5736 -0.0573
  190SLPC  C21021971   6.553   2.730   7.969  0.5417 -0.0436  0.5340
  190SLPC  H10R21972   6.470   2.730   8.042  1.2606 -0.1919  1.3491
  190SLPC  C21121973   6.693   2.760   8.028 -0.2137 -0.0042  0.3966
  190SLPC  H11R21974   6.758   2.797   7.946 -0.9161  1.2801  0.3958
  190SLPC  H11S21975   6.726   2.661   8.065  1.3208  0.1244 -0.5780
  190SLPC  C21221976   6.690   2.849   8.152  0.1654  0.0413 -0.0919
  190SLPC  H12R21977   6.665   2.790   8.241  0.2473 -1.2333 -0.9049
  190SLPC  C21321978   6.751   2.969   8.176 -0.1162 -0.1648 -0.8027
  190SLPC  H13R21979   6.732   3.019   8.272  1.3513  0.0409 -0.6127
  190SLPC  C21421980   6.822   3.053   8.069 -1.1109  0.0533  0.4324
  190SLPC  H14R21981   6.777   3.153   8.049  0.0966  0.6998  0.9061
  190SLPC  H14S21982   6.816   3.005   7.969 -0.8321 -1.4623  1.1402
  190SLPC  C21521983   6.977   3.075   8.107  0.0323 -0.5210  0.4888
  190SLPC  H15R21984   7.029   3.126   8.024 -0.8235  0.6176  0.6351
  190SLPC  H15S21985   7.025   2.975   8.113 -1.6218 -1.4241 -0.9569
  190SLPC  C21621986   7.003   3.152   8.237 -0.4664 -0.3454 -0.5941
  190SLPC  H16R21987   7.108   3.134   8.268 -0.1116 -0.7418 -2.0193
  190SLPC  H16S21988   6.931   3.100   8.305  1.2895 -2.3036 -0.1821
  190SLPC  C21721989   6.962   3.297   8.236 -0.3717  0.0717  1.0540
  190SLPC  H17R21990   6.860   3.304   8.193  0.1690  0.7598 -0.1638
  190SLPC  H17S21991   7.034   3.355   8.175  0.0278 -0.2242  1.2438
  190SLPC  C21821992   6.954   3.353   8.381 -0.4730 -0.2469  0.1165
  190SLPC  H18R21993   6.940   3.463   8.368  0.0915 -0.2232 -0.3410
  190SLPC  H18S21994   7.044   3.337   8.445 -0.2127 -1.0729 -0.4392
  190SLPC  H18T21995   6.866   3.316   8.436 -0.9584  0.1451 -0.3853
  190SLPC   C3321996   6.048   2.623   6.975  0.2929 -0.1553  0.7622
  190SLPC   H3X21997   5.972   2.618   7.055  3.1692  1.5177  3.6918
  190SLPC   H3Y21998   6.102   2.717   6.997  0.5002  0.0852 -0.7097
  190SLPC   C3421999   6.133   2.498   6.989  0.1952  0.4605  0.0045
  190SLPC   H4X22000   6.201   2.485   6.902  1.0302 -1.3170  0.8976
  190SLPC   H4Y22001   6.088   2.397   6.978  1.1525  0.1414 -1.0826
  190SLPC   C3522002   6.220   2.491   7.122  0.2552 -0.0805  0.3652
  190SLPC   H5X22003   6.275   2.587   7.132 -0.6180  0.5774 -0.9776
  190SLPC   H5Y22004   6.302   2.419   7.104  0.6468  0.6572 -0.8127
  190SLPC   C3622005   6.131   2.466   7.242  0.6513  0.0306  1.0185
  190SLPC   H6X22006   6.089   2.363   7.240  1.1572 -0.2455  3.0195
  190SLPC   H6Y22007   6.045   2.534   7.260 -0.1149 -0.5294 -0.4181
  190SLPC   C3722008   6.226   2.481   7.364  0.2203 -0.0345 -0.7404
  190SLPC   H7X22009   6.252   2.589   7.370 -0.9140  0.1862  0.2284
  190SLPC   H7Y22010   6.321   2.424   7.350  0.4456  0.1861 -0.1147
  190SLPC   C3822011   6.167   2.424   7.498 -0.7056 -0.4556 -0.2089
  190SLPC   H8X22012   6.137   2.317   7.498  0.6870 -0.8609 -0.2872
  190SLPC   H8Y22013   6.079   2.486   7.527 -0.5651  0.4345 -1.6529
  190SLPC   C3922014   6.256   2.442   7.617 -0.0874  0.2788 -0.5232
  190SLPC   H9X22015   6.272   2.550   7.637 -1.2039  0.1411  1.2176
  190SLPC   H9Y22016   6.357   2.399   7.598 -1.8043 -2.9692 -2.7968
  190SLPC  C31022017   6.206   2.379   7.738  0.2548  0.5843 -0.7632
  190SLPC  H10X22018   6.196   2.268   7.730 -3.3649  0.8915 -1.2214
  190SLPC  H10Y22019   6.098   2.406   7.738  0.2396  0.5910 -2.4190
  190SLPC  C31122020   6.282   2.416   7.866 -0.6016  0.0331 -0.3561
  190SLPC  H11X22021   6.251   2.521   7.884 -0.1994  0.1102 -0.1013
  190SLPC  H11Y22022   6.392   2.416   7.847 -0.3258  0.1787  1.1625
  190SLPC  C31222023   6.262   2.328   7.990  0.0484 -0.2480  0.0979
  190SLPC  H12X22024   6.310   2.230   7.972  2.0031  0.7745 -0.3996
  190SLPC  H12Y22025   6.159   2.290   8.003 -0.5586  0.7318 -1.7067
  190SLPC  C31322026   6.327   2.399   8.114 -0.1956 -0.9173 -0.2133
  190SLPC  H13X22027   6.278   2.495   8.142 -2.5868 -1.9018 -0.9543
  190SLPC  H13Y22028   6.435   2.411   8.090 -0.4095 -0.4953 -0.9733
  190SLPC  C31422029   6.339   2.295   8.230  0.5883  0.4551  0.1478
  190SLPC  H14X22030   6.240   2.271   8.275  0.4668  0.5207 -0.0789
  190SLPC  H14Y22031   6.395   2.346   8.311  0.5523  2.7709 -1.2271
  190SLPC  C31522032   6.413   2.157   8.209  0.3770 -0.4681 -0.6285
  190SLPC  H15X22033   6.477   2.174   8.119 -0.3529  0.2342 -1.0255
  190SLPC  H15Y22034   6.344   2.085   8.161  0.6107 -0.3179 -1.1962
  190SLPC  C31622035   6.496   2.108   8.329  0.2369  0.1619 -0.5597
  190SLPC  H16X22036   6.430   2.096   8.417  0.0828  2.4487 -0.3454
  190SLPC  H16Y22037   6.558   2.193   8.364 -1.8968  0.1169  3.7114
  190SLPC  C31722038   6.575   1.985   8.284 -0.7562  0.6107 -0.1437
  190SLPC  H17X22039   6.636   1.999   8.193  1.2048 -0.2824  1.0185
  190SLPC  H17Y22040   6.516   1.891   8.271  0.4215 -0.2293  0.5410
  190SLPC  C31822041   6.669   1.922   8.388  0.2543 -0.0093 -0.7003
  190SLPC  H18X22042   6.709   1.831   8.339  0.3791 -0.8221  0.8687
  190SLPC  H18Y22043   6.620   1.894   8.484  1.4664  0.5501  0.1067
  190SLPC  H18Z22044   6.754   1.987   8.419 -0.5649  0.2319  1.1104
  191SLPC     N22045   5.858   5.785   5.627  0.1213 -0.6308 -0.4430
  191SLPC   C1322046   5.731   5.826   5.564 -0.4457 -0.1678 -0.1118
  191SLPC  H13A22047   5.683   5.740   5.520 -0.2917 -0.8628  1.0611
  191SLPC  H13B22048   5.664   5.871   5.637  1.4962 -0.1893  1.7240
  191SLPC  H13C22049   5.754   5.894   5.484 -0.1350  0.0730  0.1855
  191SLPC   C1422050   5.942   5.913   5.652  0.2472  0.2001  0.2239
  191SLPC  H14A22051   6.044   5.882   5.671  0.3303  1.6458  2.3402
  191SLPC  H14B22052   5.954   5.972   5.563 -0.4561  3.2148  2.0840
  191SLPC  H14C22053   5.895   5.978   5.724  0.9065  0.8983  0.0316
  191SLPC   C1522054   5.935   5.691   5.537 -0.5401 -0.2308  0.1688
  191SLPC  H15A22055   5.986   5.745   5.459  0.6849  1.5599  2.1609
  191SLPC  H15B22056   6.006   5.647   5.605 -0.0792  1.7660  1.0275
  191SLPC  H15C22057   5.873   5.613   5.495 -0.7701  0.4485 -0.7688
  191SLPC   C1222058   5.824   5.720   5.763 -0.5571  0.2873  0.4640
  191SLPC  H12A22059   5.747   5.649   5.736  0.9284 -0.9626 -0.5662
  191SLPC  H12B22060   5.780   5.798   5.822  0.7551  1.2599  0.1667
  191SLPC   C1122061   5.939   5.654   5.837  0.3510  0.3198 -0.5297
  191SLPC  H11A22062   5.903   5.665   5.941 -0.1267 -0.3591 -0.6207
  191SLPC  H11B22063   6.028   5.720   5.845  1.6517 -1.7277  3.3204
  191SLPC     P22064   5.986   5.413   5.883  0.0908 -0.2691 -0.4400
  191SLPC   O1322065   5.973   5.282   5.807 -0.6894 -0.0010  0.3006
  191SLPC   O1422066   6.117   5.443   5.946 -0.2875  0.2664  0.0448
  191SLPC   O1222067   5.959   5.525   5.782 -0.4675  0.0927  0.1205
  191SLPC   O1122068   5.879   5.418   5.991 -0.1074  0.5735 -0.0407
  191SLPC    C122069   5.746   5.363   5.971 -0.4340 -0.1102 -0.4923
  191SLPC    HA22070   5.666   5.435   5.999 -1.0099 -1.0272  0.2398
  191SLPC    HB22071   5.711   5.339   5.868 -1.5190  0.9439 -0.3812
  191SLPC    C222072   5.729   5.241   6.063 -0.0958 -0.2228  0.7507
  191SLPC    HS22073   5.631   5.190   6.048  0.3525 -1.1989  1.0400
  191SLPC   O2122074   5.752   5.274   6.202  0.8340 -0.1822  0.4969
  191SLPC   C2122075   5.649   5.328   6.263  0.3792 -0.0565 -0.8022
  191SLPC   O2222076   5.549   5.376   6.218 -0.0117 -0.0301 -0.0072
  191SLPC   C2222077   5.679   5.341   6.415  0.0548 -0.4210 -0.3232
  191SLPC   H2R22078   5.759   5.419   6.412 -0.7458  0.3988 -0.7343
  191SLPC   H2S22079   5.588   5.381   6.465 -0.3426 -0.0553 -1.3389
  191SLPC    C322080   5.819   5.115   6.026  0.0866 -0.2002  0.5012
  191SLPC    HX22081   5.925   5.147   6.023  0.8579 -2.7360 -2.1643
  191SLPC    HY22082   5.794   5.089   5.921  0.0887 -2.0302  0.9414
  191SLPC   O3122083   5.779   5.005   6.111  0.1481  0.1644  0.3573
  191SLPC   C3122084   5.872   4.992   6.213  0.1147  0.4522 -0.1992
  191SLPC   O3222085   5.951   5.078   6.249  0.8659 -0.1058 -0.1981
  191SLPC   C3222086   5.848   4.857   6.273 -0.0452 -0.2431  0.1908
  191SLPC   H2X22087   5.928   4.793   6.232 -0.5030 -0.0746 -0.9897
  191SLPC   H2Y22088   5.749   4.823   6.234  0.6222  0.4708 -2.2328
  191SLPC   C2322089   5.733   5.212   6.480 -0.4716  0.8221  0.3425
  191SLPC   H3R22090   5.834   5.205   6.434 -0.0096  2.9393  0.9714
  191SLPC   H3S22091   5.667   5.130   6.444 -1.5798  0.8050  2.3409
  191SLPC   C2422092   5.741   5.207   6.638 -0.2689 -0.6369 -0.2983
  191SLPC   H4R22093   5.789   5.116   6.678 -0.7974 -0.8394 -0.1174
  191SLPC   H4S22094   5.635   5.200   6.670 -0.5195 -0.0955 -0.9899
  191SLPC   C2522095   5.805   5.329   6.702 -0.2877 -0.9428  0.5112
  191SLPC   H5R22096   5.756   5.419   6.661  0.4757 -0.2648  1.0593
  191SLPC   H5S22097   5.910   5.344   6.668 -0.0175 -0.3764  1.5671
  191SLPC   C2622098   5.795   5.313   6.858  1.0585 -0.5652  0.0027
  191SLPC   H6R22099   5.695   5.283   6.895  0.8313 -1.9183 -1.6548
  191SLPC   H6S22100   5.806   5.413   6.905  0.6581 -1.7526  2.7275
  191SLPC   C2722101   5.897   5.224   6.927 -0.2956  0.6198 -0.1488
  191SLPC   H7R22102   5.930   5.144   6.858  2.4878  0.3814  1.3655
  191SLPC   H7S22103   5.844   5.173   7.010 -2.5421  1.0023 -1.3157
  191SLPC   C2822104   6.012   5.303   6.991  0.0565 -0.2950 -0.9301
  191SLPC   H8R22105   5.976   5.388   7.052  0.6279 -0.9101  0.2785
  191SLPC   H8S22106   6.079   5.353   6.917 -0.3922  0.8155 -0.5945
  191SLPC   C2922107   6.104   5.210   7.067 -0.3175  0.8162 -0.1931
  191SLPC   H9R22108   6.194   5.180   7.012  0.1594 -1.4014  1.7099
  191SLPC  C21022109   6.096   5.149   7.190  0.2849 -0.2800  0.1633
  191SLPC  H10R22110   6.177   5.080   7.219  0.3620 -1.0367 -1.7740
  191SLPC  C21122111   5.982   5.160   7.280 -0.2297  1.0081 -0.1395
  191SLPC  H11R22112   5.949   5.057   7.309 -0.5637  1.0320 -0.4322
  191SLPC  H11S22113   5.896   5.204   7.226  0.1829  0.0907 -1.5703
  191SLPC  C21222114   6.009   5.237   7.409  0.1083 -0.1815 -0.1498
  191SLPC  H12R22115   6.021   5.345   7.394  1.5240 -0.0227  1.8950
  191SLPC  C21322116   6.030   5.197   7.533  0.4190 -0.5493 -0.1501
  191SLPC  H13R22117   6.066   5.267   7.611  2.0301 -0.7917 -0.6463
  191SLPC  C21422118   6.029   5.056   7.577  0.5468 -0.3697  0.4718
  191SLPC  H14R22119   6.117   5.000   7.539  0.1035 -0.3616 -0.5883
  191SLPC  H14S22120   5.947   4.993   7.535  1.6159  0.0204 -2.3028
  191SLPC  C21522121   6.039   5.043   7.733 -0.0371  0.0502  0.0381
  191SLPC  H15R22122   5.946   5.085   7.779 -1.1967 -2.5854  0.2184
  191SLPC  H15S22123   6.138   5.082   7.763  0.4381 -2.0169  1.2459
  191SLPC  C21622124   6.057   4.892   7.778 -0.3999  0.0491 -0.0520
  191SLPC  H16R22125   6.153   4.851   7.740 -0.5150 -1.6756  1.4429
  191SLPC  H16S22126   5.973   4.833   7.735 -0.4498  0.8598 -1.0859
  191SLPC  C21722127   6.047   4.868   7.928 -0.2951 -0.9847  0.8842
  191SLPC  H17R22128   5.982   4.779   7.941 -0.2406 -0.9167  1.6620
  191SLPC  H17S22129   6.008   4.954   7.987  2.8722  0.9788  0.2331
  191SLPC  C21822130   6.183   4.825   7.969 -0.5390  0.6378  0.0521
  191SLPC  H18R22131   6.218   4.736   7.913 -2.6738 -0.2378  0.0890
  191SLPC  H18S22132   6.180   4.799   8.077 -0.2417  2.0092  0.4088
  191SLPC  H18T22133   6.267   4.896   7.950  0.5915  0.0207  2.4840
  191SLPC   C3322134   5.856   4.839   6.429  0.4407  0.1605  0.4355
  191SLPC   H3X22135   5.818   4.735   6.443  1.7633 -0.0152  3.1178
  191SLPC   H3Y22136   5.786   4.904   6.486 -0.5129  0.6868 -1.3085
  191SLPC   C3422137   6.002   4.844   6.478 -0.3005  0.1750 -0.6220
  191SLPC   H4X22138   6.023   4.950   6.504 -1.4466 -0.0743  1.3660
  191SLPC   H4Y22139   6.072   4.811   6.398  0.9247  0.1678  0.4303
  191SLPC   C3522140   6.017   4.765   6.604  0.1115 -0.1338 -0.1485
  191SLPC   H5X22141   6.121   4.756   6.643  0.3407  0.2177 -0.6778
  191SLPC   H5Y22142   5.997   4.656   6.589 -1.1930 -0.2895  2.3468
  191SLPC   C3622143   5.919   4.813   6.715  0.0764 -0.6981 -0.2221
  191SLPC   H6X22144   5.821   4.762   6.718  0.0256 -0.5421  1.5409
  191SLPC   H6Y22145   5.907   4.922   6.697  0.1343 -1.1610 -3.2965
  191SLPC   C3722146   5.980   4.797   6.855  0.2375 -0.3625  1.2869
  191SLPC   H7X22147   6.078   4.849   6.857  0.0618 -0.0380  1.4858
  191SLPC   H7Y22148   5.997   4.689   6.873  2.1446 -0.1721  0.7890
  191SLPC   C3822149   5.887   4.851   6.960 -0.1499  0.2318 -0.1600
  191SLPC   H8X22150   5.785   4.806   6.962  0.2412 -0.6263  0.8114
  191SLPC   H8Y22151   5.863   4.958   6.942 -1.5377  0.2688  1.7225
  191SLPC   C3922152   5.965   4.834   7.094  0.4128  0.3183  0.2117
  191SLPC   H9X22153   5.910   4.890   7.173  1.5219  0.6260  0.7766
  191SLPC   H9Y22154   6.066   4.876   7.075  0.2060  0.0388 -1.6533
  191SLPC  C31022155   5.989   4.695   7.157  0.2448  1.0304 -0.0841
  191SLPC  H10X22156   6.040   4.623   7.089 -0.0975  0.8209 -0.1211
  191SLPC  H10Y22157   5.892   4.645   7.181  0.0375  1.3232 -0.2942
  191SLPC  C31122158   6.071   4.719   7.286 -0.1573 -0.0960 -0.2595
  191SLPC  H11X22159   6.019   4.785   7.360 -2.3975  0.0784 -1.9324
  191SLPC  H11Y22160   6.164   4.773   7.260  0.5661 -1.4368 -0.5144
  191SLPC  C31222161   6.095   4.582   7.353 -0.0579 -0.0595  0.3599
  191SLPC  H12X22162   6.164   4.524   7.288 -0.3643 -0.7457  0.6350
  191SLPC  H12Y22163   6.001   4.524   7.365 -0.4876  0.2666 -1.3062
  191SLPC  C31322164   6.145   4.602   7.497  0.0108 -0.0629 -0.1208
  191SLPC  H13X22165   6.078   4.674   7.548 -2.0061  0.3037 -3.1680
  191SLPC  H13Y22166   6.245   4.648   7.478 -0.5057  0.3775 -1.8839
  191SLPC  C31422167   6.142   4.477   7.574 -0.2090 -0.0488 -0.1711
  191SLPC  H14X22168   6.230   4.413   7.552  0.2377  0.3566  0.4317
  191SLPC  H14Y22169   6.045   4.422   7.569 -0.0513 -0.2467 -1.0466
  191SLPC  C31522170   6.150   4.506   7.724  0.1205  0.2422  0.5572
  191SLPC  H15X22171   6.054   4.557   7.749  0.2759 -1.4442  5.0588
  191SLPC  H15Y22172   6.224   4.589   7.729 -1.5559  1.7548  0.7994
  191SLPC  C31622173   6.175   4.398   7.827  0.0421 -0.1605  0.1527
  191SLPC  H16X22174   6.235   4.320   7.776 -0.5578 -0.2471 -0.4240
  191SLPC  H16Y22175   6.089   4.339   7.865  1.3096 -1.0408  1.7431
  191SLPC  C31722176   6.253   4.455   7.945 -0.0700 -0.1360 -0.7915
  191SLPC  H17X22177   6.188   4.533   7.989  1.5706 -0.0088  1.4967
  191SLPC  H17Y22178   6.340   4.518   7.916 -1.4121  2.4696  0.7337
  191SLPC  C31822179   6.288   4.351   8.065  0.4467  0.3677  0.1179
  191SLPC  H18X22180   6.203   4.299   8.114  0.7080 -0.3929 -0.2245
  191SLPC  H18Y22181   6.345   4.409   8.141  0.4370  0.7323 -0.1503
  191SLPC  H18Z22182   6.362   4.279   8.024  1.1912  1.3358 -0.2564
  192SLPC     N22183   6.592   5.881   6.591 -0.2272  0.0909 -0.5906
  192SLPC   C1322184   6.474   5.807   6.649 -0.2518 -0.3405  0.3914
  192SLPC  H13A22185   6.393   5.872   6.675  1.3950  1.7062  0.5264
  192SLPC  H13B22186   6.440   5.737   6.573 -1.0919 -0.4283  0.8455
  192SLPC  H13C22187   6.496   5.735   6.726 -0.3070 -2.4952 -1.5453
  192SLPC   C1422188   6.715   5.793   6.603  0.2973 -0.5194  0.1886
  192SLPC  H14A22189   6.805   5.849   6.583 -0.2534  0.6756  0.9582
  192SLPC  H14B22190   6.716   5.762   6.706  0.5709  0.6662  0.5553
  192SLPC  H14C22191   6.712   5.700   6.548 -0.1880  0.0057 -0.7055
  192SLPC   C1522192   6.597   5.990   6.694 -0.1447 -0.2381 -0.1828
  192SLPC  H15A22193   6.496   6.025   6.706  0.3059  0.5333  1.3668
  192SLPC  H15B22194   6.640   5.953   6.786  1.0613  0.0989 -0.5928
  192SLPC  H15C22195   6.657   6.073   6.661  1.5999 -1.6400 -0.6762
  192SLPC   C1222196   6.569   5.930   6.447 -0.3891 -0.6644  0.6456
  192SLPC  H12A22197   6.474   5.982   6.440  0.3592  0.6934  0.4083
  192SLPC  H12B22198   6.564   5.844   6.381  0.3498  1.5002 -2.3092
  192SLPC   C1122199   6.671   6.028   6.391 -0.1025 -0.1532  0.4863
  192SLPC  H11A22200   6.652   6.066   6.289 -0.5506 -0.3432  0.5015
  192SLPC  H11B22201   6.764   5.968   6.377 -0.0319  0.4410 -1.8584
  192SLPC     P22202   6.630   6.283   6.442 -0.0808  0.0114 -0.4148
  192SLPC   O1322203   6.725   6.383   6.386  0.2283  0.0196  0.1970
  192SLPC   O1422204   6.503   6.261   6.361 -0.1973  0.5372 -0.1404
  192SLPC   O1222205   6.694   6.142   6.476  0.2661 -0.0671  0.3022
  192SLPC   O1122206   6.577   6.318   6.592  0.2689  0.0430  0.8905
  192SLPC    C122207   6.671   6.383   6.683 -0.3513  0.0351  0.9622
  192SLPC    HA22208   6.769   6.329   6.681 -0.5085 -0.2190 -0.2170
  192SLPC    HB22209   6.689   6.487   6.648  2.0232 -1.0752 -1.2929
  192SLPC    C222210   6.611   6.364   6.827 -0.1922  0.4611 -0.7272
  192SLPC    HS22211   6.578   6.259   6.839  0.8808  0.4059  2.0664
  192SLPC   O2122212   6.499   6.457   6.852  0.4215  0.8597  0.6221
  192SLPC   C2122213   6.404   6.400   6.943  0.9911 -0.1434  0.7563
  192SLPC   O2222214   6.396   6.282   6.968  0.1400  0.5003  0.1364
  192SLPC   C2222215   6.310   6.522   6.986 -0.1822 -0.1883  0.7478
  192SLPC   H2R22216   6.369   6.613   7.008  1.1181 -0.2343 -2.3258
  192SLPC   H2S22217   6.247   6.540   6.896  1.1726 -2.6664 -0.7378
  192SLPC    C322218   6.722   6.403   6.937  0.2453  0.0225 -0.3338
  192SLPC    HX22219   6.736   6.512   6.921  0.0248 -0.0616 -1.1377
  192SLPC    HY22220   6.814   6.356   6.896 -0.8987  0.4639 -3.5390
  192SLPC   O3122221   6.694   6.382   7.077  0.2740 -0.0284  0.4827
  192SLPC   C3122222   6.681   6.261   7.112  0.1334 -0.4142 -0.2918
  192SLPC   O3222223   6.701   6.159   7.046 -0.1056  0.9589 -0.0042
  192SLPC   C3222224   6.623   6.257   7.254  0.2413 -0.4818 -0.6457
  192SLPC   H2X22225   6.526   6.312   7.249 -0.5762 -1.8429  0.2659
  192SLPC   H2Y22226   6.686   6.314   7.326  0.8721  1.0829 -2.3706
  192SLPC   C2322227   6.213   6.492   7.103 -0.3042 -0.5058 -0.0762
  192SLPC   H3R22228   6.182   6.387   7.087 -0.0868 -0.4238 -1.0780
  192SLPC   H3S22229   6.128   6.562   7.087  0.1168  0.3037  1.1833
  192SLPC   C2422230   6.279   6.502   7.237  0.1022 -0.3021  0.2198
  192SLPC   H4R22231   6.281   6.610   7.263  0.3240 -0.5819  1.3857
  192SLPC   H4S22232   6.387   6.479   7.246  0.0850 -0.4336  0.0792
  192SLPC   C2522233   6.208   6.454   7.364  0.5856 -0.1419  0.2542
  192SLPC   H5R22234   6.195   6.344   7.356  2.1157 -0.2616 -0.8171
  192SLPC   H5S22235   6.103   6.489   7.372  0.7362  0.5747 -0.7729
  192SLPC   C2622236   6.269   6.482   7.508 -0.0408 -0.1635 -0.2712
  192SLPC   H6R22237   6.265   6.593   7.509 -0.8754 -0.1690 -2.2320
  192SLPC   H6S22238   6.378   6.459   7.508  0.4969  2.2975  0.2807
  192SLPC   C2722239   6.177   6.431   7.626 -0.4336 -0.1770  0.0486
  192SLPC   H7R22240   6.160   6.321   7.619  1.9182 -0.5383 -0.5243
  192SLPC   H7S22241   6.084   6.491   7.621 -0.0436  0.3862 -0.6325
  192SLPC   C2822242   6.236   6.445   7.765 -0.1853  0.4221  1.0208
  192SLPC   H8R22243   6.339   6.405   7.769 -1.0175 -1.7627  1.8492
  192SLPC   H8S22244   6.182   6.375   7.833  0.7336  1.0976  2.4726
  192SLPC   C2922245   6.249   6.580   7.826 -0.1991 -0.4349  0.2909
  192SLPC   H9R22246   6.312   6.649   7.767  0.1849 -1.4526 -0.5185
  192SLPC  C21022247   6.199   6.617   7.945  0.1541  0.5101  0.7728
  192SLPC  H10R22248   6.213   6.723   7.968  1.3599 -0.1308  3.1439
  192SLPC  C21122249   6.115   6.547   8.052 -0.8969  0.3705  0.0299
  192SLPC  H11R22250   6.145   6.573   8.156  1.2266 -2.1352  0.1041
  192SLPC  H11S22251   6.144   6.440   8.041 -0.2064  0.4955  0.5990
  192SLPC  C21222252   5.977   6.564   8.024 -0.0635  0.0439  0.1888
  192SLPC  H12R22253   5.942   6.668   8.014 -0.4218 -0.0234  0.7059
  192SLPC  C21322254   5.879   6.469   8.009  0.1573 -0.3669  0.0513
  192SLPC  H13R22255   5.776   6.503   7.994  0.0375  0.3348  2.2446
  192SLPC  C21422256   5.897   6.318   8.017  0.5634  0.0878  0.6703
  192SLPC  H14R22257   6.004   6.288   8.020  1.2204  2.3815  0.9399
  192SLPC  H14S22258   5.856   6.277   7.922  1.5601 -1.4261  0.8841
  192SLPC  C21522259   5.816   6.254   8.128 -0.3366  0.3037  0.3654
  192SLPC  H15R22260   5.835   6.146   8.114 -0.3361  0.5762 -2.0717
  192SLPC  H15S22261   5.708   6.283   8.129 -1.0522 -2.2766  0.5292
  192SLPC  C21622262   5.888   6.276   8.263  0.0673 -0.2191  0.4072
  192SLPC  H16R22263   5.876   6.380   8.301  1.7478 -0.0305  0.4416
  192SLPC  H16S22264   5.998   6.268   8.250  0.3002  0.9029  1.6456
  192SLPC  C21722265   5.846   6.177   8.375  0.2226 -0.0349  0.0778
  192SLPC  H17R22266   5.736   6.181   8.388 -0.0250 -2.0201 -1.2942
  192SLPC  H17S22267   5.876   6.075   8.345  0.4246  0.4552 -1.4246
  192SLPC  C21822268   5.909   6.223   8.505 -1.0576  1.1146 -0.3974
  192SLPC  H18R22269   5.897   6.333   8.514  0.7773  1.7080 -4.1968
  192SLPC  H18S22270   6.014   6.186   8.511 -1.3460  0.2748 -0.4533
  192SLPC  H18T22271   5.854   6.186   8.593  4.1651 -1.4996  1.9847
  192SLPC   C3322272   6.579   6.117   7.310 -0.6556  0.1541  0.0457
  192SLPC   H3X22273   6.666   6.048   7.314 -3.0981 -2.9852  0.0975
  192SLPC   H3Y22274   6.512   6.073   7.233 -2.0303 -0.0383  1.3507
  192SLPC   C3422275   6.507   6.134   7.446 -1.0526  0.3366  0.1707
  192SLPC   H4X22276   6.452   6.231   7.447 -0.1374  0.8679 -0.8626
  192SLPC   H4Y22277   6.589   6.142   7.521  1.6549 -0.0533 -2.6712
  192SLPC   C3522278   6.420   6.014   7.483  0.5799  0.7620 -1.2206
  192SLPC   H5X22279   6.486   5.926   7.475  1.3926  1.1691  0.6753
  192SLPC   H5Y22280   6.343   5.996   7.406 -0.6475  0.7289  0.0073
  192SLPC   C3622281   6.355   6.025   7.620  0.3525 -1.1662 -0.1120
  192SLPC   H6X22282   6.273   5.951   7.630 -0.7534  0.2083  1.5095
  192SLPC   H6Y22283   6.304   6.124   7.621  0.4254 -1.1289  0.0937
  192SLPC   C3722284   6.441   6.005   7.736  0.1116 -0.0887 -0.4434
  192SLPC   H7X22285   6.544   6.030   7.701  0.9837 -1.8955  0.7290
  192SLPC   H7Y22286   6.439   5.895   7.755  2.1667 -0.3108 -1.3307
  192SLPC   C3822287   6.399   6.100   7.859  0.1229  0.0522 -0.1425
  192SLPC   H8X22288   6.366   6.197   7.815 -1.8306 -0.8164 -0.6895
  192SLPC   H8Y22289   6.492   6.118   7.916  1.1477  1.0331 -2.0854
  192SLPC   C3922290   6.296   6.036   7.943  0.2960  0.1528  0.6688
  192SLPC   H9X22291   6.312   5.930   7.972  0.3444  0.0715  0.3440
  192SLPC   H9Y22292   6.200   6.041   7.887  1.5634 -1.8696 -1.8028
  192SLPC  C31022293   6.259   6.110   8.075  0.5468  0.3416 -0.2641
  192SLPC  H10X22294   6.155   6.080   8.099  0.9153  0.1938  1.1864
  192SLPC  H10Y22295   6.239   6.216   8.049 -0.6240  0.2209  0.1107
  192SLPC  C31122296   6.372   6.099   8.183  0.4993 -0.8908  0.3018
  192SLPC  H11X22297   6.456   6.165   8.154 -0.2410 -0.9028 -1.9294
  192SLPC  H11Y22298   6.400   5.993   8.168  0.2815 -0.8590 -0.3419
  192SLPC  C31222299   6.311   6.155   8.317  0.6319  0.9747 -0.6549
  192SLPC  H12X22300   6.222   6.092   8.342  0.8058  0.3588 -1.5469
  192SLPC  H12Y22301   6.280   6.261   8.301  0.1327  0.7023 -1.5796
  192SLPC  C31322302   6.412   6.144   8.436  0.6448 -0.2263  0.2095
  192SLPC  H13X22303   6.395   6.226   8.509 -1.2674 -0.1900 -0.2610
  192SLPC  H13Y22304   6.517   6.150   8.399  0.4553  0.0028 -0.2911
  192SLPC  C31422305   6.404   6.006   8.507 -0.4142 -0.2925 -0.2813
  192SLPC  H14X22306   6.427   5.923   8.437  1.5509  0.3864 -0.4842
  192SLPC  H14Y22307   6.298   5.993   8.537 -1.2013 -0.8007 -3.1203
  192SLPC  C31522308   6.499   5.991   8.630  0.1947 -0.2497  0.5332
  192SLPC  H15X22309   6.454   6.047   8.714 -0.5638 -0.4482  0.2589
  192SLPC  H15Y22310   6.604   6.017   8.603  1.1180 -2.0798  2.2696
  192SLPC  C31622311   6.512   5.847   8.680  0.1150 -0.0094 -0.5125
  192SLPC  H16X22312   6.413   5.798   8.676 -0.0473  0.4082 -1.6576
  192SLPC  H16Y22313   6.558   5.853   8.781 -1.1855 -1.4065  0.1827
  192SLPC  C31722314   6.605   5.766   8.588  0.6164  0.5018 -0.1509
  192SLPC  H17X22315   6.705   5.813   8.598  0.8825 -0.3710  1.4815
  192SLPC  H17Y22316   6.562   5.763   8.485  2.3731  0.2577 -0.9058
  192SLPC  C31822317   6.627   5.619   8.635 -0.6132 -0.7833 -0.0249
  192SLPC  H18X22318   6.663   5.643   8.737 -0.9991  0.0122 -0.0715
  192SLPC  H18Y22319   6.699   5.565   8.571 -0.2790  2.0461 -2.1662
  192SLPC  H18Z22320   6.522   5.582   8.633 -0.2903 -1.6690 -3.3938
  193SOD    SOD22321   4.314   2.946   3.966  0.1139 -0.3276 -0.3882
  194SOD    SOD22322   1.220   0.406   6.204  0.2138  0.6343 -0.1745
  195SOD    SOD22323   5.538   2.072   1.679 -0.2262 -0.1609 -0.0030
  196SOD    SOD22324   5.554   2.603   5.139  0.3001  0.0358  0.1374
  197SOD    SOD22325   6.400   3.742  15.162 -0.2469 -0.2051 -0.1123
  198SOD    SOD22326   1.218   2.643  11.682  0.1621  0.2178 -0.3094
  199SOD    SOD22327   4.391   0.592   3.972  0.4661  0.1291  0.1067
  200SOD    SOD22328   1.907   0.549  11.498  0.1748 -0.0415  0.3846
  201SOD    SOD22329   2.684   4.573  16.420  0.4069 -0.4109 -0.0952
  202SOD    SOD22330   5.078   0.491  14.303 -0.7438  0.0861 -0.2279
  203SOD    SOD22331   6.437   5.604   4.921  0.2909 -0.1668 -0.2744
  204SOD    SOD22332   5.377   5.359  12.154 -0.0904 -0.0355  0.0887
  205SOD    SOD22333   2.292   2.171  15.408 -0.1252  0.0423  0.3873
  206SOD    SOD22334   6.153   0.898  15.750  0.4371 -0.1840  0.6723
  207SOD    SOD22335   0.847   1.187  13.930  0.4643  0.0703 -0.4967
  208SOD    SOD22336   3.916   3.710   2.561 -0.1364  0.5393 -0.0105
  209SOD    SOD22337   0.613   2.977  14.242 -0.2270 -0.2564 -0.1385
  210SOD    SOD22338   1.018   2.493  16.719 -0.5583 -0.1054 -0.0440
  211SOD    SOD22339   6.736   0.733  12.273 -0.2318 -0.0995  0.1022
  212SOD    SOD22340   4.965   0.399  14.908 -0.7889 -0.2616  0.4874
  213SOD    SOD22341   1.911   3.340  10.916  0.3535  0.2735  0.2068
  214SOD    SOD22342   0.426   2.236   3.885 -0.2694  0.1364  0.2561
  215SOD    SOD22343   5.933   3.486  14.157  0.1334  0.2034 -0.5693
  216SOD    SOD22344   5.990   3.303  11.752  0.4596 -0.1847  0.0816
  217SOD    SOD22345   0.681   2.077   6.301 -0.2278 -0.1079 -0.2427
  218SOD    SOD22346   2.665   6.287   3.741 -0.0712 -0.3534  0.8996
  219SOD    SOD22347   2.588   3.102   5.013  0.1671  0.1544  0.3671
  220SOD    SOD22348   0.898   4.585   1.643 -0.2228  0.6369  0.0552
  221SOD    SOD22349   1.995   6.737  15.146  0.3308 -0.1590  0.5527
  222SOD    SOD22350   5.205   2.049   0.018  0.0584  0.1325  0.0536
  223SOD    SOD22351   4.420   6.300   1.287 -0.3179 -0.1019  0.2010
  224SOD    SOD22352   2.374   5.932  11.670 -0.0707  0.4477  0.1101
  225SOD    SOD22353   2.385   1.283   6.275  0.4223  0.5765  0.0916
  226SOD    SOD22354   3.628   4.012  16.684 -0.1905 -0.0722  0.0963
  227SOD    SOD22355   2.003   2.572   6.366 -0.2420  0.2490 -0.5060
  228SOD    SOD22356   3.741   1.888  16.383  0.6553 -0.4413 -0.5246
  229SOD    SOD22357   6.342   4.645  11.760  0.1594  0.3359 -0.5560
  230SOD    SOD22358   4.016   2.102   4.943  0.0271  0.3149 -0.1999
  231SOD    SOD22359   5.458   0.236  10.702 -0.2042 -0.2168  0.4267
  232SOD    SOD22360   0.579   1.215   3.737 -0.0860 -0.6850  0.1442
  233SOD    SOD22361   1.906   3.501   3.337  0.2399 -0.3191  0.0370
  234SOD    SOD22362   3.418   2.485  11.117  0.2858  0.2129  0.3786
  235SOD    SOD22363   5.968   1.693   3.323  0.2930  0.5843  0.0711
  236SOD    SOD22364   4.920   5.520   6.348 -0.1560 -0.0348 -0.5525
  237SOD    SOD22365   0.689   3.672  11.278 -0.5246  0.1300  0.0039
  238SOD    SOD22366   1.061   3.644  16.625 -0.2589 -0.2535  0.6875
  239SOD    SOD22367   0.875   6.416   5.908  0.2904  0.3140 -0.3565
  240SOD    SOD22368   3.931   0.226  11.441  0.0488 -0.0327 -0.8397
  241SOD    SOD22369   2.290   1.380   6.869 -0.5453 -0.3729  0.0515
  242SOD    SOD22370   1.576   6.619  16.305  0.4314 -0.0472 -0.3264
  243SOD    SOD22371   1.618   0.631   5.595 -0.3779 -0.2043 -0.0269
  244SOD    SOD22372   1.724   3.467   4.738  0.4713 -0.2233  0.4334
  245SOD    SOD22373   4.663   4.033  13.708 -0.5325  0.5222  0.0620
  246SOD    SOD22374   4.404   1.257   1.329 -0.7109  0.2554 -0.2718
  247SOD    SOD22375   4.608   1.738   2.841 -0.0658 -0.1494 -0.0267
  248SOD    SOD22376   3.559   3.918  10.887 -0.0284  0.5030 -0.3719
  249SOD    SOD22377   2.180   1.172  14.927  0.0555  0.4915  0.1691
  250SOD    SOD22378   2.698   3.909  11.785  0.0234 -0.1804  0.3005
  251SOD    SOD22379   6.216   6.602   6.431 -0.3869  0.9631  0.3510
  252SOD    SOD22380   3.146   2.168   3.599  0.1767  0.3902  0.1693
  253SOD    SOD22381   3.222   6.447   6.544 -0.1092 -0.0592  0.4218
  254SOD    SOD22382   0.017   2.857   1.038  0.1494  0.2871 -0.4754
  255SOD    SOD22383   0.346   1.236  16.041 -0.0052 -0.0309 -0.2050
  256SOD    SOD22384   5.345   4.686  11.176  0.1400  0.4258 -0.1875
  257SOD    SOD22385   2.615   2.852   1.609  0.1600 -0.0758  0.4047
  258SOD    SOD22386   1.565   2.301  14.181  0.2590  0.8367 -0.3103
  259SOD    SOD22387   2.476   4.885  13.712 -0.2141  0.1621 -0.4799
  260SOD    SOD22388   4.794   4.229   3.962  0.2950 -0.2211  0.0912
  261SOD    SOD22389   6.262   1.318  13.516 -0.4245 -0.2851  0.3393
  262SOD    SOD22390   3.020   4.872   6.230  0.1447 -0.0552 -0.0564
  263SOD    SOD22391   2.555   3.927   6.045 -0.0914 -0.0024  0.3011
  264SOD    SOD22392   3.603   5.519   2.543  0.2720  0.0486  0.3343
  265SOD    SOD22393   4.435   2.997   5.856  0.1974 -0.4346  0.1281
  266CLA    CLA22394   5.556   1.367  15.074  0.2955 -0.0497 -0.1407
  267CLA    CLA22395   0.248   3.186   0.729 -0.3015  0.3500  0.4709
  268CLA    CLA22396   0.580   1.741   3.981 -0.0698 -0.3007 -0.2559
  269CLA    CLA22397   2.143   0.087   5.541  0.2915  0.2227 -0.0024
  270CLA    CLA22398   2.438   2.520   5.320 -0.0493  0.0964  0.5432
  271CLA    CLA22399   2.384   3.242   4.520 -0.1696  0.0243  0.1122
  272CLA    CLA22400   6.479   1.557  15.710  0.3041  0.1405  0.3717
  273CLA    CLA22401   3.390   6.580   1.499 -0.1139  0.0458  0.0933
  274CLA    CLA22402   4.749   4.007  14.430 -0.3842  0.0315  0.0455
  275CLA    CLA22403   6.497   5.114  12.852 -0.1443 -0.3126 -0.7227
  276CLA    CLA22404   2.456   2.894   5.946 -0.6120  0.1103  0.0796
  277CLA    CLA22405   5.858   2.673  11.130  0.3955  0.0816 -0.2852
  278CLA    CLA22406   4.415   2.326   3.185 -0.0174  0.2604 -0.2042
  279CLA    CLA22407   2.752   0.103  11.569  0.0103 -0.2502  0.0063
  280CLA    CLA22408   5.098   3.277  17.054 -0.0702  0.0091 -0.0300
  281CLA    CLA22409   2.169   1.268   0.380  0.2868 -0.5314  0.1328
  282CLA    CLA22410   2.547   4.524   0.208 -0.4140 -0.3577 -0.2077
  283CLA    CLA22411   0.507   2.387  11.829  0.5675 -0.1437 -0.0631
  284CLA    CLA22412   0.692   4.398  16.257 -0.0727 -0.2040  0.2585
  285CLA    CLA22413   2.938   1.409   0.156  0.2473 -0.2182  0.0266
  286CLA    CLA22414   1.319   3.587  16.313  0.0023  0.4489 -0.2145
  287CLA    CLA22415   4.837   1.666   2.691  0.1047  0.0140  0.2922
  288CLA    CLA22416   4.276   1.209  12.780 -0.2857  0.5308  0.0661
  289CLA    CLA22417   3.413   1.421  14.567 -0.4755  0.2132  0.4135
  290CLA    CLA22418   4.301   1.802  14.184 -0.0630 -0.0995 -0.3849
  291CLA    CLA22419   2.424   5.959  16.937 -0.0296  0.2600  0.5077
  292CLA    CLA22420   1.495   4.123   3.828  0.1023 -0.2140 -0.1632
  293CLA    CLA22421   1.901   6.034  15.911  0.1063  0.0401  0.0054
  294CLA    CLA22422   2.444   1.810  14.971 -0.5523  0.6042  0.4922
  295CLA    CLA22423   4.632   5.253  13.762  0.0077 -0.2603  0.2970
  296CLA    CLA22424   5.770   2.906   4.555  0.0869 -0.2418  0.2571
  297CLA    CLA22425   6.145   1.532   1.823  0.4323  0.0305  0.0229
  298CLA    CLA22426   2.465   5.107   4.429  0.1627 -0.0484 -0.0803
  299CLA    CLA22427   5.563   1.243  14.605 -0.5197 -0.2406 -0.3138
  300CLA    CLA22428   5.376   0.519   1.450 -0.0796 -0.0374 -0.0819
  301CLA    CLA22429   4.086   1.001   1.651 -0.4322 -0.0748 -0.0815
  302CLA    CLA22430   0.565   3.905   5.228 -0.2264 -0.3954 -0.0402
  303CLA    CLA22431   1.168   2.793  17.100 -0.2646  0.0925  0.0689
  304CLA    CLA22432   2.682   1.498   3.894 -0.0106 -0.1107 -0.0324
  305CLA    CLA22433   2.612   3.284   3.394 -0.0459 -0.0659  0.3159
  306CLA    CLA22434   1.623   6.742  15.480  0.1272 -0.1214 -0.0817
  307CLA    CLA22435   6.406   1.512  13.394  0.0126  0.3306  0.2312
  308CLA    CLA22436   1.085   0.573  15.338  0.2657 -0.5024  0.1649
  309CLA    CLA22437   1.457   6.101  14.245 -0.3351 -0.5983  0.0413
  310CLA    CLA22438   4.168   3.319   1.160  0.3844 -0.0275  0.2038
  311CLA    CLA22439   3.443   1.102   3.128  0.5174 -0.3718  0.0410
  312CLA    CLA22440   0.270   5.504   0.711 -0.1153  0.5443  0.1313
  313CLA    CLA22441   2.747   4.717  12.549 -0.0778  0.1270 -0.1084
  314CLA    CLA22442   1.452   2.064  16.357  0.1903 -0.0546 -0.5577
  315CLA    CLA22443   3.592   2.507   4.805  0.2388  0.1932 -0.3271
  316CLA    CLA22444   2.081   1.803   2.499  0.3580 -0.2143 -0.3580
  317CLA    CLA22445   2.807   0.903   4.754  0.3621 -0.0819 -0.1368
  318CLA    CLA22446   4.492   3.360   2.867  0.3330  0.6538 -0.0004
  319TIP3   OH222447   1.021   0.661   2.227 -0.5258  0.1613  0.1364
  319TIP3    H122448   1.113   0.667   2.202  0.1849 -1.0928  2.3424
  319TIP3    H222449   0.977   0.628   2.149  0.8972  0.6935 -0.9039
  320TIP3   OH222450   1.807   0.916  12.390  0.2877 -0.0153 -0.2962
  320TIP3    H122451   1.822   0.906  12.296 -1.9940 -0.9891 -0.5879
  320TIP3    H222452   1.766   0.833  12.416  1.5955 -0.0515  1.7119
  321TIP3   OH222453   3.819   2.107   1.246 -0.0038 -0.0399  0.3187
  321TIP3    H122454   3.729   2.138   1.235  0.5644  1.2291 -0.8429
  321TIP3    H222455   3.839   2.123   1.338  0.0794  2.5517 -0.1154
  322TIP3   OH222456   0.346   1.680  12.226 -0.3920  0.1557 -0.2973
  322TIP3    H122457   0.361   1.762  12.273 -1.2559  0.6487 -0.8682
  322TIP3    H222458   0.327   1.706  12.136  1.9930 -0.8443 -1.1138
  323TIP3   OH222459   0.532   1.358   4.857 -0.1228  0.2339  0.2976
  323TIP3    H122460   0.467   1.379   4.924 -0.4949  0.0532 -0.0007
  323TIP3    H222461   0.529   1.433   4.797  0.6163  0.6566  0.7892
  324TIP3   OH222462   4.587   5.865   0.598  0.2262  0.0416 -0.4355
  324TIP3    H122463   4.555   5.953   0.577 -1.0157 -0.2048  0.3545
  324TIP3    H222464   4.540   5.807   0.537  0.4628 -0.1497 -0.4349
  325TIP3   OH222465   1.161   6.546   0.391  0.0843 -0.4804  0.5342
  325TIP3    H122466   1.130   6.568   0.479  1.2485 -1.0212  1.0795
  325TIP3    H222467   1.106   6.472   0.365 -1.0595  0.4150  0.3192
  326TIP3   OH222468   5.964   2.104   0.822 -0.0785 -0.4912 -0.1565
  326TIP3    H122469   5.898   2.173   0.826 -1.3841 -1.7851  1.7351
  326TIP3    H222470   5.996   2.107   0.732 -0.3464  2.3227 -0.2292
  327TIP3   OH222471   4.464   5.437  16.969 -0.0747 -0.4433  0.3647
  327TIP3    H122472   4.524   5.363  16.964  1.5969  0.7339  2.1158
  327TIP3    H222473   4.392   5.406  17.025  1.9858  0.0826  3.4332
  328TIP3   OH222474   4.750   3.380  16.030  0.0427 -0.7835 -0.6525
  328TIP3    H122475   4.823   3.317  16.027  0.0127 -0.7837 -1.4364
  328TIP3    H222476   4.673   3.326  16.049 -0.0459 -1.0567 -1.7064
  329TIP3   OH222477   4.616   2.849   5.264  0.1388  0.3047  0.0216
  329TIP3    H122478   4.711   2.832   5.264  0.5658  2.3573 -2.6008
  329TIP3    H222479   4.591   2.842   5.172 -2.1491  0.4518  0.6131
  330TIP3   OH222480   1.684   2.146   1.615 -0.3663  0.1227 -0.5346
  330TIP3    H122481   1.724   2.063   1.591 -0.5134  0.0883 -0.6626
  330TIP3    H222482   1.592   2.125   1.629  0.3186 -0.5567  3.5276
  331TIP3   OH222483   4.473   5.070   3.439  0.3399 -0.0857 -0.0156
  331TIP3    H122484   4.479   5.116   3.356  2.7524  1.7870  1.1267
  331TIP3    H222485   4.554   5.019   3.444  0.6920  0.5998  1.5981
  332TIP3   OH222486   5.029   3.848   4.634 -0.3572  0.2019  0.0286
  332TIP3    H122487   5.027   3.822   4.542  1.3799  0.5975 -0.1414
  332TIP3    H222488   5.113   3.815   4.667 -0.9184  0.1584  1.4450
  333TIP3   OH222489   2.262   3.930  15.350 -0.5844 -0.1587  0.3373
  333TIP3    H122490   2.264   3.855  15.409 -0.0990  0.0032  0.5303
  333TIP3    H222491   2.329   3.989  15.384  0.0859 -0.3095 -0.6971
  334TIP3   OH222492   2.618   3.010   1.790 -0.0777  0.5853 -0.2817
  334TIP3    H122493   2.559   2.998   1.865 -0.7866 -0.2398 -0.9651
  334TIP3    H222494   2.706   3.002   1.828 -0.4350 -0.0784  0.4242
  335TIP3   OH222495   0.960   0.735  10.663  0.7127  0.4518  0.1356
  335TIP3    H122496   1.002   0.811  10.702 -1.2542  0.9294  1.4334
  335TIP3    H222497   0.973   0.665  10.728 -0.6208  0.6558  0.6385
  336TIP3   OH222498   5.376   4.676  16.315  0.4556  0.1253 -0.3347
  336TIP3    H122499   5.426   4.743  16.268  1.5565 -0.2634  0.2747
  336TIP3    H222500   5.434   4.647  16.385 -0.1796 -1.1660 -0.3324
  337TIP3   OH222501   5.395   2.461  12.257 -0.2806  0.4084  0.9005
  337TIP3    H122502   5.370   2.447  12.166  0.2368  0.7856  0.6994
  337TIP3    H222503   5.318   2.435  12.308 -1.8024  3.3358  0.2252
  338TIP3   OH222504   3.942   3.245  14.303 -0.4268 -0.1518 -0.2481
  338TIP3    H122505   3.848   3.263  14.304 -0.4253  0.6619 -4.3775
  338TIP3    H222506   3.983   3.331  14.293  0.5377 -0.7627 -1.7551
  339TIP3   OH222507   2.094   5.710   2.688 -0.0801 -0.3473 -0.4080
  339TIP3    H122508   2.163   5.773   2.709  0.1243 -1.4182  2.3002
  339TIP3    H222509   2.141   5.632   2.660 -0.1052 -1.2679  1.9678
  340TIP3   OH222510   2.465   3.934   3.011  0.2570  0.1024 -0.2336
  340TIP3    H122511   2.422   3.850   2.994 -0.6743  0.8233 -1.5567
  340TIP3    H222512   2.406   3.999   2.972  0.7406  1.4137  1.1783
  341TIP3   OH222513   1.250   4.884  12.915  0.3981 -0.4137  0.3651
  341TIP3    H122514   1.247   4.833  12.996  0.0120  0.7293  1.0859
  341TIP3    H222515   1.211   4.968  12.938 -0.9714 -0.5363 -1.3690
  342TIP3   OH222516   5.857   2.234   2.995  0.2411 -0.2443  0.2375
  342TIP3    H122517   5.848   2.324   2.964  0.1222 -0.5202 -0.5233
  342TIP3    H222518   5.824   2.180   2.924  1.0161 -0.9289  0.3883
  343TIP3   OH222519   4.446   1.540   1.634 -0.5414  0.3435  0.0479
  343TIP3    H122520   4.434   1.635   1.625 -2.5249  0.2401  1.2076
  343TIP3    H222521   4.365   1.510   1.676 -0.1728 -1.9473 -0.8321
  344TIP3   OH222522   6.459   3.268   5.034 -0.0229 -0.2026  0.6050
  344TIP3    H122523   6.516   3.335   4.996 -1.2848 -0.1804 -1.3262
  344TIP3    H222524   6.519   3.196   5.055  1.0318  0.6591  0.6336
  345TIP3   OH222525   3.647   3.230   5.415  0.5697 -0.7313 -0.4105
  345TIP3    H122526   3.667   3.143   5.380  1.1783 -1.7806  2.4369
  345TIP3    H222527   3.555   3.244   5.394  0.7528 -1.5963 -1.8434
  346TIP3   OH222528   4.140   6.192   4.507 -0.4992 -0.0148 -0.1582
  346TIP3    H122529   4.234   6.202   4.492 -0.6015  0.8135 -0.2704
  346TIP3    H222530   4.122   6.250   4.581 -1.0194  0.2761 -0.5096
  347TIP3   OH222531   3.966   1.101   6.237 -0.5126  0.0136 -0.5092
  347TIP3    H122532   3.976   1.131   6.327  0.0048 -0.3199 -0.4570
  347TIP3    H222533   4.037   1.038   6.224  1.0791  2.0602 -1.9958
  348TIP3   OH222534   3.646   1.926  17.138  0.5285 -1.4991 -0.6321
  348TIP3    H122535   3.560   1.938  17.180 -0.2780 -1.7082 -2.2115
  348TIP3    H222536   3.657   2.004  17.084  1.4374 -1.3802 -0.2767
  349TIP3   OH222537   2.692   6.296   7.038  0.3035 -0.0460  0.3029
  349TIP3    H122538   2.641   6.356   6.983 -0.2528 -1.2296 -0.4806
  349TIP3    H222539   2.626   6.243   7.083  0.7888 -2.7765 -2.0298
  350TIP3   OH222540   2.461   1.735  11.180  0.0767 -0.3598 -0.1432
  350TIP3    H122541   2.450   1.760  11.272  0.4555  1.6462 -0.6203
  350TIP3    H222542   2.410   1.654  11.170 -0.3376 -0.3381  1.7056
  351TIP3   OH222543   4.138   0.374  12.966  0.8019  0.3849  0.1207
  351TIP3    H122544   4.233   0.369  12.958  0.7959  1.1096 -0.3934
  351TIP3    H222545   4.113   0.448  12.912 -0.0459  0.2844  0.3688
  352TIP3   OH222546   5.153   3.471   4.261  0.5436  0.1565 -0.0847
  352TIP3    H122547   5.231   3.510   4.222  1.5251 -1.1225  0.5539
  352TIP3    H222548   5.187   3.415   4.331 -0.8211 -1.7590 -0.9275
  353TIP3   OH222549   5.856   6.729  11.555 -0.3882 -0.6458  0.0442
  353TIP3    H122550   5.807   6.811  11.561 -1.2117 -1.0485 -1.0683
  353TIP3    H222551   5.947   6.754  11.572 -0.8042  0.3005  0.9325
  354TIP3   OH222552   4.505   5.001   0.154 -0.1431  0.2108 -0.1336
  354TIP3    H122553   4.598   5.007   0.173  0.1193  2.6936 -1.9705
  354TIP3    H222554   4.494   4.918   0.109  1.4904  0.7617 -1.5613
  355TIP3   OH222555   4.524   3.695  12.435 -0.0225  0.4260  0.3464
  355TIP3    H122556   4.528   3.661  12.346  2.2299  1.6399 -0.0771
  355TIP3    H222557   4.616   3.696  12.464 -0.7804 -0.4812  2.8899
  356TIP3   OH222558   6.532   4.579  12.786 -0.4640  0.0620  0.1333
  356TIP3    H122559   6.503   4.550  12.699  0.3912 -0.8501  0.1447
  356TIP3    H222560   6.488   4.663  12.799 -0.9888 -0.0314 -0.9750
  357TIP3   OH222561   2.738   2.827   6.153 -0.5923  0.0299 -0.0560
  357TIP3    H122562   2.774   2.887   6.218 -1.6737  0.3293  0.2615
  357TIP3    H222563   2.657   2.868   6.123 -0.5834 -0.5591 -0.9057
  358TIP3   OH222564   5.995   2.309   5.182 -0.1094 -0.1885 -0.3986
  358TIP3    H122565   6.077   2.358   5.194 -0.4474  0.4604 -0.7415
  358TIP3    H222566   5.946   2.326   5.262 -0.7222  0.9982 -1.0088
  359TIP3   OH222567   3.379   1.003  12.989  0.2627  0.1649  0.2170
  359TIP3    H122568   3.314   1.066  13.020 -1.4309 -2.7367  2.8037
  359TIP3    H222569   3.330   0.942  12.934  1.6925  0.4814 -1.4608
  360TIP3   OH222570   6.602   0.202  15.376  0.7151  0.2146 -0.0015
  360TIP3    H122571   6.524   0.209  15.430  0.7758 -0.6382  0.2108
  360TIP3    H222572   6.569   0.199  15.286  0.3526 -2.1098  0.1740
  361TIP3   OH222573   4.355   3.088  16.901  0.2059 -0.0563 -0.5748
  361TIP3    H122574   4.263   3.110  16.914  0.5183  0.4005  0.9302
  361TIP3    H222575   4.399   3.117  16.981  1.4460 -1.4937 -0.7062
  362TIP3   OH222576   6.460   6.756   4.371  0.0606 -0.0924  0.1188
  362TIP3    H122577   6.529   6.733   4.310 -0.7043 -0.0753 -0.7660
  362TIP3    H222578   6.504   6.805   4.441  1.0071 -0.5181 -0.1804
  363TIP3   OH222579   1.167   0.564  13.474 -0.0936  0.0274 -0.2905
  363TIP3    H122580   1.237   0.512  13.434  0.1973 -0.1949  0.5036
  363TIP3    H222581   1.213   0.634  13.521 -0.4950  1.2737 -1.6951
  364TIP3   OH222582   4.259   6.001  16.214 -0.1206  0.2717  0.3680
  364TIP3    H122583   4.227   5.932  16.155  1.1611  0.3792 -0.4624
  364TIP3    H222584   4.209   5.987  16.295 -2.1805  0.3749 -0.8572
  365TIP3   OH222585   2.402   5.828   0.615 -0.0302 -0.2059 -0.2816
  365TIP3    H122586   2.331   5.893   0.617  0.3185  0.1578  0.6834
  365TIP3    H222587   2.472   5.870   0.564 -1.4392 -1.5763 -3.4887
  366TIP3   OH222588   0.312   0.535  13.649  0.4740 -0.4119  0.4348
  366TIP3    H122589   0.382   0.510  13.589  0.0563 -2.5904  0.8257
  366TIP3    H222590   0.321   0.475  13.723  0.3248  1.5484  2.0922
  367TIP3   OH222591   1.604   2.920   3.468  0.3602 -0.2242  0.1021
  367TIP3    H122592   1.680   2.871   3.497  0.3744  0.3696  1.0711
  367TIP3    H222593   1.621   3.010   3.495 -1.1212 -0.2606  1.2031
  368TIP3   OH222594   5.732   0.127  12.713  0.2440  0.3178 -0.0818
  368TIP3    H122595   5.705   0.100  12.800 -0.4119 -1.5071 -0.8128
  368TIP3    H222596   5.825   0.105  12.708  0.2490  0.3029  0.0997
  369TIP3   OH222597   1.199   2.229  11.882 -0.4763 -0.1928 -0.2123
  369TIP3    H122598   1.224   2.195  11.968  2.8246  0.8363 -0.6712
  369TIP3    H222599   1.200   2.152  11.825  2.7246 -0.1144 -0.3706
  370TIP3   OH222600   1.483   6.513   4.791 -0.3956 -0.2542  0.5228
  370TIP3    H122601   1.544   6.514   4.718 -1.8909 -1.2142 -0.7697
  370TIP3    H222602   1.493   6.426   4.830 -0.6903 -0.2893  0.5231
  371TIP3   OH222603   0.411   1.722  16.855  0.0376 -0.0238 -1.0795
  371TIP3    H122604   0.369   1.703  16.939 -0.8197 -0.5139 -1.5970
  371TIP3    H222605   0.464   1.644  16.837  0.3077  0.1283 -0.9381
  372TIP3   OH222606   0.682   3.281   2.961  0.0875  0.0122  0.0601
  372TIP3    H122607   0.715   3.312   3.045 -1.0571  0.9681  0.1804
  372TIP3    H222608   0.611   3.220   2.983  0.0375 -0.0277 -0.2033
  373TIP3   OH222609   4.287   3.350  11.323  0.6333  0.5634  0.0896
  373TIP3    H122610   4.193   3.363  11.311  0.4073 -1.7286 -0.7016
  373TIP3    H222611   4.327   3.416  11.266 -0.4780 -0.2624 -1.6705
  374TIP3   OH222612   4.331   0.853   3.505  0.3150  0.0279  0.1221
  374TIP3    H122613   4.297   0.893   3.585  0.8022 -0.3879  0.5399
  374TIP3    H222614   4.387   0.782   3.535 -1.5176 -1.8145 -0.6088
  375TIP3   OH222615   4.300   6.364  14.741 -0.1933  0.1158 -0.4047
  375TIP3    H122616   4.208   6.360  14.715 -0.2088 -1.8232 -0.1317
  375TIP3    H222617   4.325   6.456  14.727 -1.2970  0.0301 -3.4367
  376TIP3   OH222618   4.781   1.830   4.375 -0.4520 -0.0825  0.1658
  376TIP3    H122619   4.829   1.834   4.292 -0.4487  1.8626  0.2362
  376TIP3    H222620   4.700   1.880   4.358 -0.0587  1.0486  1.5720
  377TIP3   OH222621   5.381   3.960   0.491 -0.0195  0.3563 -0.6407
  377TIP3    H122622   5.353   3.908   0.416  2.4395 -0.7581 -0.8587
  377TIP3    H222623   5.359   3.907   0.567  1.9714 -0.8069 -0.8377
  378TIP3   OH222624   1.162   1.254  16.363 -0.5014 -0.6379 -0.1995
  378TIP3    H122625   1.068   1.269  16.373 -0.1784 -0.3929  2.6722
  378TIP3    H222626   1.174   1.160  16.377 -0.1712 -0.4828  0.5590
  379TIP3   OH222627   0.565   6.733   5.817 -0.2295  0.7191 -0.3413
  379TIP3    H122628   0.646   6.775   5.788 -0.3108  0.5692 -0.7854
  379TIP3    H222629   0.578   6.718   5.911  0.3996  0.3840 -0.4784
  380TIP3   OH222630   2.324   5.182  13.346  0.2626  0.2628  0.0584
  380TIP3    H122631   2.355   5.171  13.256 -0.0132  0.5174 -0.0665
  380TIP3    H222632   2.294   5.095  13.372 -0.6330  0.4169 -0.4575
  381TIP3   OH222633   4.591   2.989  14.128 -0.6868  0.0109  0.1767
  381TIP3    H122634   4.668   3.032  14.164  1.4335 -2.4856 -1.2285
  381TIP3    H222635   4.560   3.047  14.059 -0.2748  1.1553  0.9370
  382TIP3   OH222636   2.897   6.356   0.080 -0.0653 -0.4434 -0.4609
  382TIP3    H122637   2.814   6.389   0.115 -0.5510 -3.0714  0.9729
  382TIP3    H222638   2.873   6.316  -0.004 -0.3072 -1.4031  0.0583
  383TIP3   OH222639   5.259   4.788   0.968  0.3585 -0.5334 -0.0841
  383TIP3    H122640   5.240   4.864   1.022  0.0231 -2.1882  2.2259
  383TIP3    H222641   5.348   4.763   0.990  0.4300 -0.8813 -0.7317
  384TIP3   OH222642   5.778   1.583   3.200 -0.5622 -0.6014 -0.4157
  384TIP3    H122643   5.727   1.657   3.166 -1.1824 -1.8511 -2.2582
  384TIP3    H222644   5.714   1.513   3.212  0.4329 -1.6329 -1.0885
  385TIP3   OH222645   4.645   5.686   5.398  0.5747  0.1116 -0.2888
  385TIP3    H122646   4.671   5.597   5.422  0.6156 -0.1641 -1.3316
  385TIP3    H222647   4.691   5.702   5.315 -1.1752  0.2904 -1.2322
  386TIP3   OH222648   4.262   1.974  10.551  0.1479 -0.2810 -0.1799
  386TIP3    H122649   4.174   2.011  10.546  0.4499  0.3139 -1.0406
  386TIP3    H222650   4.317   2.033  10.499  1.0219 -0.7558  0.1902
  387TIP3   OH222651   0.075   1.844  15.884  0.5373  0.0748  0.0405
  387TIP3    H122652   0.018   1.768  15.891  0.1689  0.3489  0.0623
  387TIP3    H222653   0.098   1.866  15.974  1.2055 -0.4305 -0.0089
  388TIP3   OH222654   2.166   4.791   0.567 -0.5375 -0.0294  0.5164
  388TIP3    H122655   2.245   4.780   0.513  0.0569  0.3913  1.2965
  388TIP3    H222656   2.093   4.779   0.506  0.1263 -1.2889 -0.0463
  389TIP3   OH222657   4.036   3.011   2.938 -0.1316 -0.4071  0.4554
  389TIP3    H122658   4.126   2.981   2.927  0.2323  0.7877  0.0134
  389TIP3    H222659   3.982   2.934   2.920  0.8156 -1.2878  1.3659
  390TIP3   OH222660   6.439   2.313   5.261 -1.0918  0.1703 -0.1686
  390TIP3    H122661   6.405   2.225   5.243  0.1233 -0.2794 -0.3257
  390TIP3    H222662   6.480   2.306   5.347  0.3936  0.1672 -0.8687
  391TIP3   OH222663   3.686   1.990  12.355 -0.0003  0.1431 -0.6923
  391TIP3    H122664   3.592   1.999  12.345  0.2495  1.8107 -1.6030
  391TIP3    H222665   3.712   1.927  12.287 -0.3906 -0.0143 -0.6953
  392TIP3   OH222666   2.846   2.572  15.008 -0.2367  0.3353  0.4158
  392TIP3    H122667   2.835   2.490  14.960  0.3014  0.8669 -0.6307
  392TIP3    H222668   2.936   2.599  14.989 -0.8068  1.8108 -0.2834
  393TIP3   OH222669   1.431   1.996   1.998 -0.1267  0.4824 -0.4844
  393TIP3    H122670   1.487   1.981   2.074 -0.8896 -0.5390 -0.1156
  393TIP3    H222671   1.378   1.917   1.991  0.4517  0.2384 -2.5275
  394TIP3   OH222672   4.661   1.238   1.723  0.3725  0.2575 -0.2554
  394TIP3    H122673   4.683   1.312   1.780  1.6567 -0.5687  0.3232
  394TIP3    H222674   4.593   1.190   1.770  1.0639 -0.1373  0.3225
  395TIP3   OH222675   3.245   4.246  15.644 -0.4964  0.2691  0.1973
  395TIP3    H122676   3.176   4.181  15.633 -1.4241  0.8162  2.5791
  395TIP3    H222677   3.203   4.330  15.627  0.0527  0.4600 -0.2391
  396TIP3   OH222678   6.757   4.960   3.130  0.5116 -0.2665  0.3364
  396TIP3    H122679   6.822   5.013   3.177  1.6740 -0.1448 -1.3624
  396TIP3    H222680   6.703   5.023   3.084  1.7150 -0.4926 -1.4548
  397TIP3   OH222681   5.673   0.346  14.139 -0.3984  0.2922 -0.2675
  397TIP3    H122682   5.620   0.349  14.218  0.4440  0.4378  0.3021
  397TIP3    H222683   5.751   0.297  14.164 -0.0260  0.5254 -0.9491
  398TIP3   OH222684   5.487   4.610  16.567 -0.3882 -0.1387  0.4630
  398TIP3    H122685   5.561   4.554  16.545 -0.0996  1.4558 -2.9148
  398TIP3    H222686   5.423   4.549  16.605  0.7041 -2.4262 -1.1852
  399TIP3   OH222687   6.681   3.729   3.992 -0.0413  0.5502 -0.5359
  399TIP3    H122688   6.757   3.743   3.936  2.2355 -0.6415  2.1334
  399TIP3    H222689   6.711   3.665   4.057 -3.2129  0.3673  0.8236
  400TIP3   OH222690   5.363   4.317  11.287 -0.0064  0.7030 -0.3308
  400TIP3    H122691   5.342   4.402  11.325 -0.2146  1.3654 -1.9065
  400TIP3    H222692   5.458   4.315  11.283  0.2033 -0.6736  3.1050
  401TIP3   OH222693   1.212   6.287   0.644  0.1542 -0.3939 -0.0945
  401TIP3    H122694   1.230   6.325   0.558  2.1030  0.6664  0.7636
  401TIP3    H222695   1.290   6.237   0.665 -1.0540 -2.1626  0.2794
  402TIP3   OH222696   4.585   3.709   2.710  0.0943 -0.2560  0.4178
  402TIP3    H122697   4.496   3.688   2.680  0.2948 -1.1924  0.4737
  402TIP3    H222698   4.600   3.798   2.678 -0.0751 -0.8627 -1.4088
  403TIP3   OH222699   3.707   4.712   1.416  0.1271  0.2854  0.0952
  403TIP3    H122700   3.634   4.663   1.455  1.2734  0.4195  2.4849
  403TIP3    H222701   3.783   4.690   1.469  1.7982  0.4587 -2.1295
  404TIP3   OH222702   2.881   3.696   4.473  0.5499 -0.3347 -0.1768
  404TIP3    H122703   2.864   3.784   4.508  1.6726  0.1327 -0.7574
  404TIP3    H222704   2.806   3.678   4.416  0.1884  0.1514  0.1412
  405TIP3   OH222705   5.574   5.812   2.394  0.0303  0.2648 -0.1710
  405TIP3    H122706   5.598   5.896   2.355 -2.1418  0.8986 -0.1933
  405TIP3    H222707   5.655   5.780   2.433  1.1151  1.8899 -1.0378
  406TIP3   OH222708   3.730   3.234   6.709 -0.0314 -0.0240 -0.4532
  406TIP3    H122709   3.788   3.308   6.728 -1.1189  0.4548  1.0951
  406TIP3    H222710   3.642   3.273   6.706 -0.4118 -0.9593 -1.4107
  407TIP3   OH222711   2.194   6.393  12.324  0.6107  0.1257 -0.2345
  407TIP3    H122712   2.223   6.304  12.348 -2.7384 -1.8033 -2.8372
  407TIP3    H222713   2.100   6.393  12.344  0.5855  3.2098 -0.1196
  408TIP3   OH222714   1.255   0.004   6.130  0.4025 -0.0663  0.1744
  408TIP3    H122715   1.282   0.035   6.216 -0.0213  2.0715 -0.4251
  408TIP3    H222716   1.162   0.026   6.124  0.7751  1.2082 -1.3940
  409TIP3   OH222717   4.019   4.401   3.357 -0.0628 -0.2271  0.2615
  409TIP3    H122718   3.970   4.482   3.344  1.7852  1.0734  1.2873
  409TIP3    H222719   3.951   4.333   3.364 -1.5838  1.0333 -1.7403
  410TIP3   OH222720   2.596   5.805   1.292  0.9568 -0.1567  0.6714
  410TIP3    H122721   2.530   5.816   1.223  0.0084 -0.1340  1.5778
  410TIP3    H222722   2.569   5.726   1.339  1.1788  0.2504  1.4936
  411TIP3   OH222723   3.973   5.200  13.872 -0.2621 -0.2388 -0.0938
  411TIP3    H122724   3.964   5.108  13.850 -0.0216  0.0263 -1.3241
  411TIP3    H222725   4.067   5.218  13.864 -0.1872 -0.0867  0.9817
  412TIP3   OH222726   1.551   1.527   4.011 -0.2363  0.2406  0.1292
  412TIP3    H122727   1.545   1.458   3.945  0.4429  0.5089 -0.2208
  412TIP3    H222728   1.477   1.511   4.070 -0.2424 -0.6155 -0.1105
  413TIP3   OH222729   0.351   5.427   3.790  0.5635 -0.5648  0.6014
  413TIP3    H122730   0.446   5.413   3.790  0.4382 -1.4343  0.9276
  413TIP3    H222731   0.315   5.349   3.832 -0.2681  0.0076  0.9624
  414TIP3   OH222732   6.321   3.004  17.156  0.3501 -0.1837 -0.5986
  414TIP3    H122733   6.285   3.089  17.181  0.5687 -0.8359  2.1629
  414TIP3    H222734   6.344   3.013  17.064 -1.8338  1.9671 -0.9560
  415TIP3   OH222735   4.114   0.602  12.313 -0.0386 -0.2451 -0.1728
  415TIP3    H122736   4.058   0.554  12.252  0.4839 -0.1985 -0.6923
  415TIP3    H222737   4.200   0.562  12.303  0.6558  1.5194 -1.4095
  416TIP3   OH222738   0.792   1.674   6.049 -0.4800  0.4697  0.2871
  416TIP3    H122739   0.873   1.647   6.092 -0.6211 -0.1095  0.1884
  416TIP3    H222740   0.807   1.766   6.027  0.0443  0.4435  0.5150
  417TIP3   OH222741   0.098   1.946   5.351 -0.3089 -0.0215 -0.1918
  417TIP3    H122742   0.010   1.945   5.389 -0.4008  0.2401 -0.4008
  417TIP3    H222743   0.101   1.867   5.296  0.2175 -1.0352  1.2457
  418TIP3   OH222744   5.866   2.091  17.256  0.3089 -0.0690 -0.4360
  418TIP3    H122745   5.796   2.143  17.218 -0.6233 -0.6230  0.4877
  418TIP3    H222746   5.826   2.006  17.274  1.2514 -0.4399 -0.0292
  419TIP3   OH222747   0.383   3.665  15.965 -0.3222  0.0971  0.2206
  419TIP3    H122748   0.335   3.600  16.016 -0.3637 -0.5680 -0.6726
  419TIP3    H222749   0.322   3.739  15.958 -0.9979 -0.5057 -0.3862
  420TIP3   OH222750   2.052   5.230  12.224 -0.2234 -0.0012  0.3616
  420TIP3    H122751   2.145   5.219  12.204 -0.1340  0.7212  0.3602
  420TIP3    H222752   2.045   5.320  12.254 -0.6047 -0.6335  2.2535
  421TIP3   OH222753   2.877   3.424  16.451  0.0941  0.2137 -0.3208
  421TIP3    H122754   2.810   3.361  16.478  0.9469 -0.9341 -0.8493
  421TIP3    H222755   2.838   3.468  16.376 -0.9816  1.1564  0.7716
  422TIP3   OH222756   0.065   3.863   0.415 -0.2150  0.4870 -0.3542
  422TIP3    H122757   0.027   3.936   0.464  0.2097  0.1891  0.4436
  422TIP3    H222758  -0.007   3.828   0.363 -1.2013 -0.4153  1.5428
  423TIP3   OH222759   4.338   2.307   3.750  0.6349 -0.1837  0.0215
  423TIP3    H122760   4.385   2.243   3.696  1.4176  1.5042 -1.3750
  423TIP3    H222761   4.383   2.390   3.732 -0.0330  0.6746  2.1813
  424TIP3   OH222762   5.858   0.249   3.991 -0.1401 -0.0563 -0.0081
  424TIP3    H122763   5.857   0.168   4.043 -0.7132 -0.9932 -1.4174
  424TIP3    H222764   5.950   0.272   3.985 -0.0553 -0.0380  1.2615
  425TIP3   OH222765   2.501   3.368  11.968  0.5544 -0.0228  0.2634
  425TIP3    H122766   2.412   3.335  11.981  0.7980 -0.4224  0.9665
  425TIP3    H222767   2.495   3.425  11.892 -0.0334 -1.1081 -0.5239
  426TIP3   OH222768   0.268   2.141   0.838 -0.4293 -0.3649  0.0295
  426TIP3    H122769   0.344   2.084   0.847 -0.5615 -0.7462 -1.1799
  426TIP3    H222770   0.239   2.129   0.748 -0.4731  1.6172 -0.2569
  427TIP3   OH222771   0.829   5.054   4.573  0.0913  0.4051 -0.7467
  427TIP3    H122772   0.806   4.962   4.574 -2.4057  1.0038  0.3745
  427TIP3    H222773   0.750   5.099   4.543 -0.4635  2.6048  3.6361
  428TIP3   OH222774   2.987   2.966   4.805 -0.0836 -0.3172 -0.2190
  428TIP3    H122775   3.061   3.027   4.807  0.3228 -0.8209  0.6626
  428TIP3    H222776   3.021   2.887   4.847  0.0246 -1.8848 -3.1787
  429TIP3   OH222777   5.419   1.944   0.043  0.3375 -0.0458 -0.0993
  429TIP3    H122778   5.447   1.864  -0.002  0.0522 -0.4929  0.5172
  429TIP3    H222779   5.468   1.943   0.126  1.8895  1.4533 -0.9631
  430TIP3   OH222780   2.623   1.537  15.343 -0.4105 -0.6531 -0.5073
  430TIP3    H122781   2.569   1.477  15.395  0.0438 -0.6828 -0.0711
  430TIP3    H222782   2.694   1.483  15.309 -0.6944 -0.6307 -1.1549
  431TIP3   OH222783   0.845   4.519   0.117  0.1274 -0.0775  0.1264
  431TIP3    H122784   0.869   4.511   0.209  1.5279 -1.3345 -0.3401
  431TIP3    H222785   0.768   4.463   0.107 -1.6763  2.1543  1.1071
  432TIP3   OH222786   0.281   4.737  15.485  0.4266  0.2913  0.4614
  432TIP3    H122787   0.308   4.829  15.484 -2.3727  1.1503 -0.6065
  432TIP3    H222788   0.313   4.703  15.402 -0.8453  1.0371 -0.3529
  433TIP3   OH222789   6.576   1.892   2.245  0.0340  0.0144  0.0364
  433TIP3    H122790   6.517   1.830   2.201  2.1051 -2.7384  0.9805
  433TIP3    H222791   6.595   1.851   2.330  3.1647  0.8785 -0.1814
  434TIP3   OH222792   1.128   5.916   3.528  0.5074 -0.4396  0.4174
  434TIP3    H122793   1.099   5.957   3.609  0.8713 -0.1870  0.4178
  434TIP3    H222794   1.086   5.967   3.459  1.2952  0.1959  0.4045
  435TIP3   OH222795   4.933   4.040   5.239  0.5193 -0.4997 -0.4183
  435TIP3    H122796   4.858   4.062   5.295  1.2720 -1.0966  0.8566
  435TIP3    H222797   5.007   4.035   5.300  1.9150  1.6041 -1.8521
  436TIP3   OH222798   0.904   2.620   5.140  0.1499  0.3187 -0.3351
  436TIP3    H122799   0.922   2.614   5.234  2.2687 -0.1731 -0.7507
  436TIP3    H222800   0.977   2.671   5.104  0.1571 -0.7582 -1.9234
  437TIP3   OH222801   2.146   5.886   6.858  0.5460 -0.3671  0.0709
  437TIP3    H122802   2.190   5.917   6.937  2.2862 -0.8194 -0.6966
  437TIP3    H222803   2.053   5.907   6.872  0.9913  0.5613  1.7380
  438TIP3   OH222804   1.350   2.828  11.738 -0.3180 -0.2159  0.1736
  438TIP3    H122805   1.413   2.799  11.803 -1.0283 -0.1919  0.8788
  438TIP3    H222806   1.403   2.865  11.668  0.3829  1.8178  1.7212
  439TIP3   OH222807   2.563   2.764  13.358 -0.2645  0.1975  0.2269
  439TIP3    H122808   2.596   2.716  13.434 -1.3683  0.9343  1.1964
  439TIP3    H222809   2.641   2.781  13.305  0.3920 -1.0702  0.7613
  440TIP3   OH222810   5.870   4.917   2.741  0.5170  0.2715 -0.1596
  440TIP3    H122811   5.963   4.922   2.764  0.0887 -1.0805  2.0498
  440TIP3    H222812   5.824   4.936   2.824 -1.1432 -1.6283 -0.6150
  441TIP3   OH222813   3.344   4.662   4.301 -0.2897 -0.2200 -0.1132
  441TIP3    H122814   3.319   4.640   4.211  0.5035 -1.3015 -0.0872
  441TIP3    H222815   3.365   4.755   4.298 -1.5712  0.0607 -0.7450
  442TIP3   OH222816   6.627   1.273   3.220 -0.3747  0.3005  0.1055
  442TIP3    H122817   6.615   1.365   3.199 -1.3566  0.0851 -0.2778
  442TIP3    H222818   6.706   1.271   3.275 -0.2946  1.3471  0.0324
  443TIP3   OH222819   5.796   6.473   6.281 -0.2977  0.3466  0.0663
  443TIP3    H122820   5.887   6.448   6.293 -0.7824 -1.3946  0.2649
  443TIP3    H222821   5.799   6.564   6.250  1.4431  0.6844  1.2131
  444TIP3   OH222822   0.372   5.178   2.145  0.2603 -0.0372  0.7788
  444TIP3    H122823   0.424   5.117   2.093 -1.8187 -0.2770 -1.1145
  444TIP3    H222824   0.398   5.265   2.113 -1.7190 -0.2190 -1.4230
  445TIP3   OH222825   1.202   2.099   5.031  0.0408 -0.3038 -0.0298
  445TIP3    H122826   1.212   2.104   4.936  0.4107 -0.3352  0.0076
  445TIP3    H222827   1.275   2.045   5.061 -2.3243 -3.7243 -0.1332
  446TIP3   OH222828   1.043   2.854   3.831  0.4350 -0.0740  0.2809
  446TIP3    H122829   1.044   2.887   3.921  1.3203 -0.0920  0.2817
  446TIP3    H222830   1.136   2.845   3.808  0.2257 -2.5080  0.2711
  447TIP3   OH222831   6.585   0.359   5.797  0.0654  0.4444  0.4944
  447TIP3    H122832   6.569   0.401   5.713 -1.5107 -0.3529  0.3678
  447TIP3    H222833   6.680   0.348   5.801  0.0774 -0.4451 -1.6539
  448TIP3   OH222834   4.745   1.438   1.353  0.3579  0.0010 -0.5279
  448TIP3    H122835   4.747   1.529   1.326 -0.7670 -0.0245 -0.7084
  448TIP3    H222836   4.826   1.426   1.404  0.6395  1.0141 -0.7343
  449TIP3   OH222837   6.611   3.164  17.066 -0.1853 -0.3556  0.4371
  449TIP3    H122838   6.702   3.162  17.095 -0.2438 -0.0325  0.6468
  449TIP3    H222839   6.605   3.093  17.003  0.2313 -0.3337  0.3682
  450TIP3   OH222840   5.124   5.361   6.362 -0.4750 -0.2246 -0.4447
  450TIP3    H122841   5.174   5.280   6.374  2.7701  2.0102  2.1099
  450TIP3    H222842   5.173   5.409   6.296 -0.7522  0.8176  0.0960
  451TIP3   OH222843   6.801   0.845  12.056  0.7221  0.4744  0.0061
  451TIP3    H122844   6.746   0.919  12.030  1.6817  1.1232 -0.2234
  451TIP3    H222845   6.890   0.873  12.034  0.9142 -1.5511 -1.9083
  452TIP3   OH222846   4.066   4.378   1.938  0.6216 -0.4380 -0.2363
  452TIP3    H122847   4.160   4.382   1.922  0.2927  0.6999 -2.0054
  452TIP3    H222848   4.054   4.418   2.024  1.7455 -0.5424 -0.0231
  453TIP3   OH222849   5.707   0.398  11.058 -0.1448 -0.0643  0.0024
  453TIP3    H122850   5.780   0.460  11.068  0.2709 -0.0530 -2.6495
  453TIP3    H222851   5.736   0.319  11.103  0.9646  0.3786  0.0902
  454TIP3   OH222852   2.276   3.323  14.719 -0.3749 -0.1121  0.4485
  454TIP3    H122853   2.270   3.260  14.647 -0.4861  2.7174 -2.0868
  454TIP3    H222854   2.268   3.269  14.798 -0.6463 -3.2489 -1.6264
  455TIP3   OH222855   6.398   4.614   4.799  0.5548  0.0983 -0.0450
  455TIP3    H122856   6.334   4.658   4.855  1.6399 -0.7019  1.8501
  455TIP3    H222857   6.350   4.541   4.761 -0.0486  0.3679  0.1971
  456TIP3   OH222858   1.669   4.684   5.312  0.1381  0.2710  0.6675
  456TIP3    H122859   1.758   4.683   5.277 -0.1336  0.0619 -0.0290
  456TIP3    H222860   1.613   4.683   5.234 -0.4768 -0.9088  1.1114
  457TIP3   OH222861   4.926   4.319  15.098 -0.4028 -0.9645 -0.7117
  457TIP3    H122862   4.874   4.269  15.035 -0.4604 -3.7320  1.4433
  457TIP3    H222863   4.928   4.265  15.176  3.0692  0.5396  0.3449
  458TIP3   OH222864   3.754   6.063   4.791 -0.2809  0.2197 -0.1057
  458TIP3    H122865   3.691   5.992   4.781  1.3555 -1.3458  0.4268
  458TIP3    H222866   3.822   6.045   4.727  0.1159  1.3625 -0.0235
  459TIP3   OH222867   4.994   0.861   0.502  0.0239  0.6946  0.4494
  459TIP3    H122868   4.948   0.938   0.534 -2.4044  0.4967 -2.3412
  459TIP3    H222869   4.926   0.793   0.497  1.3858 -0.6325 -0.3381
  460TIP3   OH222870   2.443   3.885   4.489  0.0150 -0.6985 -0.6452
  460TIP3    H122871   2.494   3.875   4.408  1.8415 -2.4642  0.6921
  460TIP3    H222872   2.463   3.974   4.519  1.1618 -0.8471 -0.9290
  461TIP3   OH222873   4.478   6.597  10.944 -0.4194  0.2420  0.1143
  461TIP3    H122874   4.472   6.504  10.965  0.3608  0.1229 -0.1737
  461TIP3    H222875   4.502   6.600  10.851 -0.8197  0.7371  0.0185
  462TIP3   OH222876   4.569   5.895  13.249  0.1291 -0.1251 -0.5812
  462TIP3    H122877   4.542   5.874  13.338 -1.1691 -2.0988 -1.3884
  462TIP3    H222878   4.489   5.928  13.207 -0.2941 -2.7924 -2.0302
  463TIP3   OH222879   1.415   5.822  16.772  0.5365 -0.5587  0.0515
  463TIP3    H122880   1.463   5.775  16.704  1.4626 -0.9693  0.9731
  463TIP3    H222881   1.330   5.843  16.732  1.3902 -0.0226 -1.5140
  464TIP3   OH222882   6.387   3.075   0.624 -0.5611  0.3656 -0.2842
  464TIP3    H122883   6.439   2.998   0.642 -0.3994  1.0061  2.2031
  464TIP3    H222884   6.435   3.121   0.555  0.4367 -0.6763 -0.3012
  465TIP3   OH222885   2.082   4.177   3.413 -0.2061  0.2351 -0.1234
  465TIP3    H122886   2.091   4.109   3.347 -0.9506  1.5753 -1.6216
  465TIP3    H222887   2.096   4.259   3.366 -3.1086  1.3595  0.8860
  466TIP3   OH222888   3.125   4.132   2.430 -0.5974  0.1716  0.3758
  466TIP3    H122889   3.032   4.113   2.426 -1.0990  2.4376  0.6596
  466TIP3    H222890   3.153   4.136   2.339 -1.8257  4.1217  0.0580
  467TIP3   OH222891   2.172   6.336   5.812 -0.2038  0.1656  0.0609
  467TIP3    H122892   2.211   6.251   5.829 -2.4337 -0.2062  4.0103
  467TIP3    H222893   2.094   6.317   5.759 -0.8340 -0.3334  1.1445
  468TIP3   OH222894   0.887   5.303  16.929  0.4713  0.1805  0.1045
  468TIP3    H122895   0.816   5.257  16.975  2.0087 -0.0982  2.3218
  468TIP3    H222896   0.860   5.304  16.837 -2.5600  0.4255  0.9425
  469TIP3   OH222897   0.988   3.084   2.365  0.1245 -0.3810 -0.1013
  469TIP3    H122898   0.900   3.117   2.347 -0.1750 -1.2363 -0.2580
  469TIP3    H222899   1.034   3.157   2.407  0.1333  0.9333 -2.3032
  470TIP3   OH222900   4.785   1.708   1.310  0.0019 -0.3970  0.1654
  470TIP3    H122901   4.724   1.767   1.355 -1.2382  1.2796 -3.5187
  470TIP3    H222902   4.872   1.742   1.331 -0.6810  2.5878 -1.5470
  471TIP3   OH222903   2.348   2.881  14.130 -0.1138 -0.0414 -0.0894
  471TIP3    H122904   2.426   2.836  14.099  0.1683  0.8108 -0.6548
  471TIP3    H222905   2.346   2.962  14.080 -1.1240  0.1449  0.2353
  472TIP3   OH222906   6.615   6.724  17.207 -0.6094  0.3469 -0.1022
  472TIP3    H122907   6.589   6.688  17.122 -0.7947  2.0143 -0.7888
  472TIP3    H222908   6.565   6.806  17.214  0.6157  1.0261  0.8671
  473TIP3   OH222909   0.155   2.444   1.118 -0.2982  0.5349  0.2654
  473TIP3    H122910   0.090   2.507   1.149  1.6233  1.7275  2.0459
  473TIP3    H222911   0.157   2.376   1.185  2.5656  2.1968  2.0180
  474TIP3   OH222912   4.365   4.195   2.513 -0.1444  0.3862  0.1972
  474TIP3    H122913   4.323   4.274   2.546 -0.1282 -0.5101  2.4607
  474TIP3    H222914   4.297   4.128   2.517  0.2728 -0.0725 -0.2972
  475TIP3   OH222915   2.947   2.266  14.021  0.4175  0.1127  0.4707
  475TIP3    H122916   2.957   2.331  13.951 -1.5714  0.7752  0.7650
  475TIP3    H222917   3.020   2.284  14.081  1.8085 -0.0907 -1.1262
  476TIP3   OH222918   2.407   1.640  15.762  0.3156 -0.2543 -0.0387
  476TIP3    H122919   2.403   1.637  15.857 -2.1323 -3.4078 -0.1560
  476TIP3    H222920   2.332   1.692  15.736 -0.0219 -0.8518 -0.2777
  477TIP3   OH222921   3.231   2.897   4.488  0.6909  0.1140 -0.0920
  477TIP3    H122922   3.141   2.906   4.457  0.6816 -0.9506 -0.4132
  477TIP3    H222923   3.252   2.804   4.474  3.0768  1.0679 -3.3901
  478TIP3   OH222924   2.480   4.049  14.366 -0.6888  0.1174  0.7052
  478TIP3    H122925   2.549   4.018  14.424 -0.6037  0.3094  0.7061
  478TIP3    H222926   2.399   4.025  14.410 -0.6305 -1.8614 -0.2210
  479TIP3   OH222927   0.713   1.565   2.458  0.3383  1.0172 -0.7201
  479TIP3    H122928   0.770   1.579   2.533 -0.1380  1.1595 -0.3897
  479TIP3    H222929   0.640   1.625   2.470 -0.9713 -0.6507 -0.0358
  480TIP3   OH222930   1.500   1.294  13.007  0.2052  0.1527  0.0528
  480TIP3    H122931   1.482   1.213  12.959 -0.1106  0.6735 -0.7152
  480TIP3    H222932   1.594   1.307  12.998  0.2711 -0.1767  0.2564
  481TIP3   OH222933   4.087   1.505  16.309 -0.2966  0.3712  0.5823
  481TIP3    H122934   4.152   1.555  16.260 -1.8504  2.5174  0.6288
  481TIP3    H222935   4.004   1.526  16.267 -0.9538 -2.5832  0.3220
  482TIP3   OH222936   1.185   1.195   4.037 -0.1818 -0.6366  0.1505
  482TIP3    H122937   1.265   1.144   4.051  1.6226  2.1683  0.6306
  482TIP3    H222938   1.173   1.243   4.119 -0.6180  1.2584 -0.9786
  483TIP3   OH222939   3.875   4.560   6.104  0.0175  0.1431  0.4456
  483TIP3    H122940   3.780   4.555   6.091  0.0743  1.5993 -0.6951
  483TIP3    H222941   3.885   4.592   6.194 -0.6643  2.7729 -0.3592
  484TIP3   OH222942   3.941   1.859  11.685 -0.7826  0.0329  0.6128
  484TIP3    H122943   3.996   1.827  11.757  0.9915  0.3809 -0.5466
  484TIP3    H222944   3.960   1.800  11.612 -1.2501  0.7151 -0.0696
  485TIP3   OH222945   3.903   5.717  12.080 -0.1913  0.4255 -0.0086
  485TIP3    H122946   3.813   5.704  12.051 -0.4144 -2.0119  1.6539
  485TIP3    H222947   3.925   5.806  12.051 -2.6833  0.5876 -1.5244
  486TIP3   OH222948   3.728   0.215  13.903  0.3618 -0.1688  0.2993
  486TIP3    H122949   3.720   0.161  13.981  0.7370  0.8264  1.0298
  486TIP3    H222950   3.673   0.171  13.838 -0.9068 -0.3495  1.4683
  487TIP3   OH222951   5.793   5.174   4.114  0.0659 -0.2094  0.0780
  487TIP3    H122952   5.718   5.209   4.065 -0.6270  0.4250  1.5567
  487TIP3    H222953   5.759   5.096   4.157  0.0505  0.4576  1.2974
  488TIP3   OH222954   2.549   2.968  16.172  0.0594 -0.4041 -0.6333
  488TIP3    H122955   2.525   2.884  16.132  0.0447 -0.4568 -0.5126
  488TIP3    H222956   2.521   2.961  16.263 -3.2955  1.0977 -1.4742
  489TIP3   OH222957   3.992   1.954   2.799  0.3418  0.1885  0.0610
  489TIP3    H122958   3.964   1.922   2.714 -1.5937 -0.9462  1.1053
  489TIP3    H222959   4.040   1.881   2.839 -2.7948 -1.0227  1.8241
  490TIP3   OH222960   6.644   0.059  11.257 -0.2299  0.2222  0.1525
  490TIP3    H122961   6.620   0.050  11.349 -0.0315  0.7086  0.2486
  490TIP3    H222962   6.617   0.148  11.233  0.3539  0.3381 -0.0745
  491TIP3   OH222963   0.101   1.744   2.806  0.0955 -0.4656 -0.6075
  491TIP3    H122964   0.126   1.809   2.740 -1.6410  0.0521 -0.7728
  491TIP3    H222965   0.163   1.673   2.794  1.2399  0.6283 -1.2568
  492TIP3   OH222966   5.649   4.451   0.363  0.2625 -0.7053  0.2134
  492TIP3    H122967   5.634   4.410   0.448  1.1619 -0.0548  0.6934
  492TIP3    H222968   5.599   4.398   0.301 -0.1779 -1.3401  1.1120
  493TIP3   OH222969   1.589   6.399   5.325  0.3477  0.3702  0.3167
  493TIP3    H122970   1.571   6.356   5.409 -0.3023 -0.7537 -0.3931
  493TIP3    H222971   1.549   6.342   5.259  0.1628  1.6555 -0.7041
  494TIP3   OH222972   6.739   0.601  15.896 -0.0784 -0.6957  0.0393
  494TIP3    H122973   6.834   0.603  15.895 -0.1013  0.6089 -0.1115
  494TIP3    H222974   6.713   0.661  15.826 -1.0141  0.4054  1.3101
  495TIP3   OH222975   2.817   1.627  13.663 -0.2841  0.4046 -0.1062
  495TIP3    H122976   2.876   1.565  13.621 -2.0243 -1.8746  0.6890
  495TIP3    H222977   2.866   1.659  13.739  0.7280  0.2117 -0.6693
  496TIP3   OH222978   6.427   1.256  15.761 -0.3889  0.1007  0.4908
  496TIP3    H122979   6.473   1.253  15.845  1.7883  2.3091 -0.5499
  496TIP3    H222980   6.430   1.349  15.736 -3.1483 -0.1306 -0.8993
  497TIP3   OH222981   0.776   0.795   2.106 -0.0069  0.6830  0.1762
  497TIP3    H122982   0.846   0.858   2.087 -0.9839  1.3820 -1.1940
  497TIP3    H222983   0.769   0.794   2.201  1.1989  1.3457  0.2772
  498TIP3   OH222984   1.053   3.088   6.515  0.0334  0.4991  0.2490
  498TIP3    H122985   1.052   3.027   6.588 -1.4787 -0.2367 -0.3678
  498TIP3    H222986   1.135   3.136   6.525  0.5105 -0.5685  1.6102
  499TIP3   OH222987   4.884   5.620  15.736  0.0885  0.7512 -0.5857
  499TIP3    H122988   4.833   5.632  15.815 -0.6591 -1.8574 -0.6356
  499TIP3    H222989   4.975   5.624  15.765 -0.1875 -0.7694  0.4924
  500TIP3   OH222990   6.182   4.798   0.336 -0.1339  0.2077  0.1093
  500TIP3    H122991   6.244   4.851   0.286 -0.8838  2.0469  1.0921
  500TIP3    H222992   6.199   4.821   0.428 -1.8922  0.3502  0.4202
  501TIP3   OH222993   6.389   3.896  12.327  0.4918  0.7768  1.0742
  501TIP3    H122994   6.457   3.935  12.383  0.0002  0.0470  2.2080
  501TIP3    H222995   6.324   3.862  12.389  0.3158 -0.7575  0.0791
  502TIP3   OH222996   1.540   4.343  13.194  0.1304 -0.1413  0.3699
  502TIP3    H122997   1.497   4.384  13.269  0.4828 -1.4411  1.2936
  502TIP3    H222998   1.473   4.287  13.155  0.1063  0.1299  0.0149
  503TIP3   OH222999   4.317   3.064  10.926  0.3607 -0.3624  0.5302
  503TIP3    H123000   4.229   3.030  10.910 -0.2439  0.8394  1.2202
  503TIP3    H223001   4.341   3.109  10.845 -0.5615  1.1970  1.1058
  504TIP3   OH223002   0.477   5.807  13.692  0.5955  0.6334  0.0062
  504TIP3    H123003   0.529   5.781  13.616  3.1441 -2.2127  2.5505
  504TIP3    H223004   0.496   5.900  13.704 -0.7926  1.4343 -3.4506
  505TIP3   OH223005   1.758   4.560   1.708 -0.6892  0.1427  0.2089
  505TIP3    H123006   1.787   4.608   1.785  2.4198  0.9007 -1.3392
  505TIP3    H223007   1.798   4.606   1.634 -0.3382 -2.8126 -1.5590
  506TIP3   OH223008   6.116   5.579   1.409 -0.0117  0.0441 -0.3482
  506TIP3    H123009   6.171   5.609   1.481 -1.1312  1.5018 -0.0768
  506TIP3    H223010   6.046   5.530   1.452  1.2198 -2.1035 -0.7141
  507TIP3   OH223011   0.094   3.903  17.126 -0.0737 -0.4149  0.3241
  507TIP3    H123012   0.114   3.932  17.037 -0.9553 -0.2080  0.1807
  507TIP3    H223013   0.025   3.962  17.155  0.7830  0.0418  1.4573
  508TIP3   OH223014   6.113   1.528   5.112  0.2603  0.2708  0.0314
  508TIP3    H123015   6.069   1.610   5.090  0.7716  1.1740  2.2460
  508TIP3    H223016   6.048   1.460   5.098 -1.1587  1.3761  1.1377
  509TIP3   OH223017   1.107   4.175  12.930 -0.3151  0.7177 -0.4524
  509TIP3    H123018   1.187   4.185  12.982 -1.6229  2.1242  1.3616
  509TIP3    H223019   1.113   4.087  12.893  1.7801  0.5784  0.1504
  510TIP3   OH223020   3.530   0.461  10.552  0.2203 -0.3840  0.5624
  510TIP3    H123021   3.500   0.423  10.469  1.8466  0.3288 -0.3985
  510TIP3    H223022   3.491   0.548  10.554  2.1675  0.5740 -0.7257
  511TIP3   OH223023   6.649   4.363   0.532  0.2444  0.1440 -0.2900
  511TIP3    H123024   6.592   4.352   0.456 -1.0724  0.6506  0.6074
  511TIP3    H223025   6.732   4.394   0.496 -0.6207  1.1519 -1.4459
  512TIP3   OH223026   3.799   2.983   4.907 -0.0633 -0.0698 -0.3678
  512TIP3    H123027   3.746   2.949   4.979  0.1982  0.8069  0.2380
  512TIP3    H223028   3.831   2.904   4.862 -0.5605 -0.6125  0.2214
  513TIP3   OH223029   0.551   0.421  16.645 -0.0817 -0.1307 -0.0696
  513TIP3    H123030   0.532   0.490  16.581  1.2119 -0.9146 -1.3129
  513TIP3    H223031   0.517   0.341  16.605  2.1898 -0.8865 -0.5377
  514TIP3   OH223032   3.074   0.934   0.690 -0.2276 -0.5253 -0.1986
  514TIP3    H123033   3.021   0.926   0.770  2.6798  1.7992  2.0767
  514TIP3    H223034   3.084   0.844   0.660 -1.9775 -1.3952  1.6658
  515TIP3   OH223035   0.907   1.946  14.872 -0.6434  0.2331  0.2127
  515TIP3    H123036   0.871   2.032  14.894  0.4823  0.6872  0.2753
  515TIP3    H223037   0.877   1.889  14.942  1.7572  1.3684  2.2163
  516TIP3   OH223038   6.548   4.403  15.348  0.6112  0.3816  0.2017
  516TIP3    H123039   6.530   4.309  15.358  0.2972  0.3607 -0.5393
  516TIP3    H223040   6.464   4.446  15.361  0.7499  0.5654  0.5122
  517TIP3   OH223041   5.387   1.750   0.973  0.0307  0.1206  0.3584
  517TIP3    H123042   5.311   1.695   0.997  0.3821 -0.8985 -0.8097
  517TIP3    H223043   5.363   1.838   1.002 -1.7559 -0.1302 -0.2969
  518TIP3   OH223044   4.490   4.513   4.407 -0.2600 -0.3443  0.7966
  518TIP3    H123045   4.453   4.525   4.495 -1.2404  1.1814  0.1936
  518TIP3    H223046   4.428   4.455   4.362  0.8634 -2.1167  1.4672
  519TIP3   OH223047   0.321   5.782  16.203 -0.6589  0.3440  0.1703
  519TIP3    H123048   0.302   5.689  16.189  0.7022 -0.0529  0.8837
  519TIP3    H223049   0.309   5.794  16.298  0.0052  0.6940  0.2129
  520TIP3   OH223050   6.599   5.514   3.725 -0.5830  0.3338  1.0417
  520TIP3    H123051   6.664   5.450   3.695 -0.8825 -0.5532  2.2298
  520TIP3    H223052   6.637   5.599   3.703 -0.6435 -0.2576 -1.4993
  521TIP3   OH223053   0.636   0.199  14.582  0.0627  0.6321  0.3170
  521TIP3    H123054   0.599   0.137  14.645 -1.3331 -1.9844 -2.9222
  521TIP3    H223055   0.560   0.235  14.536  1.1678 -0.9728 -2.9213
  522TIP3   OH223056   2.559   3.994  15.409 -0.3955  0.2701  0.6214
  522TIP3    H123057   2.554   4.081  15.447  2.1355  1.3804 -1.4608
  522TIP3    H223058   2.652   3.972  15.409 -0.7484 -1.4139 -1.0872
  523TIP3   OH223059   5.655   1.357  12.401  0.3148 -0.3954  0.5917
  523TIP3    H123060   5.736   1.306  12.400  1.5162  1.4524 -0.1036
  523TIP3    H223061   5.683   1.444  12.432 -1.4886  0.1292  0.7675
  524TIP3   OH223062   2.521   4.871   6.589 -0.0796  0.1067  0.2489
  524TIP3    H123063   2.516   4.830   6.675  1.2319  0.0375  0.3073
  524TIP3    H223064   2.592   4.934   6.597 -0.4688  0.6494 -0.5570
  525TIP3   OH223065   2.161   6.509   1.257 -0.7082  0.2806 -0.5250
  525TIP3    H123066   2.087   6.467   1.300 -0.7274  1.0833  0.2234
  525TIP3    H223067   2.237   6.481   1.309 -0.4590 -0.6808 -1.3920
  526TIP3   OH223068   1.009   2.544  13.687 -0.2663  0.1947 -0.7315
  526TIP3    H123069   0.946   2.575  13.622 -0.9107  1.7256  0.6046
  526TIP3    H223070   0.956   2.515  13.761  0.5842  2.0694  0.6629
  527TIP3   OH223071   6.281   5.010  16.983 -0.1732 -0.1377  0.0984
  527TIP3    H123072   6.210   5.072  17.000 -0.3515  0.0600 -1.2932
  527TIP3    H223073   6.276   4.993  16.888 -0.2679 -2.4473  0.4934
  528TIP3   OH223074   2.790   0.443  12.812 -0.2582  0.2550 -0.7531
  528TIP3    H123075   2.854   0.475  12.876 -1.7575  1.7329  0.0261
  528TIP3    H223076   2.792   0.508  12.742  0.7368 -0.9054 -1.8390
  529TIP3   OH223077   0.684   0.269   2.488 -0.3774  0.3795  0.5894
  529TIP3    H123078   0.631   0.315   2.553 -1.6972 -1.7181  1.0466
  529TIP3    H223079   0.764   0.243   2.536 -0.3254  0.8325  0.7465
  530TIP3   OH223080   0.540   0.188  13.084 -0.2692 -0.3938  0.4226
  530TIP3    H123081   0.512   0.273  13.051  1.5119 -0.1577 -0.5691
  530TIP3    H223082   0.467   0.157  13.138 -0.9114  1.7690  0.8261
  531TIP3   OH223083   2.644   4.788   4.898  0.1297 -0.5691  0.0740
  531TIP3    H123084   2.553   4.810   4.921  0.3593 -1.4775  1.9501
  531TIP3    H223085   2.690   4.872   4.898 -0.8481 -0.0267 -1.5291
  532TIP3   OH223086   4.736   3.285  16.669 -0.0899 -0.0957 -0.5383
  532TIP3    H123087   4.753   3.273  16.763 -2.9726  0.0107  0.0586
  532TIP3    H223088   4.821   3.308  16.632  1.1345 -0.2591  2.0337
  533TIP3   OH223089   0.540   6.370  12.189  0.1596 -0.2210 -0.4728
  533TIP3    H123090   0.567   6.315  12.115  0.1415  1.1780 -1.5374
  533TIP3    H223091   0.598   6.346  12.260  1.6397 -0.0217 -1.5976
  534TIP3   OH223092   1.897   0.461  11.292 -0.5791  0.6458  0.2385
  534TIP3    H123093   1.859   0.401  11.228  2.2270 -3.3981  2.1176
  534TIP3    H223094   1.982   0.486  11.255 -0.6075  1.3657  0.6444
  535TIP3   OH223095   6.057   0.058   0.449  0.1103  0.0282 -0.0646
  535TIP3    H123096   6.013  -0.019   0.414  0.0869 -0.1510  0.3561
  535TIP3    H223097   6.073   0.037   0.541 -1.0716  1.0216  0.3941
  536TIP3   OH223098   0.362   0.739   4.445  0.5210 -0.3949 -0.5025
  536TIP3    H123099   0.326   0.722   4.358  0.7171  1.0489 -0.8824
  536TIP3    H223100   0.285   0.746   4.502  0.3195  0.2178 -0.8528
  537TIP3   OH223101   1.647   1.376   6.523 -0.3155 -0.1018 -0.0971
  537TIP3    H123102   1.736   1.361   6.553  0.7775  0.5694 -2.8488
  537TIP3    H223103   1.633   1.470   6.533  0.3416  0.2603 -2.2942
  538TIP3   OH223104   5.336   1.348  14.409 -0.1923  0.0035 -0.0985
  538TIP3    H123105   5.405   1.317  14.468  0.4147  1.9016  0.2073
  538TIP3    H223106   5.382   1.386  14.335 -0.9396 -0.0340 -0.5926
  539TIP3   OH223107   5.093   5.213   1.200 -0.1720 -0.5031 -0.1367
  539TIP3    H123108   5.147   5.215   1.121  2.1271 -0.1752  1.4145
  539TIP3    H223109   5.144   5.261   1.265 -1.9157 -1.0324  1.6495
  540TIP3   OH223110   1.811   3.938   6.092  0.2882  0.1877 -0.0122
  540TIP3    H123111   1.768   3.882   6.157 -1.6246 -0.3652 -1.7023
  540TIP3    H223112   1.794   4.027   6.122  0.9473 -0.0662  1.1777
  541TIP3   OH223113   1.005   2.432  12.534 -0.2812  0.0075  0.1122
  541TIP3    H123114   1.074   2.381  12.491 -0.8803 -0.4298 -0.3348
  541TIP3    H223115   0.974   2.492  12.466  0.4884  1.0610  0.6615
  542TIP3   OH223116   3.445   5.584   3.985 -0.0721 -0.7593  0.0917
  542TIP3    H123117   3.538   5.588   3.960  0.8195 -2.4457  2.8445
  542TIP3    H223118   3.443   5.620   4.074 -2.4229  1.2136 -0.7166
  543TIP3   OH223119   0.597   0.769  13.857  0.3388 -0.1233 -0.1152
  543TIP3    H123120   0.582   0.736  13.769  0.8702  1.4755 -0.8078
  543TIP3    H223121   0.688   0.749  13.876 -0.1294 -1.6757  0.6121
  544TIP3   OH223122   2.998   0.147   1.631  0.2051 -0.3007  0.1312
  544TIP3    H123123   3.077   0.111   1.593  0.2471 -0.5006  0.4097
  544TIP3    H223124   2.993   0.236   1.596  0.1191 -0.5608 -0.5254
  545TIP3   OH223125   4.299   0.067  15.198  0.5550 -0.1026  0.1297
  545TIP3    H123126   4.337   0.137  15.250  2.6152 -0.4902 -0.7940
  545TIP3    H223127   4.287   0.105  15.111 -4.5907  1.1215  1.2075
  546TIP3   OH223128   0.813   4.000   4.706 -0.2495 -0.2487  0.3508
  546TIP3    H123129   0.899   3.966   4.678  1.4196  3.5229  0.5681
  546TIP3    H223130   0.809   3.980   4.800 -0.9957 -3.1219 -0.2504
  547TIP3   OH223131   4.840   4.727  14.511 -0.6036  0.1726 -0.4091
  547TIP3    H123132   4.876   4.697  14.427  0.0420 -1.9753  0.5920
  547TIP3    H223133   4.829   4.647  14.562  2.1553  1.6923  2.7849
  548TIP3   OH223134   2.058   6.797   4.422 -0.0369 -0.0927  0.0241
  548TIP3    H123135   2.060   6.873   4.364 -1.9865  0.4611  0.6213
  548TIP3    H223136   2.067   6.722   4.364  0.1381  0.5456 -0.7730
  549TIP3   OH223137   2.044   5.972   5.745 -0.2495  0.1091 -0.7786
  549TIP3    H123138   1.964   6.009   5.781  0.3914  0.3959  0.3697
  549TIP3    H223139   2.114   6.009   5.799  0.5524 -1.2069 -0.9034
  550TIP3   OH223140   4.040   2.262   2.230  0.5870  0.0107  0.5175
  550TIP3    H123141   4.032   2.321   2.155  0.7549 -0.1575  0.3645
  550TIP3    H223142   4.061   2.319   2.303  1.5515  0.0630  0.2099
  551TIP3   OH223143   4.391   5.350   6.799  0.0591 -0.0636 -0.5373
  551TIP3    H123144   4.392   5.442   6.772  0.9220 -0.0317 -0.4145
  551TIP3    H223145   4.474   5.315   6.765  0.6803 -0.2913  1.1688
  552TIP3   OH223146   5.079   4.409   0.297 -0.0324 -0.0514  0.2259
  552TIP3    H123147   5.161   4.362   0.283 -0.5146 -0.5287 -1.0621
  552TIP3    H223148   5.072   4.467   0.222 -0.3834  0.7146  0.8493
  553TIP3   OH223149   2.904   3.873   3.624 -0.0671 -0.4070 -0.1160
  553TIP3    H123150   2.834   3.819   3.660 -1.8861  1.0081 -1.3969
  553TIP3    H223151   2.938   3.823   3.550 -0.3020 -0.7095 -0.0198
  554TIP3   OH223152   5.963   3.309  13.352  0.1630  0.0759  0.4466
  554TIP3    H123153   6.000   3.312  13.440  0.7144  0.9103  0.1961
  554TIP3    H223154   6.040   3.304  13.294 -0.2145 -1.2249  0.0413
  555TIP3   OH223155   1.869   6.557  13.324 -0.1018 -0.3499 -0.8677
  555TIP3    H123156   1.861   6.552  13.229  1.0583  0.4100 -1.0258
  555TIP3    H223157   1.914   6.640  13.340 -0.4785 -0.3687  0.3604
  556TIP3   OH223158   1.788   5.986   0.414  0.2298 -0.4311 -0.0548
  556TIP3    H123159   1.806   5.897   0.385  2.3074  0.3801 -1.4258
  556TIP3    H223160   1.869   6.034   0.396 -1.5003  2.1906 -1.2318
  557TIP3   OH223161   5.571   1.172  13.836  0.0953  0.3645  0.1145
  557TIP3    H123162   5.483   1.151  13.865 -0.0577  0.4788 -0.2702
  557TIP3    H223163   5.561   1.250  13.781  0.3767  0.1103 -0.3019
  558TIP3   OH223164   0.571   5.461   0.756 -0.2126 -0.0202  0.1047
  558TIP3    H123165   0.486   5.504   0.748 -0.1688  0.8518  3.5281
  558TIP3    H223166   0.635   5.528   0.732 -0.3222  0.6924  1.7428
  559TIP3   OH223167   3.315   6.225   2.342  0.0211  0.2757  0.2444
  559TIP3    H123168   3.243   6.196   2.285 -0.3016  1.3639  0.0813
  559TIP3    H223169   3.271   6.270   2.414  0.4593 -0.5886  1.0627
  560TIP3   OH223170   0.279   0.848  13.923 -0.5284 -0.4251  0.5667
  560TIP3    H123171   0.248   0.919  13.980 -0.6177 -0.7364  0.9131
  560TIP3    H223172   0.374   0.859  13.921 -0.6169  0.2829 -0.1619
  561TIP3   OH223173   3.773   0.127  10.787 -0.3756 -0.4900  0.0350
  561TIP3    H123174   3.706   0.162  10.728  0.5883  0.2105 -0.6424
  561TIP3    H223175   3.800   0.201  10.840  0.2232 -0.6688 -0.0241
  562TIP3   OH223176   5.295   1.256   1.965  0.3667 -0.0555  0.9240
  562TIP3    H123177   5.256   1.180   2.008  0.5207 -0.6073  0.1058
  562TIP3    H223178   5.262   1.251   1.875 -0.2950  1.3147  1.0760
  563TIP3   OH223179   3.255   6.378  15.507  0.5259 -0.3441  0.4017
  563TIP3    H123180   3.286   6.378  15.417  2.2776  1.3116  0.9796
  563TIP3    H223181   3.278   6.292  15.541  0.9052 -0.5440 -0.3629
  564TIP3   OH223182   5.668   3.933   5.483 -0.4131 -0.1894  0.5510
  564TIP3    H123183   5.715   4.005   5.441  0.8586 -0.8810  0.7684
  564TIP3    H223184   5.577   3.963   5.486 -0.2319  0.6110 -1.0804
  565TIP3   OH223185   3.174   2.173   0.142  0.5878 -0.4410 -0.9017
  565TIP3    H123186   3.157   2.196   0.051 -0.0803  1.2289 -0.3724
  565TIP3    H223187   3.096   2.124   0.169  0.1454  0.3074 -0.8130
  566TIP3   OH223188   1.054   0.665   1.947  0.9445  0.6302  0.4725
  566TIP3    H123189   1.026   0.737   1.890  0.8874  1.5367  1.6442
  566TIP3    H223190   1.119   0.704   2.005  0.6830 -0.1934  1.3312
  567TIP3   OH223191   2.656   3.283   4.671  0.3595 -0.1179 -0.0423
  567TIP3    H123192   2.570   3.287   4.630 -0.4516 -1.6245  1.4862
  567TIP3    H223193   2.638   3.283   4.765  2.0126 -0.6527  0.2914
  568TIP3   OH223194   1.705   4.710   0.362 -0.1229  0.5444  0.2267
  568TIP3    H123195   1.731   4.722   0.270 -2.0989 -0.6261 -0.5065
  568TIP3    H223196   1.774   4.656   0.399 -0.2819 -0.5803 -1.0891
  569TIP3   OH223197   4.808   1.611  15.959 -0.0012  0.2880  0.0708
  569TIP3    H123198   4.769   1.563  15.887  0.1404 -1.8306  1.3654
  569TIP3    H223199   4.895   1.572  15.970  0.4759  1.4502  0.5754
  570TIP3   OH223200   4.940   3.044   6.316 -0.4850 -0.0675 -0.2910
  570TIP3    H123201   4.887   3.069   6.240  1.2095 -0.9326 -1.7902
  570TIP3    H223202   4.902   2.961   6.345 -0.6641 -0.1212 -0.6719
  571TIP3   OH223203   0.492   6.088  16.061  0.0879  0.1934  0.1816
  571TIP3    H123204   0.485   5.994  16.041  1.1620  0.2206 -0.3885
  571TIP3    H223205   0.581   6.111  16.034 -0.4413  1.5554 -0.4272
  572TIP3   OH223206   5.117   1.939   5.190  0.2244  0.6608 -0.4672
  572TIP3    H123207   5.181   1.947   5.261  1.4406  1.0475 -1.6003
  572TIP3    H223208   5.078   2.026   5.183 -0.4245  0.4323  0.2029
  573TIP3   OH223209   4.768   2.954  16.735 -0.7245 -1.2155 -0.0663
  573TIP3    H123210   4.778   3.049  16.725 -0.7886 -0.9323  2.3419
  573TIP3    H223211   4.856   2.919  16.719  0.0423 -0.4250  2.1795
  574TIP3   OH223212   2.669   5.333   0.273 -0.6230  0.1317  0.3141
  574TIP3    H123213   2.665   5.349   0.178 -2.1622 -1.3504  0.1049
  574TIP3    H223214   2.601   5.389   0.310 -1.6786 -1.0763  0.2557
  575TIP3   OH223215   6.011   0.998   3.532 -0.3381  0.0514  0.5762
  575TIP3    H123216   6.004   1.088   3.499  2.9660  0.5162  0.9322
  575TIP3    H223217   6.034   0.946   3.455  0.8399  0.0517  0.9153
  576TIP3   OH223218   2.740   6.765   2.766 -0.0053  0.0054 -0.2374
  576TIP3    H123219   2.716   6.782   2.675 -0.1388  2.4565  0.2187
  576TIP3    H223220   2.710   6.842   2.814  1.2695 -0.6335  1.6731
  577TIP3   OH223221   1.143   6.196   4.121  0.2419 -0.3211 -0.3237
  577TIP3    H123222   1.134   6.186   4.027  0.1835  0.6456 -0.4261
  577TIP3    H223223   1.223   6.249   4.132 -0.2040  0.2670  0.1320
  578TIP3   OH223224   5.151   6.160   3.321  0.4592  0.0805 -0.7915
  578TIP3    H123225   5.193   6.076   3.342 -0.8188 -0.1466  0.9731
  578TIP3    H223226   5.224   6.217   3.297  1.6242 -0.7875  0.5647
  579TIP3   OH223227   3.496   0.941  13.536 -0.4450  0.1963  0.1013
  579TIP3    H123228   3.572   0.884  13.540  0.0423  0.8261 -0.0509
  579TIP3    H223229   3.440   0.913  13.608 -0.7858 -1.2702 -0.7197
  580TIP3   OH223230   3.210   2.583   0.835 -0.2140  0.5930  0.2261
  580TIP3    H123231   3.248   2.585   0.923 -0.2126  0.3853  0.2298
  580TIP3    H223232   3.283   2.561   0.778 -0.1916  0.8376  0.1595
  581TIP3   OH223233   3.716   1.582   0.649  0.5640 -0.4821 -0.3055
  581TIP3    H123234   3.623   1.606   0.650  0.6470 -0.1107 -0.9775
  581TIP3    H223235   3.737   1.565   0.740  0.4275  1.7827  0.1963
  582TIP3   OH223236   0.490   5.637  14.417  0.0234 -0.5616 -0.3366
  582TIP3    H123237   0.569   5.647  14.470  0.8052  0.0140 -1.5984
  582TIP3    H223238   0.455   5.552  14.442  0.1423 -0.1136  1.4139
  583TIP3   OH223239   5.215   4.758   2.830  0.3213 -0.5595 -0.0580
  583TIP3    H123240   5.166   4.744   2.749  2.0855 -2.2479 -0.8937
  583TIP3    H223241   5.207   4.675   2.877  2.4607 -0.9333 -0.2998
  584TIP3   OH223242   3.048   5.809   4.726 -0.2912  0.2265  0.0489
  584TIP3    H123243   3.040   5.738   4.789  0.9429 -1.0681 -1.2185
  584TIP3    H223244   3.117   5.781   4.666 -1.0203  1.6994 -1.5376
  585TIP3   OH223245   1.769   3.567  11.729 -0.2503  0.1608  0.1629
  585TIP3    H123246   1.716   3.647  11.733 -0.2893  0.1594 -0.3495
  585TIP3    H223247   1.853   3.593  11.766 -0.9101 -0.0836  1.8550
  586TIP3   OH223248   4.737   6.236  14.883  0.3214 -0.3812 -0.1928
  586TIP3    H123249   4.711   6.266  14.796 -0.2148 -1.9775 -0.5946
  586TIP3    H223250   4.655   6.213  14.926  0.7437 -1.4691  0.0341
  587TIP3   OH223251   1.348   1.311   4.799  0.4807  0.4399 -0.3688
  587TIP3    H123252   1.312   1.294   4.886 -1.5602  0.4750 -1.1910
  587TIP3    H223253   1.353   1.406   4.793  1.4733  0.4246  0.0263
  588TIP3   OH223254   5.823   4.816  11.677 -0.3872  0.5251  0.7409
  588TIP3    H123255   5.882   4.746  11.707  0.5545  1.4466  1.0827
  588TIP3    H223256   5.769   4.836  11.753 -1.6458 -0.8105  0.2197
  589TIP3   OH223257   1.696   6.622   2.899 -0.3904 -0.1531  0.1746
  589TIP3    H123258   1.635   6.570   2.951 -0.5228 -0.4246 -0.2476
  589TIP3    H223259   1.671   6.713   2.916  0.8202 -0.1664  2.1119
  590TIP3   OH223260   0.130   4.248   5.995  0.0598  0.2811 -0.1206
  590TIP3    H123261   0.161   4.198   5.919 -0.0668  0.2257 -0.1357
  590TIP3    H223262   0.194   4.229   6.063  0.1558  0.3047 -0.2044
  591TIP3   OH223263   3.318   5.618  11.639  0.0004  0.0745 -0.0896
  591TIP3    H123264   3.251   5.586  11.700 -0.1404  1.0308  0.2580
  591TIP3    H223265   3.356   5.538  11.602 -0.1091 -0.5098  1.0396
  592TIP3   OH223266   0.392   6.663  13.710  0.0341 -0.5341  0.3899
  592TIP3    H123267   0.353   6.610  13.780  0.2524 -0.0245  0.9053
  592TIP3    H223268   0.486   6.658  13.727  0.0577 -0.0161  0.4171
  593TIP3   OH223269   0.049   1.736   2.395 -0.0032 -0.5675  0.4738
  593TIP3    H123270   0.004   1.671   2.341 -0.4643 -0.7788  1.1110
  593TIP3    H223271   0.085   1.799   2.332 -1.3833 -0.2573 -0.0208
  594TIP3   OH223272   0.417   4.168   5.730 -0.4480  0.5620 -0.7806
  594TIP3    H123273   0.467   4.124   5.661 -0.3571 -0.8723  0.1769
  594TIP3    H223274   0.484   4.202   5.790 -0.5759 -0.8005  0.1618
  595TIP3   OH223275   3.373   0.259   4.102  0.3190 -0.2987 -0.2036
  595TIP3    H123276   3.399   0.320   4.171 -0.8622  0.4069 -0.3809
  595TIP3    H223277   3.313   0.198   4.145 -0.0682 -0.1267 -0.4960
  596TIP3   OH223278   5.755   3.868  14.162 -0.0302  0.2079  0.0317
  596TIP3    H123279   5.689   3.837  14.100 -0.4107  0.5050  0.2819
  596TIP3    H223280   5.704   3.905  14.235  0.3938 -2.8907  1.9632
  597TIP3   OH223281   1.162   3.545  14.596  0.0238 -0.3497  0.2562
  597TIP3    H123282   1.227   3.586  14.653  0.5417  1.4982 -1.5824
  597TIP3    H223283   1.109   3.619  14.564 -0.8166 -1.4460 -0.9338
  598TIP3   OH223284   1.961   0.877   0.006  0.1985 -0.2970  0.5423
  598TIP3    H123285   2.043   0.919  -0.019  1.3315 -2.8729 -0.3038
  598TIP3    H223286   1.893   0.930  -0.035  1.6269  0.2100 -1.2513
  599TIP3   OH223287   6.552   5.181  13.837 -0.2246 -0.2637  0.4247
  599TIP3    H123288   6.613   5.255  13.831  0.7195 -0.9945  0.8586
  599TIP3    H223289   6.466   5.220  13.823  0.3328  0.8003 -0.1125
  600TIP3   OH223290   6.584   4.767   1.129  0.2158  0.5358 -0.2802
  600TIP3    H123291   6.579   4.763   1.225 -0.7264  2.0914 -0.2520
  600TIP3    H223292   6.594   4.860   1.109 -3.9141  0.7387 -1.8518
  601TIP3   OH223293   6.637   3.959   5.074  0.1870  0.3503  0.1782
  601TIP3    H123294   6.643   4.052   5.098 -0.1863  0.4241 -0.0134
  601TIP3    H223295   6.592   3.919   5.148 -1.6109  0.7017 -0.7036
  602TIP3   OH223296   1.253   4.495  14.704  0.2813 -0.1127  0.2564
  602TIP3    H123297   1.280   4.587  14.713 -0.0909  0.1166 -0.9308
  602TIP3    H223298   1.324   4.446  14.746  1.8884  0.5614 -1.5841
  603TIP3   OH223299   2.197   1.464   4.973 -0.2634 -0.0850  0.3517
  603TIP3    H123300   2.197   1.454   4.878 -1.9779  0.7440  0.2515
  603TIP3    H223301   2.231   1.381   5.006  0.6719 -0.2422 -0.9920
  604TIP3   OH223302   5.429   2.696  11.448 -0.3664  0.5194  0.4727
  604TIP3    H123303   5.340   2.724  11.468 -0.7155 -0.2850  0.0579
  604TIP3    H223304   5.418   2.620  11.391  0.5793  0.3110  0.5623
  605TIP3   OH223305   2.132   5.433   0.408 -0.5902  0.0660 -0.5946
  605TIP3    H123306   2.196   5.373   0.369  0.1133 -0.7771  1.7521
  605TIP3    H223307   2.050   5.411   0.365  0.4367  0.2466 -2.6934
  606TIP3   OH223308   6.571   1.997  12.535  0.2292 -0.4259  0.1991
  606TIP3    H123309   6.599   2.083  12.503  1.9046 -1.1034 -0.1998
  606TIP3    H223310   6.529   1.956  12.459  1.6377 -0.9041 -0.3502
  607TIP3   OH223311   0.378   2.370   0.974 -0.1143 -0.0284  0.0831
  607TIP3    H123312   0.287   2.396   0.989  0.0845  1.4871 -1.2199
  607TIP3    H223313   0.380   2.343   0.882  0.2305 -2.4225  0.7471
  608TIP3   OH223314   3.558   6.661   4.790  0.2297  0.3275  0.0242
  608TIP3    H123315   3.535   6.687   4.879  0.2481  1.9262 -0.4246
  608TIP3    H223316   3.653   6.666   4.787  0.2872 -0.5759  0.1597
  609TIP3   OH223317   3.793   5.097  16.332  0.0648 -0.0166  0.5937
  609TIP3    H123318   3.832   5.183  16.315 -0.1196 -0.1911 -0.7327
  609TIP3    H223319   3.702   5.106  16.303  0.4224 -1.0849 -0.9173
  610TIP3   OH223320   4.872   1.254  15.658 -0.0867  0.0316  0.4664
  610TIP3    H123321   4.876   1.198  15.581 -2.6203 -0.5628  0.7253
  610TIP3    H223322   4.917   1.205  15.727  0.3438 -0.3523 -0.0866
  611TIP3   OH223323   2.926   3.410   5.060  0.3131  0.0953 -0.2601
  611TIP3    H123324   2.861   3.465   5.017 -0.6828  0.9016  2.1941
  611TIP3    H223325   3.009   3.455   5.046 -0.2650  1.3636  0.2792
  612TIP3   OH223326   1.119   5.439  11.076  0.1409  0.1409  0.5064
  612TIP3    H123327   1.027   5.452  11.052 -0.1091 -1.8268  0.3780
  612TIP3    H223328   1.163   5.516  11.039 -1.1387  0.1069 -1.2031
  613TIP3   OH223329   5.871   0.200   2.021  0.5226  0.0179  0.5801
  613TIP3    H123330   5.892   0.165   2.107  1.3208 -0.6107  0.1362
  613TIP3    H223331   5.870   0.124   1.963 -0.3547  0.3902  0.1001
  614TIP3   OH223332   5.036   1.815  14.126  0.0361  0.0593  0.3660
  614TIP3    H123333   4.941   1.804  14.122  0.0625  0.2263 -0.9564
  614TIP3    H223334   5.050   1.909  14.116  0.4083 -0.1293 -0.9399
  615TIP3   OH223335   1.417   1.049  12.882 -0.0356  0.2747  0.1458
  615TIP3    H123336   1.492   1.019  12.831 -0.2894 -1.3324  0.6928
  615TIP3    H223337   1.379   0.969  12.918 -2.1521  1.0648 -0.2970
  616TIP3   OH223338   5.967   4.040   1.018 -0.4790  0.2864  0.1697
  616TIP3    H123339   5.884   4.012   1.058 -0.6586  1.7341  0.8496
  616TIP3    H223340   6.016   4.078   1.091 -0.1586  1.5131 -0.6829
  617TIP3   OH223341   5.688   2.843   4.857  0.8199 -0.2787 -0.0553
  617TIP3    H123342   5.729   2.865   4.774 -0.3058  0.2383 -0.4823
  617TIP3    H223343   5.615   2.904   4.865 -0.1704 -1.4913  0.4413
  618TIP3   OH223344   2.935   5.097   3.632 -0.4579  0.0556 -0.2501
  618TIP3    H123345   2.859   5.111   3.575 -0.2830 -0.9996 -0.7501
  618TIP3    H223346   2.996   5.167   3.607 -1.0471  0.5832 -0.2200
  619TIP3   OH223347   4.699   1.970   0.416  0.7082 -0.2828 -0.7805
  619TIP3    H123348   4.676   2.049   0.466 -1.3741 -1.1308 -0.3560
  619TIP3    H223349   4.794   1.969   0.415  0.7543  1.3528  0.6428
  620TIP3   OH223350   1.267   4.177  16.884 -0.0078  0.0950 -0.2870
  620TIP3    H123351   1.255   4.106  16.947 -1.2170 -0.5660 -1.2325
  620TIP3    H223352   1.198   4.240  16.906 -1.0672 -0.5987 -1.5545
  621TIP3   OH223353   5.778   3.419   0.445  0.2164 -0.5510 -0.0840
  621TIP3    H123354   5.781   3.513   0.427 -0.1712 -0.5489 -0.1356
  621TIP3    H223355   5.847   3.383   0.390  1.8665 -0.0347  1.5917
  622TIP3   OH223356   6.570   0.556   6.181 -0.2959  0.4230 -0.5421
  622TIP3    H123357   6.646   0.574   6.236  1.4076  0.2994 -2.8101
  622TIP3    H223358   6.557   0.461   6.187  0.1020  0.3638 -0.6216
  623TIP3   OH223359   3.878   1.246   0.203 -0.4047 -0.1001  0.5245
  623TIP3    H123360   3.935   1.172   0.182  1.6116  1.6028 -0.2733
  623TIP3    H223361   3.930   1.300   0.262 -1.3592  1.2877  0.1302
  624TIP3   OH223362   5.543   5.017   0.326 -0.1573  0.4602  0.0366
  624TIP3    H123363   5.477   5.065   0.277 -0.1268  0.0963 -0.3611
  624TIP3    H223364   5.515   4.926   0.323  0.8150  0.1797 -0.8772
  625TIP3   OH223365   2.175   5.811   0.905 -0.6570 -0.1393  0.1782
  625TIP3    H123366   2.149   5.851   0.822  1.0916  3.1838  1.1167
  625TIP3    H223367   2.116   5.849   0.970  0.1124 -0.1626  0.9034
  626TIP3   OH223368   5.079   4.362  13.574  0.0776  0.8727  0.3738
  626TIP3    H123369   5.053   4.364  13.666 -0.1478  0.2518  0.3307
  626TIP3    H223370   5.165   4.319  13.574 -0.7956 -0.9314  0.1168
  627TIP3   OH223371   2.854   4.012   2.901  0.1844  0.1544 -0.3944
  627TIP3    H123372   2.939   4.052   2.920 -0.2826  1.7136 -1.5526
  627TIP3    H223373   2.875   3.920   2.884  1.5448  0.3737  0.0210
  628TIP3   OH223374   3.342   2.867   0.715  0.3749  0.5886 -0.0230
  628TIP3    H123375   3.338   2.949   0.764  0.7045  0.2208  0.6272
  628TIP3    H223376   3.359   2.800   0.782  0.0795 -0.0082 -0.5459
  629TIP3   OH223377   4.724   3.826   4.331 -0.3108 -0.0300 -0.5777
  629TIP3    H123378   4.659   3.770   4.374 -1.4273 -0.0221 -2.2410
  629TIP3    H223379   4.744   3.893   4.397 -0.5051 -1.1693  0.6699
  630TIP3   OH223380   3.900   2.146   4.752  0.1284 -0.3732 -0.0731
  630TIP3    H123381   3.887   2.203   4.676 -0.1902 -1.7788 -1.0834
  630TIP3    H223382   3.888   2.057   4.718 -1.1189 -0.9660  1.8309
  631TIP3   OH223383   1.730   4.309   2.465 -0.5486  0.3202  0.1110
  631TIP3    H123384   1.695   4.291   2.552  1.4741 -0.1860  0.8414
  631TIP3    H223385   1.808   4.253   2.458 -0.1614  1.0508 -1.6509
  632TIP3   OH223386   6.406   0.382   4.166 -0.1797  0.8093 -0.7080
  632TIP3    H123387   6.356   0.462   4.183  1.1208  1.6767 -0.8854
  632TIP3    H223388   6.357   0.337   4.098 -1.7208  0.7132  0.4428
  633TIP3   OH223389   5.320   6.299   5.354  0.1592 -0.7133 -0.5219
  633TIP3    H123390   5.303   6.280   5.261 -0.0581 -1.1883 -0.3916
  633TIP3    H223391   5.399   6.250   5.374 -0.1258 -1.0906 -0.3062
  634TIP3   OH223392   1.158   0.077  15.039  0.3876  0.0174  0.2367
  634TIP3    H123393   1.226   0.020  15.003  1.1843  0.6617  0.6870
  634TIP3    H223394   1.113   0.112  14.962 -0.9212 -2.1636 -0.0217
  635TIP3   OH223395   2.971   2.290   4.821 -0.0978 -0.2391  0.0556
  635TIP3    H123396   3.059   2.262   4.797  0.9876  1.6773  1.7004
  635TIP3    H223397   2.926   2.209   4.846  0.4278 -1.5495 -3.0191
  636TIP3   OH223398   3.994   3.386  11.315 -0.1679 -0.0863 -0.1452
  636TIP3    H123399   3.935   3.435  11.257 -2.7019 -2.3609  0.4393
  636TIP3    H223400   3.988   3.296  11.285  2.8944 -0.4048  0.0906
  637TIP3   OH223401   4.209   3.623   2.014  0.4187 -0.1485 -0.2589
  637TIP3    H123402   4.137   3.560   2.016  0.7055 -0.5004 -0.9277
  637TIP3    H223403   4.195   3.672   1.933 -0.8663  1.9149  1.1446
  638TIP3   OH223404   6.164   5.121  15.031 -0.0133  0.7876 -0.5856
  638TIP3    H123405   6.218   5.127  14.952 -0.9365  0.8062 -1.2206
  638TIP3    H223406   6.106   5.198  15.026  1.7028  2.2697  1.4527
  639TIP3   OH223407   6.539   4.143   3.434  0.5452  0.6960  0.1094
  639TIP3    H123408   6.557   4.051   3.414  0.5326  0.5877  0.5769
  639TIP3    H223409   6.618   4.174   3.477 -0.0720  0.4389  1.4588
  640TIP3   OH223410   1.022   0.183   5.792 -0.5000 -0.2487 -0.2007
  640TIP3    H123411   1.082   0.116   5.759 -0.0597  0.4037 -0.7476
  640TIP3    H223412   1.049   0.263   5.746 -1.1368  0.2588  0.3110
  641TIP3   OH223413   2.859   5.827   4.203  0.6196  0.3579  0.0706
  641TIP3    H123414   2.851   5.790   4.115 -0.8179  0.9721 -0.0727
  641TIP3    H223415   2.928   5.893   4.195  0.8531  0.0521 -0.4673
  642TIP3   OH223416   5.183   4.377   3.753 -0.5895  0.0089 -0.3034
  642TIP3    H123417   5.155   4.389   3.662  1.4606  1.6371 -0.7428
  642TIP3    H223418   5.174   4.463   3.793 -0.6034 -0.4895  0.7994
  643TIP3   OH223419   2.560   4.021  16.337  0.1515 -0.1232  0.5339
  643TIP3    H123420   2.644   4.066  16.337  0.5352 -0.7511 -1.8602
  643TIP3    H223421   2.494   4.090  16.328  0.3012  0.4587  3.4150
  644TIP3   OH223422   6.229   5.389  16.800 -0.4210 -0.0519 -0.5363
  644TIP3    H123423   6.174   5.338  16.860  0.0600  0.4117  0.3241
  644TIP3    H223424   6.262   5.326  16.737 -1.6213 -0.4076 -0.8200
  645TIP3   OH223425   1.801   4.150   3.516  0.0833 -0.0819 -0.1972
  645TIP3    H123426   1.893   4.174   3.508 -0.0135  0.6677  0.8072
  645TIP3    H223427   1.755   4.210   3.456  0.4240 -1.8006 -2.2449
  646TIP3   OH223428   3.218   4.670   5.815  0.2830  0.4457 -0.0653
  646TIP3    H123429   3.235   4.632   5.729 -0.7501 -0.0684 -0.0488
  646TIP3    H223430   3.202   4.595   5.872 -1.5046  0.8815  0.0243
  647TIP3   OH223431   6.285   1.626   1.519  0.0806 -0.4106 -0.0590
  647TIP3    H123432   6.277   1.554   1.456  0.9523 -1.7774  1.3383
  647TIP3    H223433   6.249   1.591   1.601 -1.0665  1.3452  0.2287
  648TIP3   OH223434   3.582   6.347   1.631 -0.5678 -0.5124  0.0449
  648TIP3    H123435   3.671   6.362   1.663 -0.6268 -1.3578  0.6448
  648TIP3    H223436   3.559   6.427   1.584 -0.1549  0.4236  1.4092
  649TIP3   OH223437   3.309   4.283   0.756 -0.7287 -0.3188 -0.0256
  649TIP3    H123438   3.289   4.369   0.791 -1.7726 -0.9460  0.9700
  649TIP3    H223439   3.400   4.268   0.779 -0.4023  0.7066 -0.6223
  650TIP3   OH223440   5.024   5.824  14.876  0.1645  0.0592  0.1252
  650TIP3    H123441   5.077   5.791  14.803 -0.2365  0.6265 -0.4318
  650TIP3    H223442   5.033   5.920  14.870 -1.4080  0.1896 -0.3448
  651TIP3   OH223443   0.601   3.288   1.864  0.0897  0.0508  0.3310
  651TIP3    H123444   0.552   3.269   1.945 -0.3100 -2.0302 -0.3682
  651TIP3    H223445   0.640   3.205   1.840 -1.4275  0.1453 -2.7189
  652TIP3   OH223446   1.485   6.043  13.335  0.3800 -0.2429  0.3227
  652TIP3    H123447   1.481   5.948  13.345 -0.8802 -0.2854 -0.4844
  652TIP3    H223448   1.499   6.056  13.242 -2.3211  0.4069 -0.0258
  653TIP3   OH223449   1.030   2.329   1.679  0.0281 -0.1961 -0.2838
  653TIP3    H123450   0.947   2.282   1.688  0.7029 -1.4166 -0.2859
  653TIP3    H223451   1.087   2.288   1.743  1.0404 -0.2938 -1.2405
  654TIP3   OH223452   2.545   2.528   5.722  0.3610 -0.3111 -0.5418
  654TIP3    H123453   2.509   2.517   5.810 -2.4610 -2.8928 -1.9515
  654TIP3    H223454   2.580   2.442   5.699 -1.5546 -0.4788 -3.0447
  655TIP3   OH223455   3.655   6.351   5.921  0.0434 -0.2125  0.2438
  655TIP3    H123456   3.688   6.289   5.856  0.4374  1.1603 -0.8893
  655TIP3    H223457   3.724   6.416   5.929  0.0489 -0.4484  2.1651
  656TIP3   OH223458   2.887   4.231  10.474 -0.3807 -0.1010  0.1323
  656TIP3    H123459   2.954   4.170  10.442 -0.2677 -0.0402  0.2527
  656TIP3    H223460   2.873   4.204  10.565 -0.6830 -0.2584  0.0408
  657TIP3   OH223461   6.289   0.756   3.622  0.0992  0.4865  0.1954
  657TIP3    H123462   6.367   0.786   3.577 -0.8812 -1.2640 -2.8475
  657TIP3    H223463   6.230   0.832   3.624  0.3627  0.7185 -1.0120
  658TIP3   OH223464   4.524   0.636   3.481 -0.6715  0.0176  0.1698
  658TIP3    H123465   4.498   0.643   3.390 -0.9080 -0.2658  0.2151
  658TIP3    H223466   4.585   0.562   3.483  1.0693  1.4213 -0.1459
  659TIP3   OH223467   5.473   6.676   4.441 -0.0875  0.1687  0.2186
  659TIP3    H123468   5.444   6.620   4.369  1.1843  1.0343 -0.9914
  659TIP3    H223469   5.505   6.756   4.399 -0.4129  1.1690  1.8200
  660TIP3   OH223470   5.036   0.438   2.811  0.0193 -0.1549  0.1680
  660TIP3    H123471   5.087   0.512   2.844  1.0148  0.2994 -2.2810
  660TIP3    H223472   4.955   0.477   2.779  0.4239 -0.1770 -0.8691
  661TIP3   OH223473   1.509   6.228   5.545  0.5478  0.0897 -0.0798
  661TIP3    H123474   1.470   6.184   5.621  0.2110  0.3134 -0.1199
  661TIP3    H223475   1.447   6.211   5.473  0.9540 -0.2707 -0.3445
  662TIP3   OH223476   3.538   6.397   6.181  0.2204 -0.2449  0.3164
  662TIP3    H123477   3.605   6.466   6.180  0.4386 -0.4620 -0.1697
  662TIP3    H223478   3.566   6.336   6.113  0.3901 -1.1636  1.2095
  663TIP3   OH223479   1.917   6.322   5.647 -0.0085  0.2810  0.0896
  663TIP3    H123480   1.959   6.304   5.563  1.1467  2.7269  0.1016
  663TIP3    H223481   1.920   6.418   5.656 -1.7176  0.1935  2.0994
  664TIP3   OH223482   6.082   4.500  17.000 -0.1528 -0.4230 -0.2478
  664TIP3    H123483   6.059   4.484  16.909  0.7601  0.7881 -0.7143
  664TIP3    H223484   6.118   4.417  17.032  1.1989 -0.3520 -1.5287
  665TIP3   OH223485   0.421   2.654   1.057 -0.3369 -0.0117  0.3998
  665TIP3    H123486   0.509   2.636   1.090 -0.5124 -0.0748  0.8433
  665TIP3    H223487   0.386   2.568   1.033 -0.3724 -0.0183  0.4735
  666TIP3   OH223488   5.313   2.103   1.284 -0.3609  0.4191 -0.4416
  666TIP3    H123489   5.221   2.076   1.283 -0.4540  0.7656 -1.2593
  666TIP3    H223490   5.310   2.197   1.263  0.2101  0.3533 -0.8145
  667TIP3   OH223491   4.135   4.652  16.264 -0.0330  0.2582  0.5016
  667TIP3    H123492   4.062   4.641  16.203  0.1734  1.9556 -0.0681
  667TIP3    H223493   4.173   4.736  16.241  2.1164 -0.6000  0.8125
  668TIP3   OH223494   3.418   1.231   5.564  0.2597  0.8654  0.3566
  668TIP3    H123495   3.323   1.249   5.563 -0.2088 -1.5631 -1.6954
  668TIP3    H223496   3.453   1.283   5.492 -0.0045 -0.6848 -0.9071
  669TIP3   OH223497   5.266   1.820   3.425  0.1140 -0.1772 -0.3367
  669TIP3    H123498   5.240   1.784   3.340 -0.8530  1.0372 -0.5712
  669TIP3    H223499   5.217   1.768   3.489 -1.5043  0.8749 -0.6889
  670TIP3   OH223500   0.526   0.497  14.022  0.0865 -0.3120  0.2580
  670TIP3    H123501   0.586   0.531  14.088 -0.6157 -0.6821  1.0824
  670TIP3    H223502   0.517   0.569  13.959  0.1651  0.3027  0.9497
  671TIP3   OH223503   5.413   4.645  11.957 -0.0141 -0.1205  0.0577
  671TIP3    H123504   5.414   4.549  11.962  0.5163 -0.0766  0.9190
  671TIP3    H223505   5.464   4.665  11.878 -1.0477 -0.5783 -0.7280
  672TIP3   OH223506   1.699   0.448   5.435  0.3622 -0.1622 -0.2025
  672TIP3    H123507   1.638   0.377   5.453  0.2490 -0.3276 -1.1776
  672TIP3    H223508   1.785   0.412   5.453  0.2694 -0.3787 -0.1942
  673TIP3   OH223509   2.486   3.411   2.159  0.2059  0.1434  0.0390
  673TIP3    H123510   2.464   3.318   2.166 -2.0468  0.7070  0.5808
  673TIP3    H223511   2.470   3.433   2.067 -0.4231  0.2931  0.1863
  674TIP3   OH223512   1.990   0.422  12.798 -0.6789  0.2674  0.2846
  674TIP3    H123513   1.968   0.479  12.724  0.1030 -0.6523 -0.6743
  674TIP3    H223514   1.938   0.456  12.871 -1.7205  0.9857 -0.7676
  675TIP3   OH223515   5.146   4.647   3.870  0.3910  0.1052 -0.0357
  675TIP3    H123516   5.074   4.676   3.925  1.6854  0.6717  1.3963
  675TIP3    H223517   5.196   4.726   3.852  0.5806 -0.2569 -1.1475
  676TIP3   OH223518   0.522   4.009   5.546  0.2224  0.2249  0.4033
  676TIP3    H123519   0.577   3.964   5.611  0.2325  0.8554  0.8258
  676TIP3    H223520   0.551   3.973   5.462  0.8895  0.1349  0.6720
  677TIP3   OH223521   6.494   3.012  14.548  0.0086 -0.2052  0.1140
  677TIP3    H123522   6.524   2.992  14.459 -0.7813 -0.0426 -0.2001
  677TIP3    H223523   6.527   2.941  14.602  2.6646  0.9959  0.1548
  678TIP3   OH223524   2.433   4.736  11.825 -0.0696 -0.3801 -0.1447
  678TIP3    H123525   2.484   4.770  11.899  0.7076  0.3835 -1.0243
  678TIP3    H223526   2.387   4.660  11.861 -0.3776  0.4998  1.3501
  679TIP3   OH223527   3.622   1.491  14.799  1.0734 -0.6247  0.6033
  679TIP3    H123528   3.561   1.452  14.737  1.2225  0.3026 -0.1495
  679TIP3    H223529   3.593   1.582  14.806  2.2969 -0.2036  0.3183
  680TIP3   OH223530   2.182   0.941   5.084 -0.0697 -0.2938  0.2344
  680TIP3    H123531   2.256   0.927   5.144 -0.3177 -0.7219  0.4443
  680TIP3    H223532   2.117   0.876   5.111 -0.9546  0.7760  0.7492
  681TIP3   OH223533   3.807   2.271  12.229  0.4074 -0.4395  0.0937
  681TIP3    H123534   3.861   2.222  12.290 -0.9984 -1.4437  0.5696
  681TIP3    H223535   3.729   2.295  12.279 -0.2974 -0.3923 -0.9984
  682TIP3   OH223536   0.210   5.588   2.100  0.5906  0.2182 -0.5044
  682TIP3    H123537   0.222   5.570   2.193  0.3825  2.4901  0.0050
  682TIP3    H223538   0.275   5.533   2.056  0.3432 -1.2528  0.9451
  683TIP3   OH223539   0.365   2.851  15.546 -0.2284 -0.5024  0.2899
  683TIP3    H123540   0.286   2.885  15.588 -2.5936 -2.3438 -2.4515
  683TIP3    H223541   0.350   2.756  15.539  2.4694 -0.9647  0.2273
  684TIP3   OH223542   1.371   1.596   4.443  0.1181 -0.3018  0.4003
  684TIP3    H123543   1.373   1.576   4.349 -0.3960  0.6176  0.1869
  684TIP3    H223544   1.281   1.622   4.460  0.6993  1.5944  0.7022
  685TIP3   OH223545   4.368   6.653   0.914 -0.0828  0.2349  0.0712
  685TIP3    H123546   4.278   6.681   0.895 -0.5103 -1.0500  0.1347
  685TIP3    H223547   4.423   6.720   0.875 -1.0503  0.3907 -1.0526
  686TIP3   OH223548   0.273   1.647   1.649  0.1712 -0.1458  0.1212
  686TIP3    H123549   0.335   1.683   1.585 -0.1644 -0.3006 -0.2966
  686TIP3    H223550   0.327   1.619   1.722  0.6194 -0.5553 -0.3672
  687TIP3   OH223551   5.961   1.151   2.810 -0.2765 -0.2323 -0.0350
  687TIP3    H123552   5.986   1.231   2.855 -1.7457  1.2871 -1.8606
  687TIP3    H223553   5.868   1.140   2.830 -0.2687 -1.0643 -0.4208
  688TIP3   OH223554   4.689   2.270   2.364 -0.0960 -0.0844 -0.0842
  688TIP3    H123555   4.777   2.281   2.399 -0.4404 -0.2536  0.8454
  688TIP3    H223556   4.673   2.350   2.313 -0.4079  1.1701  1.9159
  689TIP3   OH223557   2.091   4.651  15.066 -0.3808  0.1606  0.2653
  689TIP3    H123558   2.122   4.577  15.118 -0.6429 -0.6679 -0.7420
  689TIP3    H223559   1.995   4.644  15.069 -0.4058  0.3908  0.0659
  690TIP3   OH223560   2.477   3.242  10.957 -0.1832 -0.0611  0.3711
  690TIP3    H123561   2.449   3.171  11.014  1.9113 -2.0264 -0.9443
  690TIP3    H223562   2.422   3.234  10.880 -1.0122  0.7392  0.8771
  691TIP3   OH223563   0.506   5.034   1.949  0.1365 -0.5452  0.0147
  691TIP3    H123564   0.507   4.947   1.989  3.2389 -0.7094 -0.2517
  691TIP3    H223565   0.510   5.017   1.855  0.3480 -0.1248 -0.0534
  692TIP3   OH223566   1.609   5.231   4.382  0.2707 -0.2880 -0.6116
  692TIP3    H123567   1.691   5.186   4.361  0.5912 -0.1624  0.3068
  692TIP3    H223568   1.550   5.162   4.410  0.2197 -0.3272 -0.8174
  693TIP3   OH223569   1.600   1.694  12.034  0.0195 -0.3359 -0.1824
  693TIP3    H123570   1.571   1.785  12.031 -1.5886 -0.8667 -1.5548
  693TIP3    H223571   1.627   1.681  12.125 -0.0707  1.3991  0.1216
  694TIP3   OH223572   1.227   2.904  16.153 -0.2639 -0.1421  0.6148
  694TIP3    H123573   1.211   2.917  16.059  1.2866 -0.2133  0.3154
  694TIP3    H223574   1.317   2.870  16.156 -0.1125  0.3964  2.1713
  695TIP3   OH223575   4.493   5.761   5.049 -0.0628  0.1617 -0.1082
  695TIP3    H123576   4.544   5.784   4.971 -0.1630  0.8886  0.0409
  695TIP3    H223577   4.491   5.665   5.048  0.8863  0.1376 -0.3885
  696TIP3   OH223578   5.373   1.201  12.096 -0.0341  0.0284  0.0106
  696TIP3    H123579   5.463   1.171  12.111 -0.2879 -1.2522 -0.8945
  696TIP3    H223580   5.319   1.126  12.122 -0.6681 -0.5245 -2.7722
  697TIP3   OH223581   3.881   2.530  12.085 -0.3365  0.1488 -0.0753
  697TIP3    H123582   3.971   2.557  12.104 -0.7925  1.2051  0.6190
  697TIP3    H223583   3.875   2.440  12.119  1.2659 -0.9992 -2.6550
  698TIP3   OH223584   3.798   2.519  16.886  0.0703 -0.0094 -0.2007
  698TIP3    H123585   3.888   2.550  16.889 -0.1792  0.7813 -0.6815
  698TIP3    H223586   3.801   2.440  16.831  0.9196 -1.6454  2.1174
  699TIP3   OH223587   0.359   4.475   1.965  0.0075 -0.1279 -0.4543
  699TIP3    H123588   0.370   4.570   1.954 -0.7785 -0.1778 -1.7973
  699TIP3    H223589   0.373   4.440   1.877  0.2330 -1.2602  0.0299
  700TIP3   OH223590   3.310   6.523  14.315 -0.5670  0.0066 -0.3528
  700TIP3    H123591   3.301   6.582  14.389  2.2267  1.5977 -1.2043
  700TIP3    H223592   3.285   6.576  14.239 -1.6786 -1.0764 -0.7740
  701TIP3   OH223593   2.037   2.504   4.136  0.2884 -0.2981 -0.1548
  701TIP3    H123594   2.113   2.561   4.131 -0.5407  0.8358  0.0902
  701TIP3    H223595   2.065   2.424   4.091  2.0493 -0.3784  1.0089
  702TIP3   OH223596   2.271   2.558   5.874  0.0074 -1.5086  0.2852
  702TIP3    H123597   2.191   2.607   5.890  1.2066  0.1338  1.5495
  702TIP3    H223598   2.288   2.568   5.781  0.0379  0.2382  0.4595
  703TIP3   OH223599   2.293   3.012  14.652  0.3573  0.3492 -0.0444
  703TIP3    H123600   2.375   3.030  14.606  1.6004  0.9798  2.3387
  703TIP3    H223601   2.264   2.928  14.617  2.0974  0.0410 -0.8023
  704TIP3   OH223602   2.393   0.503  15.508  0.5413  0.8817  0.1601
  704TIP3    H123603   2.408   0.532  15.598  2.6145  0.9176 -0.1715
  704TIP3    H223604   2.381   0.408  15.515  0.7991  0.8694  0.4622
  705TIP3   OH223605   3.718   2.682  16.198 -0.4331 -0.4150  0.4066
  705TIP3    H123606   3.801   2.704  16.154 -0.2655 -0.6299  0.6126
  705TIP3    H223607   3.668   2.635  16.131 -1.2518  1.5541 -0.4028
  706TIP3   OH223608   5.436   3.058   1.781  0.2621 -0.1913  0.1017
  706TIP3    H123609   5.404   3.113   1.709  0.1663  0.4353  0.6256
  706TIP3    H223610   5.402   3.099   1.860  0.2654 -0.9567  0.5016
  707TIP3   OH223611   4.553   1.626   4.639  0.0869 -0.3210 -0.2181
  707TIP3    H123612   4.462   1.651   4.623 -0.0197 -2.1213 -2.7843
  707TIP3    H223613   4.592   1.703   4.680 -1.9739  1.3822 -1.3375
  708TIP3   OH223614   1.889   4.755   6.174 -0.4221  0.2329 -0.0713
  708TIP3    H123615   1.892   4.812   6.251 -0.4859 -1.1284  0.9665
  708TIP3    H223616   1.797   4.731   6.166  0.1111 -2.5829  1.6816
  709TIP3   OH223617   2.068   0.013  12.612 -0.5412 -0.1952  0.0412
  709TIP3    H123618   2.159  -0.005  12.590  0.0693  0.2020  2.1010
  709TIP3    H223619   2.027   0.037  12.529  0.7129 -2.3873 -1.2732
  710TIP3   OH223620   3.752   2.120   3.569  0.2653  0.4308 -0.0964
  710TIP3    H123621   3.747   2.098   3.476 -1.2456  0.5818 -0.0596
  710TIP3    H223622   3.834   2.081   3.599  0.4814 -0.0872 -1.3718
  711TIP3   OH223623   4.025   4.866   3.338 -0.1822 -0.0533  1.0396
  711TIP3    H123624   4.098   4.831   3.286 -0.7519  0.7678 -0.3468
  711TIP3    H223625   3.976   4.789   3.366 -1.6600 -0.3984 -2.3191
  712TIP3   OH223626   5.404   2.435  15.085  0.2215  0.8951 -0.3610
  712TIP3    H123627   5.404   2.425  15.180  0.4442  0.8351 -0.3697
  712TIP3    H223628   5.426   2.349  15.051 -0.4046  0.7768 -0.4823
  713TIP3   OH223629   4.995   5.577   5.678  0.3454  0.1457 -0.1257
  713TIP3    H123630   4.971   5.557   5.588  0.0500 -0.8590  0.1693
  713TIP3    H223631   4.929   5.639   5.708 -1.1342 -1.5607  0.2474
  714TIP3   OH223632   5.745   5.347  17.120 -0.0737  0.1453 -0.5430
  714TIP3    H123633   5.700   5.331  17.203 -0.6211 -2.9326 -1.3673
  714TIP3    H223634   5.835   5.319  17.136 -0.2376 -0.6801 -1.0498
  715TIP3   OH223635   2.375   1.316   4.497 -0.0784 -0.1956 -0.2473
  715TIP3    H123636   2.439   1.370   4.544  0.5742 -0.2922 -1.0292
  715TIP3    H223637   2.368   1.356   4.410 -0.2507 -0.8546 -0.5394
  716TIP3   OH223638   2.413   6.439   6.011  0.3369 -0.2396  0.2300
  716TIP3    H123639   2.363   6.414   5.933  0.4852  1.3273 -0.3892
  716TIP3    H223640   2.353   6.423   6.083 -0.3677 -0.2584 -0.3504
  717TIP3   OH223641   5.606   4.190   5.341 -0.2275  0.1074 -0.2937
  717TIP3    H123642   5.694   4.188   5.305  0.1470 -1.6302  0.6556
  717TIP3    H223643   5.553   4.140   5.278  0.0215 -1.1838  0.5077
  718TIP3   OH223644   2.038   1.206   4.801  0.3967 -0.6787 -0.1628
  718TIP3    H123645   2.066   1.117   4.781  0.5801 -0.1789 -2.2121
  718TIP3    H223646   2.104   1.262   4.760 -0.2196  0.4121  0.3045
  719TIP3   OH223647   1.523   0.377   0.154  0.1923  0.1569  0.5497
  719TIP3    H123648   1.465   0.385   0.229  0.5820  0.3684  0.8331
  719TIP3    H223649   1.494   0.298   0.109  0.2323 -0.2094  1.1661
  720TIP3   OH223650   6.364   5.478  11.346 -0.7210 -0.4022 -0.5167
  720TIP3    H123651   6.317   5.494  11.427 -0.5776  0.9676 -0.6886
  720TIP3    H223652   6.456   5.469  11.373 -1.0207 -2.8847 -0.2028
  721TIP3   OH223653   4.558   2.835  10.179 -0.0773  0.2673  0.2057
  721TIP3    H123654   4.479   2.796  10.143 -0.1964  0.5679  0.1358
  721TIP3    H223655   4.557   2.926  10.147  1.2715 -0.2458 -1.3574
  722TIP3   OH223656   0.503   4.924  16.910  0.2833 -0.0352  0.1587
  722TIP3    H123657   0.499   5.005  16.960  0.7427  0.2412 -0.2501
  722TIP3    H223658   0.503   4.855  16.976 -1.1552  0.2576  0.4846
  723TIP3   OH223659   0.849   1.780  15.401  0.1961 -0.2180 -0.0906
  723TIP3    H123660   0.921   1.842  15.392  0.0343  0.3720  2.2573
  723TIP3    H223661   0.777   1.819  15.352  0.4103  0.9252  0.4911
  724TIP3   OH223662   5.353   0.219  17.056  0.0225 -0.5829 -0.8206
  724TIP3    H123663   5.359   0.176  16.971 -0.5814 -0.4351 -0.9406
  724TIP3    H223664   5.309   0.302  17.038 -0.8908 -0.9329 -0.2375
  725TIP3   OH223665   1.321   1.985  12.881 -0.2320 -0.5861  0.2058
  725TIP3    H123666   1.383   2.058  12.887 -1.8622  0.8747 -0.2025
  725TIP3    H223667   1.250   2.019  12.828 -1.5547 -2.1159  0.9666
  726TIP3   OH223668   5.360   6.236  12.535  0.3042  0.0730 -0.2394
  726TIP3    H123669   5.383   6.242  12.442  1.9557  0.9804  0.2124
  726TIP3    H223670   5.329   6.324  12.557 -1.4439 -0.5236 -0.2671
  727TIP3   OH223671   3.970   6.801  16.238  0.3781 -0.8002 -0.6669
  727TIP3    H123672   4.042   6.846  16.283  0.2268 -0.9218 -0.2968
  727TIP3    H223673   3.957   6.850  16.157 -0.7420  0.6738  0.3858
  728TIP3   OH223674   0.455   4.870  11.145  0.2805 -0.1144 -0.6613
  728TIP3    H123675   0.483   4.809  11.076 -0.6716 -1.4325  0.0984
  728TIP3    H223676   0.459   4.957  11.103 -1.8098 -1.0356 -2.9121
  729TIP3   OH223677   0.072   4.000  11.574  0.6759  0.4313 -0.2039
  729TIP3    H123678   0.045   4.038  11.490  0.1605 -0.6878 -0.5485
  729TIP3    H223679   0.168   3.992  11.567  0.4842 -1.1024 -1.3063
  730TIP3   OH223680   2.801   5.974   4.595 -0.3279 -0.6514  0.2230
  730TIP3    H123681   2.721   5.979   4.646 -1.9257 -0.3810 -2.2085
  730TIP3    H223682   2.858   5.916   4.644 -2.9319 -2.7762  0.8111
  731TIP3   OH223683   1.196   3.010   4.155 -0.2119  0.1228  0.0900
  731TIP3    H123684   1.185   3.010   4.250 -0.2474 -0.1192  0.0863
  731TIP3    H223685   1.108   3.021   4.121 -0.4199 -1.5530  0.0632
  732TIP3   OH223686   2.542   1.771  13.630  0.7162  0.2027 -0.6458
  732TIP3    H123687   2.625   1.735  13.661  0.6935  0.8646  0.2034
  732TIP3    H223688   2.476   1.707  13.655  0.8542  0.1351 -0.4630
  733TIP3   OH223689   0.631   6.653  16.490  0.7947 -0.1093  0.1939
  733TIP3    H123690   0.545   6.626  16.458  0.7107 -0.0897  0.4053
  733TIP3    H223691   0.687   6.651  16.412  0.0189  2.4060 -0.4864
  734TIP3   OH223692   1.629   6.201  16.219 -0.1180  0.1320  0.1707
  734TIP3    H123693   1.572   6.125  16.229 -0.1213  0.4375  2.9104
  734TIP3    H223694   1.717   6.166  16.235 -0.1181  0.6661  1.4133
  735TIP3   OH223695   5.091   2.582  12.457  0.0773 -0.0927  0.2964
  735TIP3    H123696   5.116   2.490  12.448 -0.9823 -0.4884  1.1752
  735TIP3    H223697   5.065   2.590  12.549  0.8192  1.2520  0.3921
  736TIP3   OH223698   2.658   1.627  16.022 -0.8203  0.9395  0.1549
  736TIP3    H123699   2.616   1.543  16.042 -0.5842  0.2137 -2.2339
  736TIP3    H223700   2.666   1.671  16.106 -1.8989 -1.0044  1.2956
  737TIP3   OH223701   2.919   0.956   4.266 -0.2138  0.1223 -0.1766
  737TIP3    H123702   2.876   0.976   4.182 -0.7331 -0.2121  0.0054
  737TIP3    H223703   2.963   0.872   4.251 -1.2859 -0.5273  0.2316
  738TIP3   OH223704   1.418   2.526  11.710 -0.9058  0.5164 -0.5237
  738TIP3    H123705   1.470   2.487  11.780 -0.8427  3.2096  1.0046
  738TIP3    H223706   1.464   2.501  11.630  1.3952  0.7818  0.6524
  739TIP3   OH223707   2.108   4.052   2.159 -0.8327  0.0154 -0.2361
  739TIP3    H123708   2.017   4.031   2.136 -0.5621 -1.2613 -0.1905
  739TIP3    H223709   2.135   4.117   2.094 -0.9579 -1.5215 -1.8655
  740TIP3   OH223710   2.555   2.714  16.811  0.4366 -0.3123  0.0443
  740TIP3    H123711   2.591   2.693  16.724  0.5226 -3.0203  0.6997
  740TIP3    H223712   2.461   2.723  16.796  0.5657  0.2651 -0.4874
  741TIP3   OH223713   4.622   2.231   2.018 -0.2487 -0.1365  0.1940
  741TIP3    H123714   4.697   2.278   2.055  0.7023 -1.2594 -0.2644
  741TIP3    H223715   4.623   2.254   1.925 -0.8674  0.3635  0.3112
  742TIP3   OH223716   2.780   5.640   1.076 -0.0563 -0.5942  0.1786
  742TIP3    H123717   2.789   5.735   1.071 -1.0166 -0.4401  0.9865
  742TIP3    H223718   2.792   5.610   0.986 -1.8225  0.5078 -0.4794
  743TIP3   OH223719   2.190   0.484  14.910  0.3568 -0.0866  0.1689
  743TIP3    H123720   2.180   0.536  14.991  0.8021 -1.3701  1.0610
  743TIP3    H223721   2.279   0.503  14.881 -0.0039  0.8351 -0.3525
  744TIP3   OH223722   1.926   4.408   4.019 -0.4229  0.2156  0.5118
  744TIP3    H123723   1.907   4.468   4.091  1.8882  0.4553  0.9727
  744TIP3    H223724   1.849   4.412   3.963 -0.0360  4.1359  0.1817
  745TIP3   OH223725   2.165   2.748  16.683  0.5560 -0.5966  0.4650
  745TIP3    H123726   2.137   2.764  16.773 -1.6228 -1.2334 -0.0723
  745TIP3    H223727   2.192   2.656  16.682  2.0391 -0.1844  0.8008
  746TIP3   OH223728   0.738   1.422   1.567 -0.8677 -0.3577  0.1431
  746TIP3    H123729   0.677   1.464   1.627 -0.9440 -1.3975  0.8074
  746TIP3    H223730   0.686   1.356   1.521 -1.2415  1.6580 -2.4108
  747TIP3   OH223731   5.852   6.030   0.496 -0.2715 -0.1787  0.3265
  747TIP3    H123732   5.814   5.941   0.497  1.6885 -1.0813 -1.4068
  747TIP3    H223733   5.829   6.064   0.409 -2.7957  1.8716  1.7250
  748TIP3   OH223734   1.423   4.985   5.951  0.2026 -0.2833  0.4043
  748TIP3    H123735   1.518   4.970   5.948  0.4471  1.1146  0.5291
  748TIP3    H223736   1.402   4.983   6.045  0.2974  0.4587  0.4446
  749TIP3   OH223737   0.796   2.242  13.955  0.1346 -0.5616  0.5749
  749TIP3    H123738   0.781   2.336  13.947  0.6078 -0.5124  0.2572
  749TIP3    H223739   0.727   2.211  14.014  0.1817  0.0417  0.9496
  750TIP3   OH223740   3.639   4.196   3.661 -0.1032  0.3065 -0.2327
  750TIP3    H123741   3.548   4.200   3.688 -0.9724  1.4802 -3.1677
  750TIP3    H223742   3.686   4.165   3.739 -2.9636 -0.2608  1.3275
  751TIP3   OH223743   0.736   1.724   3.128  0.0936  0.3471 -0.3082
  751TIP3    H123744   0.683   1.672   3.187  1.3792 -0.0078  0.5625
  751TIP3    H223745   0.819   1.677   3.122  1.0029  1.8841 -0.1273
  752TIP3   OH223746   0.707   4.052  12.047 -0.1723  0.5634 -0.0378
  752TIP3    H123747   0.768   3.979  12.060  1.2816  1.5964 -0.8922
  752TIP3    H223748   0.678   4.074  12.135 -1.1134 -1.4402  0.1849
  753TIP3   OH223749   6.796   5.256   4.983  0.1735 -0.0081  0.6489
  753TIP3    H123750   6.842   5.173   4.973  0.6647  0.3898 -0.4891
  753TIP3    H223751   6.708   5.239   4.949  0.6573  0.2654 -0.7923
  754TIP3   OH223752   2.794   2.532  16.012  0.2224  0.0917 -0.1100
  754TIP3    H123753   2.798   2.440  15.984 -0.4627  0.0124  0.0490
  754TIP3    H223754   2.773   2.528  16.105  1.4403  0.3835  0.1927
  755TIP3   OH223755   3.713   5.187   4.042 -0.6357  0.0577  0.2662
  755TIP3    H123756   3.652   5.221   3.977 -1.0807 -0.4763  0.4030
  755TIP3    H223757   3.781   5.143   3.991 -0.1632  0.9697  0.0973
  756TIP3   OH223758   5.646   1.324  13.602  0.0794  0.1420  0.3080
  756TIP3    H123759   5.711   1.312  13.672 -0.3150 -1.0311  0.4960
  756TIP3    H223760   5.655   1.246  13.548  0.0764  0.8438 -0.7101
  757TIP3   OH223761   2.741   6.705   3.744  0.0504 -0.2147  0.0068
  757TIP3    H123762   2.668   6.766   3.742 -0.8428 -1.2701 -0.0755
  757TIP3    H223763   2.819   6.761   3.749 -0.7334  0.9235 -0.3224
  758TIP3   OH223764   3.790   2.560   4.213  0.0561  0.2238 -0.4121
  758TIP3    H123765   3.717   2.512   4.174  1.1216 -0.6968 -1.3098
  758TIP3    H223766   3.868   2.523   4.171  1.1556  0.1220  1.6595
  759TIP3   OH223767   1.736   1.351  12.920 -0.0074  0.2461  0.5695
  759TIP3    H123768   1.805   1.376  12.982 -1.1350  3.0077  0.7647
  759TIP3    H223769   1.772   1.375  12.834 -0.8985  2.1910  0.7160
  760TIP3   OH223770   6.707   1.618   0.477  0.0917 -0.9488 -0.9920
  760TIP3    H123771   6.732   1.621   0.385  0.4334 -0.2942 -0.8779
  760TIP3    H223772   6.704   1.709   0.505 -0.2599 -1.1285 -0.4191
  761TIP3   OH223773   6.010   4.155   0.766 -0.1220  0.0826 -0.5069
  761TIP3    H123774   6.009   4.080   0.825  1.1191 -0.3643 -1.0318
  761TIP3    H223775   6.061   4.126   0.691 -1.5469  0.6959 -1.7483
  762TIP3   OH223776   4.625   5.266   1.586 -0.0467  0.8853  0.2667
  762TIP3    H123777   4.626   5.209   1.509  0.0093  1.9818 -0.5548
  762TIP3    H223778   4.674   5.218   1.652 -1.4087 -0.7513  0.1236
  763TIP3   OH223779   4.897   0.995  16.478 -0.2005  0.1218  0.4010
  763TIP3    H123780   4.805   0.998  16.453  0.0812 -1.9929 -0.9891
  763TIP3    H223781   4.942   1.050  16.414 -0.4570  0.9540  0.9329
  764TIP3   OH223782   2.014   4.000  15.217 -0.5192 -0.2190 -0.9482
  764TIP3    H123783   2.104   4.000  15.251 -1.2101  2.0983  1.0099
  764TIP3    H223784   1.983   3.911  15.233 -0.4319  0.4775  3.5843
  765TIP3   OH223785   0.068   2.241  13.591 -0.2302  0.1926 -0.6517
  765TIP3    H123786   0.049   2.333  13.607  2.0482  0.6356 -0.4080
  765TIP3    H223787   0.018   2.195  13.659 -0.6613  1.3014 -0.2034
  766TIP3   OH223788   5.636   5.189   2.813  0.1194 -0.7700  0.0093
  766TIP3    H123789   5.544   5.196   2.790  0.3111  0.5126 -0.4530
  766TIP3    H223790   5.637   5.172   2.907 -0.5764  0.0739  0.1743
  767TIP3   OH223791   2.744   0.398  15.560  0.2298  0.2812 -0.2012
  767TIP3    H123792   2.722   0.476  15.508  2.8324  1.1353 -0.1162
  767TIP3    H223793   2.755   0.432  15.650 -0.7994 -0.5771  0.2540
  768TIP3   OH223794   1.766   5.567   1.598 -0.2702 -0.0112  0.3188
  768TIP3    H123795   1.853   5.586   1.562 -0.2887 -0.5496 -0.0150
  768TIP3    H223796   1.776   5.483   1.643 -0.9471 -0.7616 -0.8983
  769TIP3   OH223797   2.792   6.729  17.154  0.3243  0.8870  0.6325
  769TIP3    H123798   2.779   6.712  17.247 -0.6647 -1.3721  0.1013
  769TIP3    H223799   2.835   6.651  17.121 -0.6271  1.0669 -1.0828
  770TIP3   OH223800   1.894   4.655  12.497  0.5007 -0.4399  0.3935
  770TIP3    H123801   1.925   4.668  12.407  0.7942  2.6131  0.8838
  770TIP3    H223802   1.800   4.640  12.488  0.8676 -2.3664 -0.5508
  771TIP3   OH223803   0.595   6.222  13.301 -0.2141 -0.2102  0.2332
  771TIP3    H123804   0.674   6.256  13.342 -0.4512  0.3095  0.2601
  771TIP3    H223805   0.623   6.192  13.214 -0.0223  0.1256  0.1815
  772TIP3   OH223806   1.734   5.387   0.963 -0.2942  0.6353  0.2050
  772TIP3    H123807   1.768   5.458   0.908  0.2739  0.9355  0.9291
  772TIP3    H223808   1.800   5.318   0.957 -1.8010 -0.6475 -2.0887
  773TIP3   OH223809   1.228   6.587   4.885  0.0437 -0.6682 -0.2483
  773TIP3    H123810   1.319   6.564   4.871  0.0967 -0.6702  0.0945
  773TIP3    H223811   1.194   6.516   4.941  0.4740  0.6252  1.6796
  774TIP3   OH223812   5.561   1.987   2.802 -0.6320 -0.3709 -0.0299
  774TIP3    H123813   5.630   2.009   2.864 -0.6433 -2.3681  0.7413
  774TIP3    H223814   5.481   1.986   2.854 -1.4413  2.8676 -1.1061
  775TIP3   OH223815   5.826   0.831  14.697 -0.5076  0.3912  0.2880
  775TIP3    H123816   5.846   0.903  14.756 -0.6270  0.8912 -0.2891
  775TIP3    H223817   5.904   0.776  14.699 -0.7381  0.0799  1.3860
  776TIP3   OH223818   0.548   2.411  17.184 -0.0848  0.1305  0.3958
  776TIP3    H123819   0.492   2.478  17.224  0.4046  2.2463 -2.2741
  776TIP3    H223820   0.637   2.445  17.196  0.2573 -0.6753  0.1282
  777TIP3   OH223821   3.295   3.287   0.369 -0.1945 -0.3592 -0.2759
  777TIP3    H123822   3.278   3.195   0.347  1.1124 -0.5098 -0.7414
  777TIP3    H223823   3.365   3.283   0.434 -1.2898  0.2501  0.9480
  778TIP3   OH223824   1.644   1.704   2.637  0.2525  0.3214  0.1663
  778TIP3    H123825   1.663   1.662   2.553  0.4525  1.2087 -0.2382
  778TIP3    H223826   1.549   1.693   2.648  0.3443 -0.4937  0.2147
  779TIP3   OH223827   2.084   3.087  11.888  0.1540  0.0402 -0.0487
  779TIP3    H123828   2.058   3.085  11.796 -0.3384  2.3723  0.0123
  779TIP3    H223829   2.176   3.115  11.886 -0.4004  1.9665  0.2273
  780TIP3   OH223830   5.553   5.808  15.071  0.0637  0.0204  0.2125
  780TIP3    H123831   5.485   5.872  15.093 -1.8678 -2.1044  0.6703
  780TIP3    H223832   5.543   5.795  14.976 -0.9044 -1.0555  0.4461
  781TIP3   OH223833   2.828   0.068  14.797 -0.0881  0.2688  0.8625
  781TIP3    H123834   2.877  -0.013  14.809 -0.0632  0.0647 -0.5526
  781TIP3    H223835   2.819   0.104  14.886 -0.2991 -1.3845  1.5372
  782TIP3   OH223836   5.880   2.599   6.091  0.5479  0.0712  0.0581
  782TIP3    H123837   5.854   2.610   5.999  0.6800 -1.0648 -0.1223
  782TIP3    H223838   5.941   2.671   6.107 -0.8555  1.3638 -0.2035
  783TIP3   OH223839   2.877   3.050  13.800  0.3016 -0.5418  0.6230
  783TIP3    H123840   2.822   3.011  13.732 -1.5112 -1.3954  2.5015
  783TIP3    H223841   2.943   3.099  13.752  0.3009 -2.7509 -1.7802
  784TIP3   OH223842   1.817   1.275  14.830 -0.7082 -0.5348  0.6252
  784TIP3    H123843   1.727   1.291  14.802 -0.2381  2.2073  0.5922
  784TIP3    H223844   1.829   1.333  14.906  1.1784 -0.5230  0.3397
  785TIP3   OH223845   2.455   6.219  11.356  0.0203  0.0892 -0.1411
  785TIP3    H123846   2.520   6.272  11.311 -0.4395  1.9041  1.2680
  785TIP3    H223847   2.416   6.278  11.421 -1.9096 -1.4008  0.1184
  786TIP3   OH223848   4.253   3.826  12.272 -0.1663  0.2809 -0.8726
  786TIP3    H123849   4.315   3.784  12.212  0.5188  1.1343 -0.7738
  786TIP3    H223850   4.172   3.832  12.221  0.2998  0.6543 -1.5847
  787TIP3   OH223851   2.877   3.869  13.756 -0.5147 -0.2806 -1.1043
  787TIP3    H123852   2.854   3.958  13.783 -0.0057 -0.7147  0.8288
  787TIP3    H223853   2.958   3.879  13.706 -0.0188  0.2654 -0.2110
  788TIP3   OH223854   5.819   4.583  12.997 -0.3181  0.4006 -0.4308
  788TIP3    H123855   5.746   4.521  12.989  0.1473 -0.1046 -0.8170
  788TIP3    H223856   5.793   4.642  13.068 -0.3735 -0.7826  0.5443
  789TIP3   OH223857   1.810   2.357  13.516 -0.2598  0.1874  0.0965
  789TIP3    H123858   1.864   2.367  13.595  2.0200  1.6623 -1.5984
  789TIP3    H223859   1.722   2.384  13.543  0.5960  1.1350  2.0066
  790TIP3   OH223860   1.338   1.327   1.771 -0.1681 -0.7033 -0.0298
  790TIP3    H123861   1.410   1.292   1.824  0.9926  0.6606 -0.6727
  790TIP3    H223862   1.349   1.422   1.777 -2.4509 -0.4616  0.5725
  791TIP3   OH223863   4.146   4.713  12.606 -0.6329 -0.2349  0.5871
  791TIP3    H123864   4.239   4.735  12.614 -1.0276  1.6700  0.2850
  791TIP3    H223865   4.136   4.677  12.518  0.2263 -2.7062  1.4713
  792TIP3   OH223866   0.739   0.675   0.812  0.1050  0.2090  0.0161
  792TIP3    H123867   0.712   0.590   0.776  0.0244  0.5484 -0.7470
  792TIP3    H223868   0.813   0.655   0.869 -0.3485 -0.4572  0.3710
  793TIP3   OH223869   2.780   1.748   4.083 -0.2226  0.0629 -0.1876
  793TIP3    H123870   2.722   1.705   4.020  0.7373  1.1218 -1.8562
  793TIP3    H223871   2.841   1.680   4.110  0.4567  0.0068 -1.7861
  794TIP3   OH223872   4.301   1.512   0.342 -0.4951 -0.4520 -0.4134
  794TIP3    H123873   4.392   1.491   0.364 -0.6566  0.0461  0.7515
  794TIP3    H223874   4.308   1.587   0.282 -0.1895  0.7426  1.0858
  795TIP3   OH223875   2.719   2.168  16.717  0.7946  0.4894 -0.8779
  795TIP3    H123876   2.631   2.132  16.705  1.3051 -0.9495 -0.3545
  795TIP3    H223877   2.748   2.134  16.802  1.5206  1.6698 -0.6317
  796TIP3   OH223878   1.781   3.711  14.786 -0.2584  0.6166 -0.4272
  796TIP3    H123879   1.722   3.774  14.828  1.2057  0.7766  1.4647
  796TIP3    H223880   1.733   3.629  14.785 -1.2133  1.1705 -0.5881
  797TIP3   OH223881   0.644   3.111  13.789 -0.1482  0.1528  0.0131
  797TIP3    H123882   0.641   3.019  13.762 -3.9121  0.6023 -1.4172
  797TIP3    H223883   0.596   3.157  13.720  1.3786  3.1796  0.8961
  798TIP3   OH223884   6.074   5.341  16.441  0.3143 -0.3680 -0.4634
  798TIP3    H123885   6.032   5.262  16.475 -1.3670  0.8978  0.4731
  798TIP3    H223886   6.031   5.413  16.487  0.4184  1.2194 -2.7540
  799TIP3   OH223887   6.796   6.355   5.616 -0.0984  0.6870 -0.1874
  799TIP3    H123888   6.708   6.391   5.632 -0.2497  0.2393  0.0087
  799TIP3    H223889   6.846   6.429   5.582 -0.8368  0.6807 -1.3110
  800TIP3   OH223890   5.382   3.014  11.747  0.2933 -0.0137 -0.9884
  800TIP3    H123891   5.372   3.100  11.788  0.7680 -1.1026  1.5065
  800TIP3    H223892   5.476   3.001  11.741  0.2227 -0.5781 -0.8709
  801TIP3   OH223893   3.462   2.522   5.707 -0.0025 -0.1072  0.1971
  801TIP3    H123894   3.439   2.601   5.658 -1.4817 -1.5277 -1.4704
  801TIP3    H223895   3.387   2.507   5.765  1.0324  0.6544  1.7681
  802TIP3   OH223896   5.588   3.074  11.243 -0.1670  0.1441  0.1241
  802TIP3    H123897   5.668   3.052  11.196 -0.2852  1.1629 -0.5553
  802TIP3    H223898   5.552   2.989  11.270  0.7422 -0.3510 -0.2102
  803TIP3   OH223899   1.498   3.500   1.310 -0.1791  0.3241 -0.5971
  803TIP3    H123900   1.592   3.507   1.294 -0.5134  3.8938 -1.3478
  803TIP3    H223901   1.458   3.527   1.228 -1.8857 -0.9587 -0.2034
  804TIP3   OH223902   6.585   6.325  16.850  0.4418 -0.3356 -0.1602
  804TIP3    H123903   6.495   6.304  16.827  0.5268 -1.3583  0.3740
  804TIP3    H223904   6.609   6.397  16.793 -0.6055 -0.2884 -0.5429
  805TIP3   OH223905   1.863   5.866   2.089 -0.1108 -0.4339 -0.3655
  805TIP3    H123906   1.785   5.922   2.085 -0.1143 -0.4311 -0.2594
  805TIP3    H223907   1.906   5.879   2.005  0.1089  0.0399 -0.1793
  806TIP3   OH223908   3.514   6.394  13.095  0.1172 -0.2859  0.1061
  806TIP3    H123909   3.509   6.468  13.155 -0.8297  0.4808 -0.9160
  806TIP3    H223910   3.587   6.414  13.037 -0.2741 -0.0460 -0.3068
  807TIP3   OH223911   5.027   0.807   4.194 -0.4616  0.0166  0.1094
  807TIP3    H123912   5.093   0.855   4.145  0.7124  0.3660  1.9777
  807TIP3    H223913   4.998   0.868   4.261 -0.9565 -0.9399  0.7836
  808TIP3   OH223914   2.044   0.464  12.278  0.2147  0.3625  0.1635
  808TIP3    H123915   2.089   0.513  12.209  0.7532 -0.0401  0.2277
  808TIP3    H223916   1.978   0.412  12.232 -1.2086  2.0868  0.2157
  809TIP3   OH223917   4.269   4.253  15.085  0.2234  0.3236 -0.2939
  809TIP3    H123918   4.354   4.290  15.061  1.0260 -1.6690 -0.6989
  809TIP3    H223919   4.282   4.220  15.175 -0.2162  0.2957 -0.2399
  810TIP3   OH223920   1.309   0.497   5.876 -0.0127 -0.5653  0.0416
  810TIP3    H123921   1.237   0.461   5.825 -0.3300 -0.5591  0.4842
  810TIP3    H223922   1.267   0.545   5.947  0.4208 -0.1383  0.0130
  811TIP3   OH223923   2.812   2.653  12.188 -0.5225  0.3071  0.3743
  811TIP3    H123924   2.819   2.723  12.253 -0.1386 -0.3451  1.0410
  811TIP3    H223925   2.851   2.577  12.230 -2.2253 -0.6872  0.2006
  812TIP3   OH223926   5.868   4.741  12.343  0.0411 -0.3168 -0.1206
  812TIP3    H123927   5.868   4.690  12.424 -1.1741 -0.1855 -0.0271
  812TIP3    H223928   5.776   4.749  12.320  0.3986 -0.9000 -1.8696
  813TIP3   OH223929   6.137   3.133   5.389  0.2406 -0.5178  0.0204
  813TIP3    H123930   6.093   3.057   5.351  0.7984 -0.5570 -0.5667
  813TIP3    H223931   6.073   3.204   5.382 -0.6818 -1.1820  1.5674
  814TIP3   OH223932   0.546   0.683  11.121 -0.2803 -0.0395  0.2258
  814TIP3    H123933   0.586   0.612  11.170 -1.2711 -0.0997  0.9645
  814TIP3    H223934   0.534   0.753  11.185 -0.0901  0.4806 -0.3031
  815TIP3   OH223935   2.820   4.790   4.131 -0.0941 -0.5708  0.0749
  815TIP3    H123936   2.777   4.833   4.205  1.0379  0.5556  0.0833
  815TIP3    H223937   2.831   4.699   4.159  1.5192  0.1422  1.8163
  816TIP3   OH223938   2.400   4.248  13.520  0.6756 -0.0878 -0.8467
  816TIP3    H123939   2.351   4.280  13.444  1.1427 -0.3966 -1.2758
  816TIP3    H223940   2.338   4.192  13.567  0.1888  0.5926 -0.6582
  817TIP3   OH223941   2.003   6.223  16.549  0.1120 -0.1960 -0.0863
  817TIP3    H123942   2.015   6.318  16.556  0.0312 -0.0522 -1.6276
  817TIP3    H223943   1.908   6.211  16.553  0.1188 -0.2011  0.0544
  818TIP3   OH223944   5.159   2.125  11.378 -0.0421  0.0850 -0.2389
  818TIP3    H123945   5.070   2.153  11.358  0.1868  0.9393 -0.1096
  818TIP3    H223946   5.178   2.162  11.464  0.1816 -0.7083  0.0598
  819TIP3   OH223947   6.493   4.749   3.682 -0.3203 -0.2659 -0.1091
  819TIP3    H123948   6.409   4.702   3.680 -1.2477  1.2983  0.8772
  819TIP3    H223949   6.529   4.738   3.594 -0.8903 -2.1347 -0.1272
  820TIP3   OH223950   5.547   4.623   2.467  0.2251 -0.3585 -0.2918
  820TIP3    H123951   5.541   4.716   2.492 -0.5487 -0.4742 -0.0404
  820TIP3    H223952   5.622   4.590   2.516 -1.2302 -0.5620  1.8249
  821TIP3   OH223953   5.039   3.156  13.031  0.3076 -0.7350  0.4377
  821TIP3    H123954   5.024   3.243  13.068  1.6993 -0.6770  0.9029
  821TIP3    H223955   4.977   3.100  13.077  0.4052 -0.2355  1.2006
  822TIP3   OH223956   1.116   2.939  14.495  0.3421 -0.4197 -0.8048
  822TIP3    H123957   1.149   2.965  14.409 -0.7867  1.1797 -0.7753
  822TIP3    H223958   1.073   2.855  14.481 -1.2655  0.6044 -2.1538
  823TIP3   OH223959   2.302   5.772   3.246  0.5098 -0.0721 -0.0644
  823TIP3    H123960   2.328   5.862   3.227 -1.1526  0.2613 -0.8211
  823TIP3    H223961   2.363   5.717   3.196  0.3276  0.6783 -1.1177
  824TIP3   OH223962   1.481   1.258  10.768  0.0636  0.4720  0.1413
  824TIP3    H123963   1.457   1.315  10.695 -2.0134 -0.8856 -0.3026
  824TIP3    H223964   1.408   1.267  10.830 -0.6356 -2.1040 -0.2308
  825TIP3   OH223965   5.586   5.170   3.829  0.4360  0.3271 -0.6132
  825TIP3    H123966   5.573   5.082   3.866 -2.4626  0.2625 -1.6622
  825TIP3    H223967   5.549   5.229   3.894 -0.8236  0.5031 -1.4724
  826TIP3   OH223968   4.144   2.301  13.685 -0.2366  0.3243  0.0545
  826TIP3    H123969   4.158   2.332  13.774  0.3974  2.1182 -0.6418
  826TIP3    H223970   4.189   2.216  13.682  0.0077  0.3917  1.3422
  827TIP3   OH223971   4.174   2.953  12.406 -0.1320 -0.2226 -0.6899
  827TIP3    H123972   4.269   2.965  12.411 -0.4209  1.4601  1.1829
  827TIP3    H223973   4.143   3.027  12.354 -0.4795 -0.4520 -0.8099
  828TIP3   OH223974   4.550   0.509   1.552  0.4418 -0.2067  0.8079
  828TIP3    H123975   4.628   0.501   1.497 -0.6784  0.8381 -0.9492
  828TIP3    H223976   4.562   0.442   1.620  0.9422 -2.8560 -1.7986
  829TIP3   OH223977   3.871   3.892   5.706  0.4113 -0.3822  0.2427
  829TIP3    H123978   3.905   3.982   5.710  0.3664 -0.3580  0.0960
  829TIP3    H223979   3.827   3.887   5.620 -1.5199  0.1416  1.1738
  830TIP3   OH223980   3.249   2.066  11.561  0.4466  0.2481  0.0879
  830TIP3    H123981   3.283   2.149  11.596  1.1622  1.7836 -3.9463
  830TIP3    H223982   3.320   2.032  11.508 -1.5603 -0.4418 -2.2493
  831TIP3   OH223983   2.934   3.923  11.734 -0.0393 -0.2142 -0.3200
  831TIP3    H123984   3.001   3.861  11.763  0.5462  1.2583  1.6100
  831TIP3    H223985   2.966   3.956  11.651  1.6271  0.4370  0.5588
  832TIP3   OH223986   0.660   2.864  13.688 -0.3977  0.8363 -0.5923
  832TIP3    H123987   0.741   2.864  13.638  0.0923  0.5282  0.1913
  832TIP3    H223988   0.593   2.834  13.626  0.4794 -1.1361 -0.6231
  833TIP3   OH223989   4.087   6.426   3.134  0.2674  0.3372  0.3929
  833TIP3    H123990   4.057   6.421   3.225  1.8395 -2.0797  0.8158
  833TIP3    H223991   4.076   6.518   3.110 -2.5960  0.5235  2.1769
  834TIP3   OH223992   4.912   0.523  12.473 -0.2324  0.1760  0.3070
  834TIP3    H123993   4.882   0.515  12.382 -0.5133 -0.1725  0.4284
  834TIP3    H223994   4.835   0.501  12.525 -0.1735  0.7332  0.6348
  835TIP3   OH223995   6.279   0.854  13.061  0.0060 -0.0114 -0.6576
  835TIP3    H123996   6.259   0.944  13.085  0.5928 -0.1317  0.3394
  835TIP3    H223997   6.196   0.808  13.069 -0.3878  0.5242 -1.5991
  836TIP3   OH223998   5.718   2.550  15.005 -0.4138 -0.6943 -0.2379
  836TIP3    H123999   5.664   2.539  15.083 -1.9003  1.0794 -0.9700
  836TIP3    H224000   5.808   2.545  15.037 -1.0042 -0.3630  1.5403
  837TIP3   OH224001   6.172   4.710   5.806 -0.1918 -0.0312  0.0596
  837TIP3    H124002   6.137   4.645   5.867 -1.5906  0.5159 -0.1298
  837TIP3    H224003   6.138   4.683   5.721  3.0620 -1.7168 -0.7813
  838TIP3   OH224004   3.180   4.357  12.630  0.1642  0.1202  0.0442
  838TIP3    H124005   3.220   4.272  12.649 -0.3488  0.0105  0.6404
  838TIP3    H224006   3.087   4.344  12.648 -0.0469  0.5645 -0.7064
  839TIP3   OH224007   6.426   1.801  12.892  0.2814 -0.2600  0.1885
  839TIP3    H124008   6.517   1.819  12.867  0.8002 -2.7346  0.1826
  839TIP3    H224009   6.416   1.707  12.881 -2.5295  0.0803 -0.5226
  840TIP3   OH224010   3.873   6.408  15.459 -0.4471 -0.4486 -0.0449
  840TIP3    H124011   3.904   6.459  15.533 -1.2523  1.0175 -0.6713
  840TIP3    H224012   3.788   6.373  15.487 -0.7056  0.0246 -0.2120
  841TIP3   OH224013   3.375   2.249  11.198  0.4021 -1.3418  0.6230
  841TIP3    H124014   3.423   2.230  11.278  1.8193 -0.3452  0.0325
  841TIP3    H224015   3.387   2.171  11.143  1.6345 -0.9774  0.3570
  842TIP3   OH224016   0.655   3.374   0.064 -0.0249  0.3901 -0.6390
  842TIP3    H124017   0.638   3.463   0.096  0.2485 -0.5447  2.1678
  842TIP3    H224018   0.734   3.384   0.011  1.4773  1.4336  1.7012
  843TIP3   OH224019   3.926   4.462  14.806 -0.0314 -0.5816  0.4578
  843TIP3    H124020   3.919   4.372  14.775  0.7371 -1.1710  1.9838
  843TIP3    H224021   4.009   4.466  14.853 -0.2640  0.8165  0.7891
  844TIP3   OH224022   1.274   2.232   0.362  0.3453  0.0423  0.3837
  844TIP3    H124023   1.216   2.227   0.285 -0.3088  0.6082  0.8414
  844TIP3    H224024   1.332   2.305   0.343  1.5816 -1.1469 -0.5294
  845TIP3   OH224025   2.276   2.286   4.705 -0.0745 -0.1854  0.8181
  845TIP3    H124026   2.363   2.321   4.687 -0.1861 -0.6743 -0.6636
  845TIP3    H224027   2.254   2.321   4.792  1.0521  0.9896  0.6443
  846TIP3   OH224028   2.980   1.686  12.785 -0.7072 -0.7093  0.5531
  846TIP3    H124029   2.917   1.617  12.807 -0.5232 -1.0648 -0.0396
  846TIP3    H224030   2.933   1.768  12.804 -1.4460 -0.9688 -0.1205
  847TIP3   OH224031   3.159   0.873  10.462  0.1337 -0.2203  0.7792
  847TIP3    H124032   3.224   0.937  10.434 -0.8952  0.2739 -0.5254
  847TIP3    H224033   3.080   0.925  10.479  0.4061 -0.6569  3.5281
  848TIP3   OH224034   4.465   4.114  13.608  0.0541 -0.3052  0.4593
  848TIP3    H124035   4.460   4.210  13.616 -1.1662 -0.2325 -0.9388
  848TIP3    H224036   4.382   4.090  13.566  1.0278 -1.8178 -0.6176
  849TIP3   OH224037   1.409   5.996   4.378  0.6239 -0.5753 -0.4177
  849TIP3    H124038   1.448   6.034   4.299  0.8959 -1.0391 -0.5048
  849TIP3    H224039   1.318   6.026   4.376  0.9555  0.4587 -0.2453
  850TIP3   OH224040   2.936   1.478   5.543 -0.5790 -0.3293  0.0848
  850TIP3    H124041   2.851   1.506   5.578  0.0133  1.8688 -0.1188
  850TIP3    H224042   2.986   1.560   5.533  1.6861 -1.6086  0.5158
  851TIP3   OH224043   3.410   1.578  11.724 -0.6517  0.7429 -0.3022
  851TIP3    H124044   3.381   1.583  11.815 -1.5522  1.2090 -0.6082
  851TIP3    H224045   3.452   1.662  11.708  3.2926 -0.8558  0.9144
  852TIP3   OH224046   2.745   1.170   5.543  0.3432 -0.7089 -0.0411
  852TIP3    H124047   2.694   1.205   5.470  0.3392 -1.5434 -0.4375
  852TIP3    H224048   2.830   1.148   5.506  0.5221 -0.6309  0.3170
  853TIP3   OH224049   3.790   5.073  13.529 -0.6862 -0.3256 -0.0970
  853TIP3    H124050   3.728   5.132  13.488 -0.3426  0.0880 -0.0295
  853TIP3    H224051   3.769   5.076  13.622  0.4050  0.9896  0.1188
  854TIP3   OH224052   4.331   4.389  13.901  0.2788  0.1245 -0.4212
  854TIP3    H124053   4.283   4.345  13.831 -1.3594  0.0411  0.7073
  854TIP3    H224054   4.304   4.480  13.894  1.2313  0.3791 -0.7934
  855TIP3   OH224055   5.113   4.901   1.733 -0.2671 -0.8267 -0.2069
  855TIP3    H124056   5.132   4.807   1.740 -1.0605 -1.0112 -0.4318
  855TIP3    H224057   5.046   4.916   1.800 -1.7068 -0.8636 -1.6168
  856TIP3   OH224058   2.580   3.368  12.880 -0.1536 -0.1732  0.1128
  856TIP3    H124059   2.560   3.331  12.794 -0.0482 -2.8799  1.2079
  856TIP3    H224060   2.603   3.459  12.862 -1.7742 -0.2354 -2.5179
  857TIP3   OH224061   2.372   3.783   2.231  0.0775  0.4258 -0.6030
  857TIP3    H124062   2.465   3.769   2.250 -0.5151 -0.0319  2.1685
  857TIP3    H224063   2.347   3.857   2.286 -2.0006 -1.6226  1.2785
  858TIP3   OH224064   3.494   4.698  12.657  0.0457 -0.0476  0.0367
  858TIP3    H124065   3.440   4.777  12.661  0.7418  0.4490 -0.2144
  858TIP3    H224066   3.583   4.731  12.643  0.0868 -0.9560 -1.9230
  859TIP3   OH224067   4.212   0.603  11.464  0.5710  0.2653 -0.1484
  859TIP3    H124068   4.257   0.663  11.406 -0.2782  1.9067  0.8331
  859TIP3    H224069   4.239   0.629  11.552 -0.2759 -0.3957  0.3255
  860TIP3   OH224070   4.922   0.671   6.515 -0.1452 -0.5082  0.3853
  860TIP3    H124071   4.848   0.728   6.532 -0.0368 -0.8641  2.1316
  860TIP3    H224072   4.896   0.585   6.548  0.2815 -1.1327 -0.8248
  861TIP3   OH224073   5.208   4.561  11.358 -0.1067  0.0603 -0.2221
  861TIP3    H124074   5.142   4.622  11.324 -0.1107 -0.4232 -1.1041
  861TIP3    H224075   5.204   4.572  11.453 -1.5175 -0.0197 -0.2598
  862TIP3   OH224076   2.282   5.782  13.136  0.0101  0.0620  0.3520
  862TIP3    H124077   2.344   5.839  13.090 -0.4071 -0.5908 -1.0559
  862TIP3    H224078   2.296   5.801  13.228  0.5982  1.7071 -0.0497
  863TIP3   OH224079   4.068   5.446  17.275  0.1924 -0.4310 -0.4157
  863TIP3    H124080   4.000   5.435  17.208  1.7254 -0.5872 -1.9945
  863TIP3    H224081   4.092   5.539  17.271 -0.7810 -0.1156  0.9907
  864TIP3   OH224082   3.622   6.361  12.013 -0.6519  0.2680  0.2969
  864TIP3    H124083   3.577   6.311  11.945  0.7006 -0.0430 -0.3952
  864TIP3    H224084   3.566   6.352  12.090 -1.6467 -0.2981 -0.4722
  865TIP3   OH224085   0.147   1.933   2.225  0.6764  0.0427  0.1504
  865TIP3    H124086   0.239   1.962   2.222 -0.0878  2.4941 -0.5688
  865TIP3    H224087   0.098   2.007   2.190 -1.6424 -1.0771  0.9945
  866TIP3   OH224088   2.829   1.283   6.237  0.0024 -0.2268  0.4938
  866TIP3    H124089   2.758   1.300   6.298 -0.1984 -1.2268  0.5374
  866TIP3    H224090   2.907   1.278   6.292  0.2409  1.6220  0.3728
  867TIP3   OH224091   3.541   4.342   1.011 -0.1557  0.2998  0.4838
  867TIP3    H124092   3.617   4.311   1.061 -1.4806 -1.1284  1.6377
  867TIP3    H224093   3.477   4.271   1.017 -1.1244  0.9676 -1.5278
  868TIP3   OH224094   1.878   2.944  11.192 -0.2531  0.1359  0.1711
  868TIP3    H124095   1.843   2.898  11.268  0.1251 -2.1333 -0.9998
  868TIP3    H224096   1.819   2.920  11.120  0.6172  0.5623 -0.6999
  869TIP3   OH224097   3.748   6.793  12.925  0.6045  0.2289 -0.1482
  869TIP3    H124098   3.783   6.750  13.003 -1.0901 -0.0673  0.4886
  869TIP3    H224099   3.666   6.746  12.907  0.7042  0.6621 -1.7778
  870TIP3   OH224100   4.915   3.159   0.331 -0.2197  0.4907 -0.6934
  870TIP3    H124101   4.961   3.216   0.269  0.1906 -0.8287 -1.6444
  870TIP3    H224102   4.882   3.087   0.276 -1.7901  0.4514  0.2794
  871TIP3   OH224103   6.565   0.123  16.074  0.5668 -0.3255 -0.2747
  871TIP3    H124104   6.654   0.095  16.096  1.8022  2.4301 -1.4525
  871TIP3    H224105   6.575   0.215  16.047 -2.7855  0.3249  0.4875
  872TIP3   OH224106   5.857   2.977   3.494 -0.0683  0.1432 -0.4432
  872TIP3    H124107   5.812   2.977   3.409  0.8376  0.2277 -0.9384
  872TIP3    H224108   5.922   2.907   3.486 -0.8834 -0.7422  0.6784
  873TIP3   OH224109   0.399   0.084  14.309 -0.4952 -0.3696 -0.0584
  873TIP3    H124110   0.484   0.114  14.342 -1.2386  0.5259  1.0991
  873TIP3    H224111   0.408  -0.011  14.300  1.2455 -0.0741 -1.8144
  874TIP3   OH224112   2.673   5.105  15.107 -0.6167  0.5615  0.3834
  874TIP3    H124113   2.755   5.104  15.057 -1.6034  1.1112 -1.2886
  874TIP3    H224114   2.613   5.052  15.055 -0.9745 -0.8725  2.2414
  875TIP3   OH224115   3.514   0.206   1.798 -0.3657 -0.1993  0.2920
  875TIP3    H124116   3.534   0.148   1.723  0.5084  0.8582 -0.3125
  875TIP3    H224117   3.423   0.233   1.784 -0.4216 -0.5443 -0.0283
  876TIP3   OH224118   2.344   5.427   0.124 -0.4750  0.0456  0.6684
  876TIP3    H124119   2.297   5.509   0.138 -0.7395  0.4324 -2.2443
  876TIP3    H224120   2.396   5.441   0.045  0.4475 -2.1673  0.8317
  877TIP3   OH224121   1.112   2.823   4.872  0.3074 -0.2769  0.7574
  877TIP3    H124122   1.149   2.795   4.956  0.5344  2.0986  1.4909
  877TIP3    H224123   1.175   2.888   4.839 -0.5672 -0.0624 -0.5054
  878TIP3   OH224124   2.752   6.147  13.611  0.3338 -0.2034 -0.3898
  878TIP3    H124125   2.658   6.133  13.626  0.2367  0.4945 -0.3450
  878TIP3    H224126   2.761   6.242  13.602  1.1504 -0.2062  0.3754
  879TIP3   OH224127   3.022   6.731   6.256  0.0331  0.1300  0.5797
  879TIP3    H124128   3.045   6.739   6.164  2.0846  0.1996  1.0708
  879TIP3    H224129   3.055   6.811   6.296  0.5007 -0.5701  1.6249
  880TIP3   OH224130   2.012   0.138  17.211  0.1568  0.0297 -0.0231
  880TIP3    H124131   2.037   0.057  17.256 -0.4351 -0.6034 -0.8142
  880TIP3    H224132   2.051   0.207  17.263 -2.1507 -0.5646  2.5985
  881TIP3   OH224133   3.135   5.301  16.243  0.2345  0.3306 -0.4393
  881TIP3    H124134   3.120   5.395  16.254 -0.9577 -0.2056  3.6198
  881TIP3    H224135   3.062   5.271  16.190 -0.4459  1.3909 -0.1155
  882TIP3   OH224136   0.763   6.564   3.988 -0.4066 -0.7653  0.1600
  882TIP3    H124137   0.738   6.486   3.938 -1.7033  0.4809 -1.1653
  882TIP3    H224138   0.835   6.603   3.938 -1.0479 -0.0542 -0.2068
  883TIP3   OH224139   5.349   4.790  13.446  0.1779  0.5744 -0.1754
  883TIP3    H124140   5.255   4.799  13.433  0.5056  0.2741 -2.8519
  883TIP3    H224141   5.359   4.709  13.496 -0.9904  0.9614  0.7210
  884TIP3   OH224142   3.620   2.283  13.207 -0.1820 -0.0993 -0.0644
  884TIP3    H124143   3.690   2.288  13.271 -0.6780  0.0904  0.4708
  884TIP3    H224144   3.541   2.309  13.255 -0.4929  0.4381 -0.8531
  885TIP3   OH224145   5.474   6.234  11.003  0.0647  0.0460 -0.2089
  885TIP3    H124146   5.520   6.315  10.982 -2.1940  1.6694  0.8925
  885TIP3    H224147   5.416   6.219  10.928  1.6271 -1.4850 -1.1627
  886TIP3   OH224148   6.562   3.738   4.343 -0.0984  0.3486  0.1635
  886TIP3    H124149   6.579   3.648   4.372  0.0526  0.7203  1.2497
  886TIP3    H224150   6.482   3.763   4.387  1.2645  1.6606  1.9583
  887TIP3   OH224151   2.220   4.436  12.571 -0.5365 -0.3035 -0.0962
  887TIP3    H124152   2.293   4.437  12.634 -1.4997 -1.9428  1.1084
  887TIP3    H224153   2.261   4.450  12.486  0.7226  2.6177  0.9445
  888TIP3   OH224154   5.187   6.760   5.472  0.2606  0.1515 -0.0892
  888TIP3    H124155   5.275   6.728   5.492 -0.1798 -0.1818  1.3749
  888TIP3    H224156   5.151   6.787   5.556 -0.8340  0.8280 -0.7540
  889TIP3   OH224157   0.659   4.147  12.321 -0.2279  0.0923 -0.6861
  889TIP3    H124158   0.632   4.239  12.316 -2.4904 -0.4920  0.1446
  889TIP3    H224159   0.651   4.124  12.413 -1.4292 -1.4449 -1.1515
  890TIP3   OH224160   3.848   0.441   3.655  0.0530 -0.1735  0.1703
  890TIP3    H124161   3.942   0.427   3.671  0.9688  2.2458 -2.5662
  890TIP3    H224162   3.832   0.532   3.682 -0.9059  0.2443 -1.7193
  891TIP3   OH224163   6.149   1.876   3.366 -0.4182  0.2288 -0.1514
  891TIP3    H124164   6.137   1.967   3.337  2.2504  1.9404  3.6469
  891TIP3    H224165   6.235   1.852   3.331 -0.8152 -0.6284 -0.5499
  892TIP3   OH224166   5.003   6.654  12.004 -0.2191  0.0147  0.1620
  892TIP3    H124167   4.955   6.583  12.047  0.4711  0.3944  1.6070
  892TIP3    H224168   5.026   6.713  12.076  1.7507  0.2167 -0.6133
  893TIP3   OH224169   3.230   3.835   2.816  0.4944  0.6520  0.3139
  893TIP3    H124170   3.139   3.806   2.823  0.7897 -0.3861 -0.0117
  893TIP3    H224171   3.242   3.854   2.723  0.8874 -0.2028  0.1779
  894TIP3   OH224172   2.000   0.500  13.902  0.6649 -0.2843  0.5276
  894TIP3    H124173   1.913   0.527  13.930 -0.1919 -1.7034 -0.6636
  894TIP3    H224174   1.986   0.416  13.857  2.0645  1.4188 -3.2845
  895TIP3   OH224175   5.940   1.091   2.554  0.3344  0.5837  0.1617
  895TIP3    H124176   5.988   1.014   2.524  0.2850  0.2353  0.9807
  895TIP3    H224177   5.966   1.102   2.645 -0.6872  0.7479  0.4351
  896TIP3   OH224178   1.006   0.062   6.456  0.0537  0.7713  0.5094
  896TIP3    H124179   1.012   0.001   6.529  1.7832  1.5243  1.0187
  896TIP3    H224180   1.012   0.007   6.378  0.1342  0.1487  0.9517
  897TIP3   OH224181   3.570   5.227   6.587 -0.4010  0.2770 -0.1570
  897TIP3    H124182   3.567   5.221   6.492  0.3690  0.0912 -0.1671
  897TIP3    H224183   3.654   5.268   6.606  0.6700 -2.1616  0.5707
  898TIP3   OH224184   0.524   6.706   0.508 -0.2091  0.1756  0.2324
  898TIP3    H124185   0.523   6.790   0.554  0.3311  0.5815 -0.4776
  898TIP3    H224186   0.599   6.713   0.448 -0.4690 -0.6180 -0.1883
  899TIP3   OH224187   1.644   2.289  15.544  0.7539  0.2458 -0.1087
  899TIP3    H124188   1.649   2.235  15.623  0.1845  1.2965  0.6556
  899TIP3    H224189   1.597   2.235  15.481 -0.2400  0.0322  0.8109
  900TIP3   OH224190   0.281   5.494  16.173  0.3289  0.0913 -0.0446
  900TIP3    H124191   0.210   5.435  16.200 -0.4145  0.7464 -0.5451
  900TIP3    H224192   0.356   5.468  16.227 -0.2768 -0.6392  0.4556
  901TIP3   OH224193   3.190   1.582  12.287 -0.3706  0.6309 -0.2577
  901TIP3    H124194   3.125   1.594  12.218 -2.0492  0.0796  1.2073
  901TIP3    H224195   3.140   1.555  12.364  1.8064 -2.1913  0.2695
  902TIP3   OH224196   0.480   4.756  17.134 -0.2716  0.0534 -0.6250
  902TIP3    H124197   0.423   4.679  17.141  0.6362 -0.5922 -0.3172
  902TIP3    H224198   0.444   4.819  17.198 -1.2176  0.0214 -1.1196
  903TIP3   OH224199   2.643   4.515  14.612  0.2284 -0.1484  0.0820
  903TIP3    H124200   2.693   4.575  14.555  2.6391 -2.0471  0.1017
  903TIP3    H224201   2.602   4.453  14.551  2.6131 -2.0353  0.3123
  904TIP3   OH224202   1.024   1.981  13.300  0.6192 -0.1490  0.0151
  904TIP3    H124203   1.029   1.937  13.216 -0.1193 -1.5515  0.6891
  904TIP3    H224204   1.064   2.067  13.285  2.1038 -1.0411 -1.3078
  905TIP3   OH224205   4.585   1.855  14.980  0.2239  0.1589 -0.1285
  905TIP3    H124206   4.507   1.911  14.985  0.9066  1.1136 -0.1156
  905TIP3    H224207   4.641   1.898  14.916  0.9495 -0.2729  0.2138
  906TIP3   OH224208   1.487   4.792  16.287 -0.3687 -0.1739 -0.5307
  906TIP3    H124209   1.415   4.810  16.228  0.5222 -2.2027 -2.3255
  906TIP3    H224210   1.456   4.720  16.342 -0.6286  0.6811  0.4659
  907TIP3   OH224211   5.195   1.592   0.583  0.1949 -0.0368 -0.1681
  907TIP3    H124212   5.122   1.641   0.546  0.5371 -0.3442 -1.2841
  907TIP3    H224213   5.155   1.529   0.642 -0.3583  0.5241  0.0623
  908TIP3   OH224214   5.235   6.043   5.695  0.1654 -0.3257  0.5119
  908TIP3    H124215   5.161   6.075   5.644  1.1100 -0.7335 -1.1582
  908TIP3    H224216   5.262   6.119   5.746  0.7320  0.8602 -1.4597
  909TIP3   OH224217   2.557   5.290   1.588  0.0212  0.1427 -0.1292
  909TIP3    H124218   2.501   5.274   1.664 -1.7534  0.5160 -1.3008
  909TIP3    H224219   2.601   5.373   1.608 -1.7832  1.1693 -0.2239
  910TIP3   OH224220   3.007   1.378  13.071 -0.2842 -0.2988  0.4588
  910TIP3    H124221   2.922   1.392  13.030 -0.3434  0.6335  0.8966
  910TIP3    H224222   2.986   1.353  13.161 -0.1418 -1.9002  0.0697
  911TIP3   OH224223   2.552   5.248  17.012  0.0538  0.0994 -0.1296
  911TIP3    H124224   2.482   5.242  17.077 -0.1520  0.5034 -0.3116
  911TIP3    H224225   2.632   5.242  17.063 -0.1005  0.9642  0.2269
  912TIP3   OH224226   5.156   6.112  14.996  0.1628 -0.2257  0.3781
  912TIP3    H124227   5.187   6.111  14.905 -0.5110 -1.3665  0.1563
  912TIP3    H224228   5.076   6.164  14.993  1.3196  1.6722  0.7424
  913TIP3   OH224229   4.664   3.306  15.393 -0.3519  0.5264  0.0961
  913TIP3    H124230   4.653   3.219  15.354  1.1078  0.2187  0.3557
  913TIP3    H224231   4.656   3.366  15.319  0.2109  0.0755 -0.3345
  914TIP3   OH224232   0.959   0.089  10.828  0.2842  0.1056 -0.1440
  914TIP3    H124233   1.050   0.058  10.829  0.3983  0.2348 -2.8031
  914TIP3    H224234   0.942   0.112  10.736 -2.4513  0.0345  0.2866
  915TIP3   OH224235   2.357   3.222   3.843  0.3620  0.2319 -0.5173
  915TIP3    H124236   2.348   3.180   3.758  1.5759 -1.0576 -0.0270
  915TIP3    H224237   2.349   3.151   3.907  1.8452  0.8004  0.3346
  916TIP3   OH224238   0.651   3.511  11.448 -0.6407 -0.2205 -0.4585
  916TIP3    H124239   0.645   3.535  11.541  1.6176  1.0080 -0.5981
  916TIP3    H224240   0.667   3.417  11.449  1.4769  0.1260  0.4894
  917TIP3   OH224241   2.403   3.469   0.224  0.4576 -0.5125 -0.8829
  917TIP3    H124242   2.476   3.531   0.214  0.3901 -0.2290  0.3058
  917TIP3    H224243   2.428   3.416   0.300 -0.8906  0.0244 -0.0549
  918TIP3   OH224244   6.257   0.880   5.944  0.1313 -0.1175 -0.2615
  918TIP3    H124245   6.306   0.915   5.870 -0.0805 -0.9110 -0.7826
  918TIP3    H224246   6.254   0.952   6.007  0.3101  0.5637 -1.0244
  919TIP3   OH224247   6.316   2.430   3.706  0.4998 -0.6233  0.0791
  919TIP3    H124248   6.313   2.437   3.801 -0.6065 -3.1925  0.2588
  919TIP3    H224249   6.233   2.389   3.682  0.0720  1.4340 -2.1666
  920TIP3   OH224250   3.363   2.717  15.841  0.1214  0.1491 -0.2702
  920TIP3    H124251   3.294   2.770  15.800 -0.6040  0.7139  1.6279
  920TIP3    H224252   3.321   2.633  15.857  0.5171 -0.1911 -1.0231
  921TIP3   OH224253   2.080   1.101  14.540  0.0619  1.1714  0.2412
  921TIP3    H124254   2.086   1.079  14.633  0.2854  1.1375  0.2179
  921TIP3    H224255   2.089   1.017  14.495 -1.1115  1.0384  0.2212
  922TIP3   OH224256   0.047   4.346   2.738 -0.0100  0.3398  0.5465
  922TIP3    H124257   0.063   4.379   2.827  0.6044  0.4904  0.3806
  922TIP3    H224258   0.124   4.293   2.718 -0.5561 -0.4198  0.4398
  923TIP3   OH224259   5.003   3.322   0.129  0.0749  0.4392  0.2742
  923TIP3    H124260   5.091   3.352   0.107 -0.0420  0.6550  0.1052
  923TIP3    H224261   4.946   3.395   0.106 -0.3033 -0.2326 -0.9481
  924TIP3   OH224262   2.288   4.694  16.744  0.4014  0.2321  0.1625
  924TIP3    H124263   2.215   4.632  16.742 -1.8312  2.7941 -0.0939
  924TIP3    H224264   2.335   4.672  16.824 -1.1279 -0.9087  0.7888
  925TIP3   OH224265   6.162   1.322  14.918 -0.3770 -0.7705  0.2523
  925TIP3    H124266   6.165   1.332  15.013  0.3537  1.5829  0.0218
  925TIP3    H224267   6.105   1.393  14.888 -1.5772 -2.2261 -0.9875
  926TIP3   OH224268   4.103   1.117   1.931 -0.5448  0.0779  0.0299
  926TIP3    H124269   4.021   1.155   1.961 -1.2974  0.6158 -2.5404
  926TIP3    H224270   4.084   1.088   1.841  1.3085 -2.2338  0.3191
  927TIP3   OH224271   1.402   4.485  16.317 -0.0091 -0.0323  0.0665
  927TIP3    H124272   1.415   4.392  16.334 -2.4107 -0.5572 -0.7479
  927TIP3    H224273   1.339   4.513  16.384 -0.8140  0.5406 -0.9282
  928TIP3   OH224274   4.711   1.758   0.269 -0.2778  0.0078 -0.2423
  928TIP3    H124275   4.675   1.836   0.311  3.7455  1.5745  0.5614
  928TIP3    H224276   4.702   1.689   0.335 -1.5179  0.3881  0.0079
  929TIP3   OH224277   5.422   6.118  13.342 -0.1891  0.8634  0.2553
  929TIP3    H124278   5.421   6.095  13.249  0.2833 -1.4210  0.7779
  929TIP3    H224279   5.336   6.091  13.374  0.3175 -0.0390  0.8578
  930TIP3   OH224280   2.603   2.699  16.273  0.4683  0.3119  0.7613
  930TIP3    H124281   2.568   2.675  16.358 -1.8188  0.7855 -0.0176
  930TIP3    H224282   2.571   2.631  16.214  0.6822  0.8628 -0.0022
  931TIP3   OH224283   4.439   4.831   6.032  0.4518  0.2829  0.1964
  931TIP3    H124284   4.485   4.912   6.055 -0.6069  0.9777 -0.0954
  931TIP3    H224285   4.363   4.860   5.982 -1.3093 -0.7205  2.2356
  932TIP3   OH224286   1.958   6.629   5.502  0.2798  0.0142 -0.1535
  932TIP3    H124287   1.990   6.714   5.531  1.5320 -0.2250 -0.7954
  932TIP3    H224288   1.945   6.640   5.407 -1.7355  0.1594  0.1144
  933TIP3   OH224289   1.297   5.207  11.386 -0.1092  0.2566  0.6501
  933TIP3    H124290   1.304   5.237  11.295 -0.6595 -0.3495  0.4016
  933TIP3    H224291   1.306   5.111  11.380  1.2275  0.3277  1.3836
  934TIP3   OH224292   2.092   6.284  14.829 -0.3308 -0.8080 -0.1935
  934TIP3    H124293   2.074   6.250  14.917  0.2212 -1.2689 -0.2568
  934TIP3    H224294   2.150   6.218  14.789  1.2148  0.4798 -0.1179
  935TIP3   OH224295   0.826   2.215  12.366  0.1107 -0.3498 -0.5739
  935TIP3    H124296   0.862   2.275  12.301  0.6236  0.6997  0.6648
  935TIP3    H224297   0.899   2.159  12.391  0.5169  0.7685  0.7975
  936TIP3   OH224298   4.498   0.465  14.739  0.4943 -0.9018 -0.4469
  936TIP3    H124299   4.538   0.379  14.724  1.4171 -0.2791 -1.5422
  936TIP3    H224300   4.568   0.528  14.723 -0.8858  0.1958 -2.3017
  937TIP3   OH224301   4.951   3.592  16.082 -0.3723 -0.7045  0.3600
  937TIP3    H124302   4.931   3.633  15.997 -1.3199  0.6052  1.1980
  937TIP3    H224303   4.893   3.515  16.084 -2.0243  0.5232  0.7791
  938TIP3   OH224304   2.950   2.176   3.204 -0.5640  0.2021 -0.5911
  938TIP3    H124305   2.923   2.093   3.243 -0.6235 -0.0731 -1.2064
  938TIP3    H224306   2.962   2.156   3.111 -1.2318  1.0355 -0.8630
  939TIP3   OH224307   3.716   6.499  16.583  0.2917 -0.4107  0.4097
  939TIP3    H124308   3.684   6.547  16.659 -0.4564 -1.7997  0.9874
  939TIP3    H224309   3.769   6.563  16.535  1.3410  0.3050  2.4428
  940TIP3   OH224310   5.716   5.305  15.581  0.0027 -0.4057 -0.4382
  940TIP3    H124311   5.662   5.377  15.615  0.1487 -1.4268  2.0387
  940TIP3    H224312   5.775   5.348  15.520  0.0102  1.6086  0.9122
  941TIP3   OH224313   1.611   2.438  11.905 -0.1346 -0.3328  0.1241
  941TIP3    H124314   1.613   2.441  12.001 -0.7269  1.4649  0.1105
  941TIP3    H224315   1.677   2.502  11.878 -0.3855 -0.4011 -0.6521
  942TIP3   OH224316   2.399   1.979   4.359 -0.1951 -0.5116  0.0444
  942TIP3    H124317   2.412   1.979   4.453 -0.8090  0.7703  0.1399
  942TIP3    H224318   2.485   2.003   4.323 -0.3576  0.6113  0.3627
  943TIP3   OH224319   2.547   4.202  13.960 -0.4528  0.0063  0.1023
  943TIP3    H124320   2.512   4.114  13.949 -0.4590 -0.1311  1.1692
  943TIP3    H224321   2.509   4.233  14.042  1.0471  0.2524  0.7349
  944TIP3   OH224322   5.266   0.854  13.660  0.2874  0.1189 -0.0463
  944TIP3    H124323   5.231   0.934  13.699  3.4176  1.4426  0.1908
  944TIP3    H224324   5.196   0.790  13.671 -1.6900  2.3832  1.1867
  945TIP3   OH224325   5.731   3.617   4.250  0.5275 -0.4283  0.2562
  945TIP3    H124326   5.687   3.576   4.324  2.0605  0.2427  1.5731
  945TIP3    H224327   5.819   3.580   4.250  0.6841 -0.0795 -0.9513
  946TIP3   OH224328   2.798   4.614  13.731  0.3670  0.3719  0.3415
  946TIP3    H124329   2.733   4.684  13.722 -2.5651 -2.3561 -0.6005
  946TIP3    H224330   2.769   4.564  13.807  0.1582 -2.0370 -1.2545
  947TIP3   OH224331   5.931   2.440  11.699  0.4734 -0.3300 -0.2480
  947TIP3    H124332   5.872   2.489  11.642 -0.4539 -0.3068  0.7278
  947TIP3    H224333   5.874   2.398  11.763  1.5337 -0.1325  0.8465
  948TIP3   OH224334   2.319   2.710  14.355 -0.3847  0.3881  0.3125
  948TIP3    H124335   2.349   2.772  14.288 -0.6728  0.6798  0.4510
  948TIP3    H224336   2.232   2.742  14.379  0.8960  2.0248  2.9726
  949TIP3   OH224337   1.945   5.501  14.666  0.0887 -0.0722 -0.3260
  949TIP3    H124338   1.926   5.408  14.675 -2.4027  0.3157 -1.2393
  949TIP3    H224339   1.865   5.545  14.695  0.0301  1.6759 -2.9389
  950TIP3   OH224340   2.297   1.215  11.259 -0.1529 -0.3032  0.0228
  950TIP3    H124341   2.248   1.247  11.335 -1.1087 -0.4712 -0.5252
  950TIP3    H224342   2.231   1.175  11.203  0.3318  1.1266 -1.6046
  951TIP3   OH224343   3.423   1.967  17.275 -0.5562  0.2264  0.4901
  951TIP3    H124344   3.475   2.010  17.343 -1.7613  0.9254  0.9954
  951TIP3    H224345   3.336   1.958  17.314 -0.4183 -2.4385  0.2831
  952TIP3   OH224346   5.222   2.285   0.368  0.1407 -0.1911 -0.1390
  952TIP3    H124347   5.283   2.212   0.377 -0.3405 -0.7434 -1.2524
  952TIP3    H224348   5.274   2.356   0.330  0.5617 -0.0168  0.7631
  953TIP3   OH224349   0.173   0.065  15.975 -0.3491  0.7592 -0.2677
  953TIP3    H124350   0.099   0.079  16.034 -1.1092  0.6579 -1.1891
  953TIP3    H224351   0.142   0.001  15.912  0.8285  0.0538 -0.1454
  954TIP3   OH224352   6.166   3.099   2.994  0.1823  0.3654  0.0534
  954TIP3    H124353   6.076   3.131   3.002 -0.3248 -0.5380 -1.7581
  954TIP3    H224354   6.200   3.143   2.916  1.4914  1.0768  0.9998
  955TIP3   OH224355   0.872   1.232   1.849  0.3682  0.1837 -0.1084
  955TIP3    H124356   0.817   1.292   1.899  1.2826 -1.0421  2.4751
  955TIP3    H224357   0.811   1.172   1.807 -0.3582 -0.2077  1.4833
  956TIP3   OH224358   1.311   0.075   5.631  0.5960  0.6397  0.0782
  956TIP3    H124359   1.320   0.165   5.598 -0.1264  1.5837  2.3726
  956TIP3    H224360   1.225   0.047   5.600  0.7732  0.7773 -0.5508
  957TIP3   OH224361   4.694   4.340  11.121 -0.2046  0.5705 -0.0851
  957TIP3    H124362   4.666   4.394  11.047 -2.7432  0.1223  0.5039
  957TIP3    H224363   4.679   4.250  11.093  0.7057  0.3092  0.2424
  958TIP3   OH224364   1.560   1.719   1.144  0.0452 -0.5331 -0.4687
  958TIP3    H124365   1.499   1.695   1.074 -0.2669  1.2666 -0.8486
  958TIP3    H224366   1.595   1.636   1.175  0.5113 -1.3760 -3.0711
  959TIP3   OH224367   5.653   2.393   2.461  0.2114  0.4956  0.2354
  959TIP3    H124368   5.644   2.350   2.375 -0.5378 -0.2118  0.6545
  959TIP3    H224369   5.693   2.326   2.517  0.0627  0.7223  0.6139
  960TIP3   OH224370   3.711   0.612   3.974 -0.8796  0.3792  0.2645
  960TIP3    H124371   3.754   0.654   3.899  0.7576 -0.7304  0.5567
  960TIP3    H224372   3.618   0.636   3.965 -0.7102  0.2704 -2.1020
  961TIP3   OH224373   3.089   5.296   3.510 -0.3495 -0.0605  0.0119
  961TIP3    H124374   3.045   5.372   3.473  0.1484 -0.2666 -1.0106
  961TIP3    H224375   3.165   5.282   3.454 -0.1188 -0.9618  0.5355
  962TIP3   OH224376   3.997   6.777  15.171 -0.3494  0.1982  0.4064
  962TIP3    H124377   3.986   6.802  15.079 -0.3802  1.1114  0.6576
  962TIP3    H224378   3.997   6.860  15.219 -2.7849 -0.4097  1.5134
  963TIP3   OH224379   3.745   1.263   0.749  0.6951  0.1416 -0.6600
  963TIP3    H124380   3.817   1.201   0.737  0.2752 -0.0647 -2.2294
  963TIP3    H224381   3.698   1.261   0.665  0.4106  2.2422 -0.5656
  964TIP3   OH224382   2.483   0.008   3.209 -0.2610 -0.7250 -0.3187
  964TIP3    H124383   2.393  -0.000   3.239 -0.1178 -0.6175  0.1444
  964TIP3    H224384   2.534   0.022   3.289  0.0056  0.5303 -0.6856
  965TIP3   OH224385   1.381   5.327  15.036 -0.1989 -0.5064  0.5962
  965TIP3    H124386   1.305   5.305  14.982  1.0422 -0.0357 -1.4015
  965TIP3    H224387   1.426   5.396  14.988  0.9940 -0.1071  2.2200
  966TIP3   OH224388   0.606   6.333   2.504  0.4586 -0.2455 -0.8149
  966TIP3    H124389   0.699   6.345   2.524  0.6338  0.4008 -1.9506
  966TIP3    H224390   0.575   6.421   2.481 -0.0865 -0.6911 -1.8301
  967TIP3   OH224391   0.679   4.358  16.895  0.3688  0.3009 -0.2298
  967TIP3    H124392   0.619   4.426  16.865  0.6868  0.6070 -0.1675
  967TIP3    H224393   0.713   4.319  16.815 -1.6216 -1.3917 -0.2964
  968TIP3   OH224394   6.309   6.437   3.074 -0.4990 -0.4569  0.0823
  968TIP3    H124395   6.237   6.391   3.031 -0.5395 -1.0001  0.7097
  968TIP3    H224396   6.382   6.431   3.012 -1.4571  1.5061 -1.2325
  969TIP3   OH224397   6.075   4.388   3.953  0.5801  0.4264  0.8072
  969TIP3    H124398   5.998   4.386   3.896  1.4230  1.6873 -0.3996
  969TIP3    H224399   6.048   4.443   4.027  0.0079  0.0639  0.8788
  970TIP3   OH224400   0.693   0.527  16.886  0.1916  0.1228  0.1174
  970TIP3    H124401   0.649   0.505  16.804  0.2784  0.3103  0.0193
  970TIP3    H224402   0.786   0.527  16.863  0.2122  0.2290  0.2003
  971TIP3   OH224403   5.467   5.686  10.711 -0.0120 -0.6404 -0.6797
  971TIP3    H124404   5.534   5.682  10.643  4.2891 -0.6905  3.2330
  971TIP3    H224405   5.451   5.594  10.735 -2.4130 -0.6977 -2.3449
  972TIP3   OH224406   4.671   3.878  13.368 -0.3370  0.0740 -0.0147
  972TIP3    H124407   4.610   3.818  13.410  3.3290 -4.0924 -0.2446
  972TIP3    H224408   4.709   3.929  13.439  0.2249 -1.5232  0.8471
  973TIP3   OH224409   3.458   4.872   3.028  0.5378 -0.0800 -0.0939
  973TIP3    H124410   3.543   4.835   3.052  0.8302  0.5329 -0.1716
  973TIP3    H224411   3.401   4.796   3.015  1.1484 -0.5022 -0.3100
  974TIP3   OH224412   6.162   3.906  12.476 -0.5201 -0.3191 -0.1361
  974TIP3    H124413   6.083   3.879  12.430 -0.5232  0.1315 -0.4010
  974TIP3    H224414   6.141   3.992  12.512 -0.5539 -0.7097  0.7995
  975TIP3   OH224415   4.933   2.211  10.923 -0.5738  0.0798  0.8468
  975TIP3    H124416   4.904   2.290  10.878 -0.4031 -1.0844 -1.3701
  975TIP3    H224417   4.892   2.139  10.875  0.0614 -1.2366  2.2222
  976TIP3   OH224418   2.628   1.311  14.784  0.0022  0.1960  0.3350
  976TIP3    H124419   2.621   1.315  14.880 -2.2804 -2.5146  0.3353
  976TIP3    H224420   2.689   1.239  14.767  2.1827  2.1272 -0.2646
  977TIP3   OH224421   5.988   4.887  14.950 -0.1901  0.2490  0.8972
  977TIP3    H124422   5.940   4.853  15.026  0.2956 -3.3420 -0.3017
  977TIP3    H224423   6.080   4.869  14.970 -0.1689 -2.4271 -1.2208
  978TIP3   OH224424   6.582   2.275   1.897 -0.0334 -0.0501  0.0181
  978TIP3    H124425   6.627   2.195   1.925  0.3533  0.1914  0.0861
  978TIP3    H224426   6.651   2.340   1.888 -0.5473  0.7605  1.7128
  979TIP3   OH224427   1.993   3.180   4.294  0.2386  0.3686  0.7372
  979TIP3    H124428   1.932   3.106   4.293  0.0382  0.4893  2.9068
  979TIP3    H224429   1.950   3.247   4.239 -0.7458 -0.1938  0.8176
  980TIP3   OH224430   6.437   2.413  12.577  0.0033 -0.3379  0.7903
  980TIP3    H124431   6.475   2.491  12.619 -0.5383  0.1464  0.3763
  980TIP3    H224432   6.430   2.350  12.649 -0.2353  0.2364  1.2821
  981TIP3   OH224433   3.012   6.174  13.386 -0.4663 -0.0717 -0.4118
  981TIP3    H124434   2.976   6.111  13.449  0.6254  0.5765  0.8967
  981TIP3    H224435   3.029   6.122  13.307  1.8785 -1.7769  1.1593
  982TIP3   OH224436   4.929   4.888  12.423  0.4548  0.1717 -0.1632
  982TIP3    H124437   4.999   4.934  12.377  0.0310  0.7363 -0.2523
  982TIP3    H224438   4.963   4.873  12.511  1.1851 -0.7208 -0.5942
  983TIP3   OH224439   4.789   5.045   3.869 -0.6687  0.0608  0.5790
  983TIP3    H124440   4.804   5.109   3.799 -0.1628  1.4966  1.9653
  983TIP3    H224441   4.775   4.962   3.824 -0.5643  1.0120 -1.2271
  984TIP3   OH224442   6.336   5.749  12.139 -0.5486 -0.0184 -0.2714
  984TIP3    H124443   6.350   5.797  12.220  0.3830 -1.1703  0.2698
  984TIP3    H224444   6.398   5.788  12.077  0.3515 -0.6436  0.2257
  985TIP3   OH224445   4.525   2.037   3.248  0.2046  0.4064  0.0954
  985TIP3    H124446   4.591   2.018   3.182 -0.6964  0.3144 -0.7901
  985TIP3    H224447   4.497   2.127   3.230 -0.1060  0.3530  0.2941
  986TIP3   OH224448   1.138   3.116  16.598 -0.3857 -0.3719 -0.0006
  986TIP3    H124449   1.214   3.141  16.651 -0.3369  2.4240 -1.2897
  986TIP3    H224450   1.172   3.054  16.534  0.2509 -1.1868  1.1139
  987TIP3   OH224451   1.048   0.904  11.498  0.0009 -0.7102 -0.2647
  987TIP3    H124452   1.117   0.838  11.505 -0.6790 -1.3181  0.9941
  987TIP3    H224453   1.095   0.986  11.484  0.9796 -1.1298  0.4932
  988TIP3   OH224454   2.110   5.144   3.596  0.6440 -0.7065  0.0384
  988TIP3    H124455   2.195   5.167   3.632  1.2597 -0.8781 -1.2731
  988TIP3    H224456   2.091   5.213   3.532 -0.1663 -0.6988  0.2905
  989TIP3   OH224457   3.053   4.000   6.309 -0.1444 -1.0197  0.3729
  989TIP3    H124458   3.128   3.942   6.325  0.0031 -0.8012  0.4821
  989TIP3    H224459   3.077   4.083   6.352 -0.6678 -1.1101  0.8550
  990TIP3   OH224460   4.963   6.355  14.568 -0.0551  0.6816  0.5530
  990TIP3    H124461   4.942   6.288  14.503 -0.8613  1.0123  0.4636
  990TIP3    H224462   5.056   6.371  14.558 -0.1782  0.7371 -0.5340
  991TIP3   OH224463   2.151   3.255  10.883 -0.3075  0.0456  0.8245
  991TIP3    H124464   2.171   3.246  10.790  0.3728  2.2465  0.7307
  991TIP3    H224465   2.147   3.165  10.916 -1.8147 -0.8191 -1.5839
  992TIP3   OH224466   2.427   5.973  13.856  0.0079  0.1863  0.2681
  992TIP3    H124467   2.458   5.894  13.811 -0.2221  0.5823 -0.5977
  992TIP3    H224468   2.336   5.982  13.828 -0.2363  0.2728  1.0638
  993TIP3   OH224469   1.086   3.952   4.675 -0.2399  0.2083 -0.3175
  993TIP3    H124470   1.144   3.889   4.718 -1.1824 -0.5626 -0.1279
  993TIP3    H224471   1.144   4.017   4.636  0.6887  0.1019  0.8736
  994TIP3   OH224472   0.591   0.150   0.563  0.0500 -0.7941  0.3774
  994TIP3    H124473   0.536   0.221   0.594 -0.7330 -1.6071  0.8882
  994TIP3    H224474   0.612   0.173   0.472  0.6795  0.5971  0.8777
  995TIP3   OH224475   2.503   2.931   2.281  0.5332  0.1260 -0.3072
  995TIP3    H124476   2.416   2.892   2.291  1.2396 -1.7945 -1.2440
  995TIP3    H224477   2.548   2.908   2.363  1.0551 -1.3767 -0.9927
  996TIP3   OH224478   6.062   2.341  13.549 -0.4290 -0.0476 -0.1510
  996TIP3    H124479   6.026   2.267  13.597  0.8771  0.4265  1.6296
  996TIP3    H224480   6.151   2.351  13.584 -0.1862  1.6384 -1.1799
  997TIP3   OH224481   4.537   4.848  12.433 -0.0213 -0.6411  0.2067
  997TIP3    H124482   4.530   4.927  12.487 -1.0732 -0.4984 -0.1320
  997TIP3    H224483   4.505   4.777  12.490  2.2914 -1.0717  1.0187
  998TIP3   OH224484   1.360   5.513  17.211  0.0612 -0.1395 -0.6531
  998TIP3    H124485   1.367   5.539  17.119 -0.7722 -1.3022 -1.0541
  998TIP3    H224486   1.360   5.418  17.210 -1.0187 -0.1756  0.4601
  999TIP3   OH224487   5.158   5.856  13.166  0.4874  0.2174 -0.4334
  999TIP3    H124488   5.196   5.941  13.144  0.0726  0.2590 -0.9873
  999TIP3    H224489   5.229   5.809  13.211  1.0651  0.4560 -1.0878
 1000TIP3   OH224490   6.143   6.705  17.114 -0.0727 -0.1401 -0.2519
 1000TIP3    H124491   6.149   6.801  17.118  1.6171 -0.2424 -0.2893
 1000TIP3    H224492   6.128   6.686  17.021 -1.7313  0.1476 -0.0588
 1001TIP3   OH224493   5.649   5.502   0.795  0.2408  0.9749  0.6837
 1001TIP3    H124494   5.625   5.429   0.737 -2.4254  1.4614  1.0879
 1001TIP3    H224495   5.640   5.465   0.883 -2.4032  2.0858  0.9337
 1002TIP3   OH224496   5.333   6.084   4.670  0.1018  0.4902  0.1452
 1002TIP3    H124497   5.267   6.070   4.602 -0.4569  1.5308  0.4587
 1002TIP3    H224498   5.376   6.165   4.645  2.2191 -0.8798 -0.7936
 1003TIP3   OH224499   2.137   4.092  11.992  0.1805 -0.3460 -0.1644
 1003TIP3    H124500   2.166   4.003  11.974  0.3709 -0.2868 -0.1528
 1003TIP3    H224501   2.117   4.092  12.086 -0.7640 -0.6397 -0.3629
 1004TIP3   OH224502   3.828   5.906  10.628  0.0351  0.8957 -0.1172
 1004TIP3    H124503   3.798   5.982  10.578  0.0763  0.0645 -1.4432
 1004TIP3    H224504   3.755   5.844  10.624 -0.0846  0.9525  1.1481
 1005TIP3   OH224505   0.253   3.509   4.108  0.6286 -0.2476 -0.6254
 1005TIP3    H124506   0.235   3.415   4.108 -1.5133  0.1263  0.5452
 1005TIP3    H224507   0.268   3.531   4.200 -1.4865  0.9806 -0.5391
 1006TIP3   OH224508   3.525   0.396   0.151  0.2990 -0.0963 -0.2893
 1006TIP3    H124509   3.508   0.361   0.063 -1.0966 -1.6885  0.5837
 1006TIP3    H224510   3.612   0.364   0.173 -0.5920 -2.3135  0.1228
 1007TIP3   OH224511   1.310   5.171  16.489  0.4964 -0.0287  0.7111
 1007TIP3    H124512   1.268   5.160  16.574  0.9423  0.8034  1.0505
 1007TIP3    H224513   1.404   5.171  16.508  0.6389 -1.2298  0.0405
 1008TIP3   OH224514   4.956   3.315   4.664  0.5027  0.0009  0.5766
 1008TIP3    H124515   4.884   3.255   4.680  0.1288  0.8320  2.1169
 1008TIP3    H224516   4.922   3.378   4.601  0.0392  0.1173  0.9446
 1009TIP3   OH224517   2.279   4.330  16.095 -0.4342 -0.1373  0.1796
 1009TIP3    H124518   2.284   4.422  16.119  0.1360 -0.2343  0.4377
 1009TIP3    H224519   2.187   4.316  16.072 -0.9811 -0.0054  2.1864
 1010TIP3   OH224520   1.765   2.375  15.228  0.4545  0.0289  0.2730
 1010TIP3    H124521   1.722   2.360  15.144  0.9314 -1.6241  0.3057
 1010TIP3    H224522   1.716   2.448  15.267 -0.8042 -0.2535 -0.7253
 1011TIP3   OH224523   4.114   1.856  13.907  0.0847  0.0513 -0.0182
 1011TIP3    H124524   4.208   1.868  13.896  0.8725 -2.4172  3.1560
 1011TIP3    H224525   4.102   1.844  14.001 -3.2805 -0.6920 -0.4607
 1012TIP3   OH224526   6.477   1.814  16.661 -0.0297 -0.1924  0.0080
 1012TIP3    H124527   6.402   1.758  16.640  0.7232 -1.7037  1.2061
 1012TIP3    H224528   6.548   1.753  16.679  0.9982  1.1717  0.6972
 1013TIP3   OH224529   0.647   6.514  17.222  0.4912 -0.6279 -0.5270
 1013TIP3    H124530   0.600   6.514  17.306  0.8829  0.8320 -0.3075
 1013TIP3    H224531   0.580   6.538  17.158 -0.0196 -2.6036 -0.7773
 1014TIP3   OH224532   5.065   0.302  17.287 -0.0642  0.0888 -0.3300
 1014TIP3    H124533   5.039   0.220  17.244 -1.8148  0.7526 -0.5951
 1014TIP3    H224534   5.066   0.280  17.380  1.3652 -0.7310 -0.5327
 1015TIP3   OH224535   3.344   0.056   5.827 -0.2190  0.3250  0.4314
 1015TIP3    H124536   3.339  -0.039   5.829  3.0037  0.1191  1.1240
 1015TIP3    H224537   3.368   0.081   5.916 -1.0958  1.7965  0.2681
 1016TIP3   OH224538   1.730   0.719   3.008  0.2762 -0.4584  0.1850
 1016TIP3    H124539   1.678   0.720   2.927  0.7608  1.4499 -0.1271
 1016TIP3    H224540   1.667   0.703   3.077 -0.5712  0.8027 -0.2921
 1017TIP3   OH224541   6.564   6.216   0.740  0.0570 -0.2626 -0.4627
 1017TIP3    H124542   6.614   6.157   0.683  0.5463  1.6863 -2.1240
 1017TIP3    H224543   6.628   6.250   0.802  0.4192  0.7709 -1.3857
 1018TIP3   OH224544   0.641   5.165   4.310  0.3291 -0.1627  0.0906
 1018TIP3    H124545   0.680   5.089   4.268  0.2765 -0.3999  0.4667
 1018TIP3    H224546   0.559   5.179   4.261  0.5168 -0.1244 -0.2128
 1019TIP3   OH224547   4.766   2.732   3.150 -0.5307 -0.4958 -0.6166
 1019TIP3    H124548   4.778   2.640   3.173 -0.3462 -0.2508  0.3020
 1019TIP3    H224549   4.698   2.732   3.083 -0.5208 -1.2970 -0.6303
 1020TIP3   OH224550   4.804   3.110  13.448 -0.2183  0.1813  0.5983
 1020TIP3    H124551   4.882   3.103  13.503  0.1647  0.8678  0.1559
 1020TIP3    H224552   4.740   3.052  13.490  0.6429 -0.6782  0.7653
 1021TIP3   OH224553   1.328   1.235  16.728  0.1371 -0.4297  0.2633
 1021TIP3    H124554   1.399   1.195  16.678 -0.4492 -2.2923  0.9096
 1021TIP3    H224555   1.372   1.302  16.781  1.0834 -0.0188 -0.9877
 1022TIP3   OH224556   6.535   4.279   2.052  0.3176 -0.6246 -0.2042
 1022TIP3    H124557   6.442   4.299   2.061  0.6517  1.3470 -0.8754
 1022TIP3    H224558   6.567   4.275   2.142 -0.0406  0.5863 -0.0153
 1023TIP3   OH224559   1.391   3.862  15.614  0.0295 -0.5573 -0.0661
 1023TIP3    H124560   1.445   3.914  15.674 -0.3118 -0.1616 -0.0960
 1023TIP3    H224561   1.439   3.862  15.532 -0.9666  1.4624 -0.6639
 1024TIP3   OH224562   5.813   0.485  14.369 -0.1034 -0.1439 -0.7728
 1024TIP3    H124563   5.829   0.548  14.299  0.3196 -0.5301 -1.0234
 1024TIP3    H224564   5.718   0.475  14.371 -0.0916 -0.4999 -1.6176
 1025TIP3   OH224565   1.048   4.802   3.699 -0.3457  0.2655  0.3520
 1025TIP3    H124566   1.062   4.896   3.691  0.1697  0.0200 -1.9414
 1025TIP3    H224567   1.122   4.771   3.751  1.0290  0.7498 -1.2670
 1026TIP3   OH224568   2.990   0.680  16.214  0.6079  0.0786 -0.6676
 1026TIP3    H124569   2.945   0.602  16.246  0.4849  0.1616 -0.6362
 1026TIP3    H224570   3.082   0.668  16.239  0.4778  0.2334 -0.1185
 1027TIP3   OH224571   4.307   2.048  17.073 -0.8194 -0.0813  0.6955
 1027TIP3    H124572   4.354   2.044  17.156  2.0460 -0.2240 -0.8847
 1027TIP3    H224573   4.269   1.961  17.062 -1.1871 -0.0638  1.8301
 1028TIP3   OH224574   3.194   5.465  15.882 -0.0961  0.4503  0.0258
 1028TIP3    H124575   3.261   5.410  15.843  0.1623  0.8393 -0.0840
 1028TIP3    H224576   3.126   5.404  15.910  1.5796 -0.2818  2.7491
 1029TIP3   OH224577   2.450   2.973   1.538  0.2921 -0.5251  0.3516
 1029TIP3    H124578   2.427   3.011   1.454 -0.9791 -2.9178 -0.4501
 1029TIP3    H224579   2.390   3.013   1.601  0.1640  0.0622 -0.1488
 1030TIP3   OH224580   5.915   2.787   5.534  0.4325 -0.0696 -0.0232
 1030TIP3    H124581   5.965   2.728   5.590 -1.2015 -1.2842  0.1708
 1030TIP3    H224582   5.832   2.798   5.579  0.1780  1.2379 -0.7890
 1031TIP3   OH224583   3.498   5.793   0.925  0.0076  0.3301  0.8400
 1031TIP3    H124584   3.511   5.699   0.936 -0.0336  0.3444  1.0040
 1031TIP3    H224585   3.448   5.820   1.001  0.9222  0.6794  1.3231
 1032TIP3   OH224586   2.983   3.147   5.393 -0.3334  0.7161 -0.1753
 1032TIP3    H124587   3.051   3.183   5.335  0.5352  0.8654  0.9095
 1032TIP3    H224588   2.940   3.080   5.341 -0.6271  1.9488 -1.5368
 1033TIP3   OH224589   1.520   2.260   2.580 -0.0074 -0.4461  0.0386
 1033TIP3    H124590   1.510   2.250   2.485  0.1402  1.1779 -0.1630
 1033TIP3    H224591   1.435   2.235   2.616  0.0595 -1.4519 -0.4846
 1034TIP3   OH224592   3.678   2.911  14.783  0.2133 -0.0731 -0.0345
 1034TIP3    H124593   3.683   2.987  14.725 -0.9950  0.0191 -0.0328
 1034TIP3    H224594   3.595   2.922  14.830  0.6141 -0.7641  0.8448
 1035TIP3   OH224595   3.275   6.000  12.506 -0.1690  0.6206 -0.3844
 1035TIP3    H124596   3.185   5.974  12.490 -0.5795 -0.1639  2.7842
 1035TIP3    H224597   3.327   5.923  12.485 -0.4278  0.4128 -0.2570
 1036TIP3   OH224598   0.242   2.380   3.932  0.2372  0.0005  0.8294
 1036TIP3    H124599   0.149   2.375   3.909  0.6752  0.3288 -1.1622
 1036TIP3    H224600   0.247   2.445   4.001 -0.8910  0.8293  0.1468
 1037TIP3   OH224601   1.555   5.376  11.624  0.0354  0.3541  0.1493
 1037TIP3    H124602   1.590   5.290  11.602 -2.7681 -0.4077 -1.6311
 1037TIP3    H224603   1.506   5.363  11.705 -3.2719 -0.6026 -1.9021
 1038TIP3   OH224604   4.383   6.048  10.883 -0.1719  0.4618 -0.1742
 1038TIP3    H124605   4.372   6.129  10.833  0.5376  1.2863  0.9852
 1038TIP3    H224606   4.316   6.052  10.951  1.2221  1.0834  1.1782
 1039TIP3   OH224607   1.913   1.730  12.609  0.1098  0.0221  0.1696
 1039TIP3    H124608   1.927   1.668  12.681  1.4924 -0.1435 -0.2272
 1039TIP3    H224609   1.979   1.798  12.623 -0.4248  0.6342 -0.2523
 1040TIP3   OH224610   4.323   5.955   2.766  0.2719  0.1472  0.3705
 1040TIP3    H124611   4.395   5.894   2.779  0.5052  0.1074 -0.9974
 1040TIP3    H224612   4.361   6.041   2.785  1.0751  0.2665 -1.5917
 1041TIP3   OH224613   6.358   4.817  11.414  0.1300 -0.9085 -0.0721
 1041TIP3    H124614   6.392   4.736  11.376  0.0833  0.1855 -2.5557
 1041TIP3    H224615   6.427   4.881  11.398 -0.6439 -0.0130  0.1609
 1042TIP3   OH224616   4.598   0.871  14.961 -0.2711  0.0971 -0.1181
 1042TIP3    H124617   4.506   0.865  14.934  0.0840 -1.3039 -1.0645
 1042TIP3    H224618   4.636   0.935  14.901 -0.6534  0.8008  0.3781
 1043TIP3   OH224619   1.541   5.349  15.357  0.1805  0.2467 -0.3689
 1043TIP3    H124620   1.498   5.421  15.310 -0.9273 -0.2519 -0.1414
 1043TIP3    H224621   1.634   5.368  15.350 -0.1452  2.6631  1.1865
 1044TIP3   OH224622   4.571   3.017  11.068 -0.0680 -0.3777 -0.8037
 1044TIP3    H124623   4.578   2.972  11.152 -1.0453 -2.1669 -1.6468
 1044TIP3    H224624   4.477   3.036  11.058  0.0464 -0.1396 -1.4718
 1045TIP3   OH224625   2.481   1.707   3.149  0.3436 -0.7344 -0.0790
 1045TIP3    H124626   2.481   1.656   3.068  1.2976 -0.1638 -0.4422
 1045TIP3    H224627   2.457   1.644   3.217 -0.2032 -1.2775 -0.7602
 1046TIP3   OH224628   4.777   4.429  14.515 -0.7045  0.0748  0.3223
 1046TIP3    H124629   4.728   4.426  14.433  1.2520 -1.2068 -0.8408
 1046TIP3    H224630   4.856   4.376  14.498  0.6319  1.3206  2.4094
 1047TIP3   OH224631   3.934   6.681  16.499  0.0215  0.4328 -0.0542
 1047TIP3    H124632   4.011   6.628  16.476 -1.2178 -1.2539 -0.4372
 1047TIP3    H224633   3.929   6.747  16.430  0.7405  0.1382 -0.4046
 1048TIP3   OH224634   3.496   5.384  14.442  0.3927  0.3059 -0.3316
 1048TIP3    H124635   3.549   5.462  14.457  1.4700 -0.0414 -2.1881
 1048TIP3    H224636   3.437   5.408  14.370 -0.1734 -0.1705 -0.0386
 1049TIP3   OH224637   5.398   1.792  15.085 -0.4468 -0.2475 -0.2645
 1049TIP3    H124638   5.480   1.746  15.069 -0.6222 -0.8524  0.5473
 1049TIP3    H224639   5.423   1.866  15.142 -0.4107 -0.2194 -0.3169
 1050TIP3   OH224640   3.061   1.717  15.574  0.2155 -0.7052  0.1084
 1050TIP3    H124641   2.980   1.721  15.523  0.4113 -1.2329 -0.2541
 1050TIP3    H224642   3.075   1.623  15.588 -0.0484 -0.5519  1.4854
 1051TIP3   OH224643   0.506   1.168  14.279 -0.7143  0.4153  0.3510
 1051TIP3    H124644   0.570   1.210  14.336  0.1980 -0.6163  0.1169
 1051TIP3    H224645   0.428   1.222  14.285 -0.7313  0.1544  2.8318
 1052TIP3   OH224646   5.169   6.647  16.955  0.0679  0.1616  0.3785
 1052TIP3    H124647   5.146   6.587  17.026 -0.4093  0.2715  0.3196
 1052TIP3    H224648   5.262   6.662  16.965  0.0977 -0.2272  0.6761
 1053TIP3   OH224649   0.033   3.185   4.858 -0.2375 -0.1117  0.2204
 1053TIP3    H124650  -0.005   3.142   4.782 -1.8785  2.5399 -0.5380
 1053TIP3    H224651   0.074   3.264   4.823  0.7861  0.1102  1.8455
 1054TIP3   OH224652   3.398   5.040   3.672  0.8840  0.5070 -0.2105
 1054TIP3    H124653   3.394   5.056   3.578  0.2732 -1.0160 -0.4538
 1054TIP3    H224654   3.436   4.953   3.681 -0.2856  0.0881  0.8902
 1055TIP3   OH224655   6.425   3.967   1.701  0.2051 -0.5454 -0.2594
 1055TIP3    H124656   6.344   3.923   1.675 -1.1076  1.6541 -0.1002
 1055TIP3    H224657   6.491   3.932   1.642 -1.1069 -1.5296 -1.1859
 1056TIP3   OH224658   0.642   2.699   5.057 -0.0121 -0.4625 -0.2008
 1056TIP3    H124659   0.727   2.663   5.081 -0.1435 -0.8794 -0.3527
 1056TIP3    H224660   0.663   2.778   5.007  0.3133 -1.0220 -0.9740
 1057TIP3   OH224661   4.580   2.728   4.535 -0.1868 -0.1183  0.1363
 1057TIP3    H124662   4.494   2.687   4.540 -0.7866  0.6645 -2.7287
 1057TIP3    H224663   4.624   2.683   4.462  0.7672  1.3387 -0.2087
 1058TIP3   OH224664   4.019   0.326  14.851 -0.2333  0.2901  0.7632
 1058TIP3    H124665   4.011   0.288  14.763  1.1132  1.5108  0.1000
 1058TIP3    H224666   3.943   0.384  14.858 -1.3707 -1.2222  1.1360
 1059TIP3   OH224667   2.143   3.336  16.811  0.6182 -0.6142 -0.1139
 1059TIP3    H124668   2.231   3.314  16.782  1.3339 -0.3626  1.7804
 1059TIP3    H224669   2.091   3.339  16.731  2.8460  1.6829 -1.5624
 1060TIP3   OH224670   3.629   0.253  16.059 -0.1133  0.2901  0.3149
 1060TIP3    H124671   3.543   0.221  16.085 -0.6513  0.3113 -1.3378
 1060TIP3    H224672   3.659   0.306  16.133 -0.5468 -1.5169  1.8099
 1061TIP3   OH224673   3.002   1.800  14.230 -1.1143  0.5183 -0.1932
 1061TIP3    H124674   3.033   1.870  14.172 -1.4292 -2.3311 -4.0335
 1061TIP3    H224675   3.081   1.766  14.271 -0.8192  2.2069  0.6922
 1062TIP3   OH224676   1.586   0.378   0.574  0.2674  0.1314  0.1657
 1062TIP3    H124677   1.673   0.416   0.589  0.4125 -0.3359  0.5174
 1062TIP3    H224678   1.562   0.340   0.658  0.0500 -0.4040 -0.1346
 1063TIP3   OH224679   3.112   1.010  12.669 -0.3512  0.2371  0.0355
 1063TIP3    H124680   3.072   1.097  12.662 -0.7892 -0.1776 -3.4099
 1063TIP3    H224681   3.185   1.012  12.607  1.0277 -1.1260  1.5839
 1064TIP3   OH224682   6.541   0.178  15.685  0.2254 -0.3469  0.1649
 1064TIP3    H124683   6.453   0.159  15.718  0.4933 -0.9897  0.5395
 1064TIP3    H224684   6.563   0.102  15.632  0.7685 -0.4495  0.5262
 1065TIP3   OH224685   3.468   3.125  12.881  0.0520  0.3128  0.3100
 1065TIP3    H124686   3.383   3.144  12.919  0.4787  0.3108  1.2715
 1065TIP3    H224687   3.458   3.149  12.788 -1.3281 -0.7883  0.1591
 1066TIP3   OH224688   2.699   3.937  12.268  0.5883  0.2513 -0.0726
 1066TIP3    H124689   2.776   3.883  12.287  0.7152  1.1308  2.0808
 1066TIP3    H224690   2.636   3.913  12.336 -0.5400  0.5448 -0.9931
 1067TIP3   OH224691   2.292   4.237   1.790 -0.2426  0.5478 -0.4699
 1067TIP3    H124692   2.302   4.150   1.751  0.8428  0.7915 -0.7466
 1067TIP3    H224693   2.265   4.293   1.717  0.7922  0.7956 -0.6726
 1068TIP3   OH224694   4.972   2.775  14.046 -0.3156 -0.2288  0.2038
 1068TIP3    H124695   4.988   2.682  14.028 -0.7962 -0.0422 -1.3320
 1068TIP3    H224696   5.049   2.819  14.011 -0.1922 -0.0325  0.7268
 1069TIP3   OH224697   1.255   3.318  16.111 -0.6221 -0.5325  0.0200
 1069TIP3    H124698   1.270   3.392  16.170  0.1134 -0.5443 -0.1593
 1069TIP3    H224699   1.176   3.276  16.146 -0.3381 -0.3888  0.8434
 1070TIP3   OH224700   0.342   1.877   3.615  0.1638  0.3061  0.2772
 1070TIP3    H124701   0.360   1.831   3.533  1.4683 -1.7699  1.6889
 1070TIP3    H224702   0.248   1.864   3.631 -0.2944  1.4899 -1.3076
 1071TIP3   OH224703   2.583   4.418   0.497  0.3893  0.0270 -0.1026
 1071TIP3    H124704   2.597   4.435   0.404  0.0373  3.9919  0.4675
 1071TIP3    H224705   2.666   4.442   0.538  0.0965 -0.3815  0.7261
 1072TIP3   OH224706   5.254   2.000   4.956 -0.2063  0.2727  0.2804
 1072TIP3    H124707   5.214   2.008   5.042  0.9983 -0.4335  0.9245
 1072TIP3    H224708   5.223   1.915   4.923  0.3523 -0.0475  0.5703
 1073TIP3   OH224709   0.932   2.618   6.052  0.4597 -0.1772 -0.0233
 1073TIP3    H124710   0.982   2.537   6.046  1.2483  0.0625  2.6316
 1073TIP3    H224711   0.889   2.613   6.137  1.4496  2.6884  0.7042
 1074TIP3   OH224712   4.292   4.364   4.258 -0.5021  0.6120 -0.1475
 1074TIP3    H124713   4.343   4.315   4.193 -2.0283 -1.0874 -0.1331
 1074TIP3    H224714   4.201   4.355   4.228 -1.3389 -1.0507  2.7176
 1075TIP3   OH224715   5.624   0.200  10.855  0.0782 -0.7023 -0.4634
 1075TIP3    H124716   5.709   0.156  10.864  0.3066 -0.0544  0.6577
 1075TIP3    H224717   5.611   0.243  10.940 -1.5510 -1.1191 -0.4958
 1076TIP3   OH224718   4.786   3.006  12.478  0.0433 -0.0179 -0.0952
 1076TIP3    H124719   4.749   2.934  12.529  1.0028 -0.0360  0.5907
 1076TIP3    H224720   4.777   2.978  12.387  0.5917 -1.1032  0.1722
 1077TIP3   OH224721   1.553   5.114  12.794  0.0937 -0.3865 -0.6941
 1077TIP3    H124722   1.568   5.095  12.887  3.5191 -0.1482 -1.1574
 1077TIP3    H224723   1.483   5.179  12.795  1.6967  1.3926  1.8437
 1078TIP3   OH224724   0.281   1.824  11.175 -0.2599  0.0903 -0.4703
 1078TIP3    H124725   0.254   1.755  11.114 -2.5560 -0.5362  1.1457
 1078TIP3    H224726   0.200   1.872  11.193  0.4309  0.4792  1.7636
 1079TIP3   OH224727   0.151   5.602   6.837  0.3158  0.1982  0.3666
 1079TIP3    H124728   0.203   5.677   6.809  1.9833 -0.6813  0.9594
 1079TIP3    H224729   0.065   5.638   6.857  1.1191  1.9780  0.7675
 1080TIP3   OH224730   3.385   5.661   4.993  0.2085 -0.4576  0.0176
 1080TIP3    H124731   3.475   5.651   4.963 -0.0865  0.4089 -1.1759
 1080TIP3    H224732   3.349   5.573   4.989  0.8860 -0.7459  0.1394
 1081TIP3   OH224733   4.712   0.067  11.121 -0.4990 -0.3253  0.9112
 1081TIP3    H124734   4.774   0.047  11.192  1.2680  1.2409 -0.1353
 1081TIP3    H224735   4.749   0.145  11.079 -1.3991 -1.3324 -1.8372
 1082TIP3   OH224736   5.643   1.498   2.273  0.1639  0.3038 -0.3823
 1082TIP3    H124737   5.591   1.420   2.257  2.2654 -1.3616  0.6992
 1082TIP3    H224738   5.588   1.553   2.328 -0.8673 -0.9151 -0.1769
 1083TIP3   OH224739   1.213   4.320   2.477  0.6555  0.0824 -0.1265
 1083TIP3    H124740   1.232   4.358   2.562  2.0900  0.0993 -0.4488
 1083TIP3    H224741   1.291   4.270   2.454 -0.1714 -0.9002 -0.9054
 1084TIP3   OH224742   1.263   2.076  12.117 -0.2170 -0.3197 -0.3191
 1084TIP3    H124743   1.256   1.982  12.104  0.0195 -0.6112  1.5310
 1084TIP3    H224744   1.219   2.092  12.200 -0.5096  1.2494 -0.7629
 1085TIP3   OH224745   0.229   4.988  15.755  0.1805 -0.5183  0.5669
 1085TIP3    H124746   0.262   5.075  15.775 -0.0032 -0.5513  1.0136
 1085TIP3    H224747   0.308   4.934  15.745  0.2773 -0.4249  0.8388
 1086TIP3   OH224748   3.639   1.313   4.497 -0.0121  0.2135 -0.0351
 1086TIP3    H124749   3.676   1.245   4.440  2.3598  1.3994  0.0221
 1086TIP3    H224750   3.555   1.334   4.458  0.8389 -0.1999 -2.1603
 1087TIP3   OH224751   5.320   6.025  13.694 -0.2681 -0.5641 -0.2099
 1087TIP3    H124752   5.260   6.094  13.720 -0.7821 -0.1779 -2.3440
 1087TIP3    H224753   5.385   6.069  13.639  1.2408 -1.2150  1.0075
 1088TIP3   OH224754   4.882   6.668  13.478 -0.2780 -0.4542 -0.6428
 1088TIP3    H124755   4.841   6.637  13.397 -0.7626 -1.6900  0.0575
 1088TIP3    H224756   4.833   6.746  13.501 -0.6948 -0.5818 -1.0821
 1089TIP3   OH224757   4.275   4.394   3.288  0.3713 -0.2157  0.5388
 1089TIP3    H124758   4.286   4.299   3.286  2.0980 -0.0193 -0.0371
 1089TIP3    H224759   4.189   4.408   3.327 -0.3511 -2.0459 -0.3867
 1090TIP3   OH224760   4.665   3.125  15.836 -0.5768  0.0317 -0.1182
 1090TIP3    H124761   4.738   3.179  15.807  1.7189 -2.0141  1.6318
 1090TIP3    H224762   4.589   3.159  15.788  1.0833  3.5864 -0.3940
 1091TIP3   OH224763   5.051   1.109  16.916 -0.0251  0.2650  0.1905
 1091TIP3    H124764   4.960   1.082  16.928 -0.7635  1.9064 -1.4590
 1091TIP3    H224765   5.082   1.058  16.841  0.5116 -0.5382  0.9646
 1092TIP3   OH224766   1.322   0.296  12.145 -0.3646  0.4813 -0.3140
 1092TIP3    H124767   1.262   0.365  12.116 -1.3353 -0.6173 -0.9381
 1092TIP3    H224768   1.279   0.257  12.221 -1.6591 -1.9446 -2.2310
 1093TIP3   OH224769   4.481   6.546   2.025 -0.0024 -0.0738 -0.1575
 1093TIP3    H124770   4.499   6.638   2.007 -0.4108  0.0301 -0.0311
 1093TIP3    H224771   4.421   6.547   2.099 -1.6768 -0.3681 -1.4816
 1094TIP3   OH224772   0.188   5.855   0.407  0.1856  0.0963  0.3309
 1094TIP3    H124773   0.255   5.842   0.474  0.5823  0.8063  0.0769
 1094TIP3    H224774   0.201   5.945   0.376 -0.5194  0.0516 -0.1202
 1095TIP3   OH224775   5.500   1.738  11.283  0.1737  0.4408  0.3571
 1095TIP3    H124776   5.470   1.829  11.286 -0.4128  0.2336  0.7687
 1095TIP3    H224777   5.466   1.705  11.199 -0.7943  0.1976  0.8341
 1096TIP3   OH224778   3.870   0.072  12.374  0.1097 -0.4150  0.1370
 1096TIP3    H124779   3.855   0.003  12.438 -1.3786  0.9307  1.2803
 1096TIP3    H224780   3.963   0.064  12.352  1.0186 -0.0914  3.5108
 1097TIP3   OH224781   1.076   6.786  13.136  0.2961  0.1154 -0.0118
 1097TIP3    H124782   1.136   6.834  13.192  3.1401 -1.0571 -1.9362
 1097TIP3    H224783   1.055   6.846  13.065  1.0085 -0.2292 -0.5231
 1098TIP3   OH224784   1.779   5.104   0.261 -0.5218  0.5312  0.0947
 1098TIP3    H124785   1.719   5.144   0.198 -0.2020 -2.9211 -2.5597
 1098TIP3    H224786   1.858   5.086   0.210  0.1520 -1.3355  1.7577
 1099TIP3   OH224787   6.475   3.382   0.851 -0.4852 -0.1813  0.6647
 1099TIP3    H124788   6.555   3.333   0.832  0.7015  1.7444  0.5583
 1099TIP3    H224789   6.451   3.422   0.768 -0.2122  1.1769  1.2277
 1100TIP3   OH224790   5.493   5.308  16.997 -0.1183  0.0141  0.5249
 1100TIP3    H124791   5.583   5.317  17.025  0.5297 -0.0910 -1.4187
 1100TIP3    H224792   5.445   5.377  17.043  1.4127  1.6786 -0.3544
 1101TIP3   OH224793   6.332   0.694  13.595 -0.3398 -0.6931 -0.6350
 1101TIP3    H124794   6.315   0.745  13.516  2.0214  0.6435 -0.3203
 1101TIP3    H224795   6.308   0.753  13.667 -0.8124 -1.2710 -0.3110
 1102TIP3   OH224796   5.934   6.763   3.166 -0.4317 -0.3375 -0.0226
 1102TIP3    H124797   6.022   6.726   3.169 -0.3746 -0.3595 -1.4935
 1102TIP3    H224798   5.879   6.692   3.134 -1.5650 -1.3236  3.9266
 1103TIP3   OH224799   6.642   3.225   6.101 -0.5372  0.0588 -0.1010
 1103TIP3    H124800   6.635   3.159   6.171  2.1886 -1.5107 -1.2177
 1103TIP3    H224801   6.567   3.208   6.045  0.7883 -3.0453 -1.0629
 1104TIP3   OH224802   4.925   6.544   1.669  0.0875  0.3439 -0.0653
 1104TIP3    H124803   4.867   6.584   1.734 -0.0848  0.1744 -0.1171
 1104TIP3    H224804   5.011   6.544   1.711  0.2811  1.6586 -0.4335
 1105TIP3   OH224805   2.293   6.646   3.437 -0.0488 -0.0146  0.0635
 1105TIP3    H124806   2.386   6.637   3.416  0.1106  0.6772  0.4664
 1105TIP3    H224807   2.276   6.740   3.430 -0.8974 -0.2288 -0.7462
 1106TIP3   OH224808   6.527   5.733  13.958  0.2143  0.2352  0.4455
 1106TIP3    H124809   6.597   5.695  14.011  0.5771 -0.0822 -0.2674
 1106TIP3    H224810   6.483   5.794  14.017  0.7053 -0.0186  1.0739
 1107TIP3   OH224811   2.249   2.923   1.159 -0.9119  0.1482 -0.2333
 1107TIP3    H124812   2.226   3.006   1.200 -0.8061 -1.2471  2.7967
 1107TIP3    H224813   2.345   2.920   1.163 -0.9632 -0.5605  0.6136
 1108TIP3   OH224814   3.059   2.039  14.735  0.3821  0.1502 -0.3188
 1108TIP3    H124815   3.031   1.962  14.684  0.4046 -0.3053  0.3528
 1108TIP3    H224816   2.981   2.094  14.739  0.0911 -0.2842  0.0155
 1109TIP3   OH224817   4.063   5.896   2.397  0.1464  0.7421  0.0209
 1109TIP3    H124818   4.076   5.973   2.452 -1.8123 -0.2545  1.9604
 1109TIP3    H224819   4.097   5.823   2.448 -0.9823 -0.0907 -0.3846
 1110TIP3   OH224820   4.425   5.373  11.733 -0.6722  0.6860  0.0749
 1110TIP3    H124821   4.517   5.400  11.730 -0.7718  1.1007  0.5907
 1110TIP3    H224822   4.394   5.382  11.643  0.0677 -0.4313 -0.2853
 1111TIP3   OH224823   3.075   0.799  15.640  0.2768  0.1334 -0.1276
 1111TIP3    H124824   3.052   0.892  15.647  1.8898  0.5162  0.2901
 1111TIP3    H224825   3.000   0.759  15.596  0.6922  2.1042 -2.7278
 1112TIP3   OH224826   2.833   5.430  12.161 -0.2480  0.1727 -0.0326
 1112TIP3    H124827   2.780   5.507  12.140  0.9605  0.7311 -1.0962
 1112TIP3    H224828   2.863   5.397  12.077  2.7181  1.0404  0.6157
 1113TIP3   OH224829   1.250   0.694   3.649 -0.2289  0.3737  0.3374
 1113TIP3    H124830   1.215   0.606   3.641  1.5938 -0.2417 -0.9123
 1113TIP3    H224831   1.341   0.682   3.677 -0.3023  1.8962  1.3348
 1114TIP3   OH224832   0.762   3.286  11.362 -0.0918 -0.1453 -0.4029
 1114TIP3    H124833   0.731   3.266  11.274 -0.0212  0.2616 -0.5227
 1114TIP3    H224834   0.745   3.206  11.412 -0.6760 -0.1701 -0.6388
 1115TIP3   OH224835   4.068   3.753  14.146 -0.0634 -0.2762  0.0710
 1115TIP3    H124836   4.139   3.815  14.165  0.2746 -1.5213  3.1028
 1115TIP3    H224837   4.104   3.694  14.081  1.2670 -0.1165  0.6459
 1116TIP3   OH224838   2.744   3.502   2.320  0.0393  0.2531 -0.0123
 1116TIP3    H124839   2.696   3.536   2.395  0.5706  3.1523 -0.9217
 1116TIP3    H224840   2.677   3.483   2.255 -0.0641  3.4385 -0.9473
 1117TIP3   OH224841   3.458   5.073  14.179  0.5030 -0.2644 -0.9795
 1117TIP3    H124842   3.537   5.128  14.182 -0.3814  0.9729  0.5111
 1117TIP3    H224843   3.460   5.025  14.262  0.0491 -0.7447 -1.2499
 1118TIP3   OH224844   6.007   5.538   1.152  0.4355 -0.2032  0.2642
 1118TIP3    H124845   6.093   5.501   1.131  0.1759 -1.6102  1.6192
 1118TIP3    H224846   6.018   5.574   1.240 -0.6715 -1.3590  0.8756
 1119TIP3   OH224847   0.878   1.046   5.781 -0.7217  0.6716  0.3007
 1119TIP3    H124848   0.934   1.001   5.717 -1.3012 -0.4847  0.5999
 1119TIP3    H224849   0.887   1.139   5.759 -1.0715  0.2775 -1.5978
 1120TIP3   OH224850   1.693   6.779   1.825 -0.0982 -0.0590 -0.0209
 1120TIP3    H124851   1.702   6.762   1.731  0.3018 -0.6522  0.1196
 1120TIP3    H224852   1.781   6.763   1.860  0.0840  1.4572  0.2561
 1121TIP3   OH224853   1.660   3.395   5.537  0.3398  0.4972 -0.3182
 1121TIP3    H124854   1.646   3.324   5.474  0.0089  0.7997 -0.5857
 1121TIP3    H224855   1.754   3.393   5.555  0.5354  0.8123 -1.3052
 1122TIP3   OH224856   6.816   1.439   4.776 -0.1567  0.2659 -0.1701
 1122TIP3    H124857   6.834   1.434   4.870  1.7854 -0.2525 -0.5482
 1122TIP3    H224858   6.856   1.521   4.748  1.0275 -0.5410 -0.8968
 1123TIP3   OH224859   0.305   3.316  12.502 -1.0432  0.3187  0.3449
 1123TIP3    H124860   0.210   3.301  12.508 -1.1452  0.2915 -1.0748
 1123TIP3    H224861   0.314   3.411  12.513 -1.3712  0.4935 -0.7936
 1124TIP3   OH224862   2.874   0.224   5.869 -0.7104 -0.3535 -0.2065
 1124TIP3    H124863   2.893   0.219   5.963 -2.7720  0.1335  0.2579
 1124TIP3    H224864   2.782   0.198   5.862 -1.1315  1.5186 -1.8479
 1125TIP3   OH224865   5.838   2.046   2.793 -0.3951 -0.2669 -0.0413
 1125TIP3    H124866   5.930   2.018   2.794 -0.1228  0.6300  0.9879
 1125TIP3    H224867   5.832   2.110   2.723 -0.0949  0.1163  0.2817
 1126TIP3   OH224868   5.707   4.972  10.979  0.0671 -0.4215 -0.6119
 1126TIP3    H124869   5.754   4.953  10.898 -1.4785 -1.2768 -1.3338
 1126TIP3    H224870   5.681   5.064  10.971  0.7233 -0.2405 -0.6682
 1127TIP3   OH224871   5.157   4.382   1.234 -0.3488  0.0643 -0.3129
 1127TIP3    H124872   5.195   4.462   1.272  0.0849  0.5230 -1.7120
 1127TIP3    H224873   5.199   4.373   1.149 -0.1671 -1.8537 -0.0356
 1128TIP3   OH224874   2.642   0.210   6.565 -0.4646 -0.1918 -0.4309
 1128TIP3    H124875   2.562   0.170   6.600  0.0080 -2.3016 -1.6475
 1128TIP3    H224876   2.655   0.289   6.618 -2.2095 -0.9221  1.1384
 1129TIP3   OH224877   6.261   2.209  14.878 -0.0162  0.0416  0.0006
 1129TIP3    H124878   6.285   2.302  14.880  0.5950 -0.1238  2.1456
 1129TIP3    H224879   6.307   2.174  14.801  2.1400  0.9336  0.8292
 1130TIP3   OH224880   4.237   3.418  15.201 -0.6991  0.3408 -0.4487
 1130TIP3    H124881   4.146   3.424  15.230 -1.1444 -1.8044 -1.3137
 1130TIP3    H224882   4.245   3.484  15.132 -1.8872 -0.1940 -1.1025
 1131TIP3   OH224883   4.347   4.870   0.394  0.0819 -0.0158  0.3068
 1131TIP3    H124884   4.308   4.785   0.374 -0.6672  0.5396 -0.6347
 1131TIP3    H224885   4.339   4.920   0.313 -0.9100  1.4931  1.3106
 1132TIP3   OH224886   2.639   6.439  16.369  0.4069  0.5225 -0.3664
 1132TIP3    H124887   2.571   6.390  16.322  0.2007  0.9258 -0.4949
 1132TIP3    H224888   2.594   6.516  16.403 -0.0653 -1.1673  2.9332
 1133TIP3   OH224889   2.126   3.382  14.027 -1.4967 -0.1622 -0.2479
 1133TIP3    H124890   2.166   3.457  14.072  0.6677  0.2566 -2.6846
 1133TIP3    H224891   2.055   3.420  13.975 -0.2341  0.3368 -1.6896
 1134TIP3   OH224892   0.593   4.465   4.577 -0.1234 -0.2841 -0.2713
 1134TIP3    H124893   0.550   4.528   4.635  1.5383  0.2445  0.4172
 1134TIP3    H224894   0.595   4.384   4.627  2.2821  0.4533  0.8702
 1135TIP3   OH224895   1.371   0.095   0.040 -0.0715 -0.3130  0.7813
 1135TIP3    H124896   1.303   0.151   0.077  0.5099  0.2599  0.9819
 1135TIP3    H224897   1.368   0.015   0.093 -1.4019 -0.7801  0.0142
 1136TIP3   OH224898   3.091   3.382   4.742  0.3061  0.1782 -0.7932
 1136TIP3    H124899   3.093   3.465   4.789 -0.2650 -0.5134  0.4661
 1136TIP3    H224900   3.120   3.317   4.806 -1.6766 -0.9517 -0.9959
 1137TIP3   OH224901   4.644   1.715  12.033  0.5440  0.6341  0.1913
 1137TIP3    H124902   4.674   1.769  12.106  0.1458  0.1720  0.6953
 1137TIP3    H224903   4.619   1.778  11.965  1.2920  1.0554  0.3001
 1138TIP3   OH224904   1.262   5.912  12.145  0.0077  0.1886 -0.4879
 1138TIP3    H124905   1.330   5.934  12.209 -0.7430 -1.1548  0.7987
 1138TIP3    H224906   1.246   5.994  12.098  0.8174  1.1016  0.8046
 1139TIP3   OH224907   6.784   1.723  11.192 -0.3936 -0.4182  0.2498
 1139TIP3    H124908   6.768   1.796  11.132 -0.5413 -0.3489  0.3719
 1139TIP3    H224909   6.810   1.765  11.274 -0.5540 -0.4980  0.3443
 1140TIP3   OH224910   3.658   3.691   3.690 -0.4461  0.0509  0.0018
 1140TIP3    H124911   3.697   3.629   3.628  1.2973  2.2331 -1.1309
 1140TIP3    H224912   3.724   3.700   3.758 -1.4578 -0.6713  1.1060
 1141TIP3   OH224913   4.816   3.712   5.299  0.8678  0.0401 -0.0672
 1141TIP3    H124914   4.762   3.635   5.284  1.7959 -0.5475 -0.4166
 1141TIP3    H224915   4.905   3.678   5.308  1.2865  1.0693 -0.2437
 1142TIP3   OH224916   3.971   4.701   5.880  0.3769 -0.1248 -0.6507
 1142TIP3    H124917   3.909   4.738   5.817 -1.2798 -0.9628  0.4381
 1142TIP3    H224918   3.916   4.669   5.952  2.2526  1.8730  1.7951
 1143TIP3   OH224919   1.431   3.857  11.503  0.0287  0.2413 -0.1683
 1143TIP3    H124920   1.434   3.953  11.496  0.0308  0.3091  0.7307
 1143TIP3    H224921   1.444   3.826  11.413  0.9968  1.0635 -0.3246
 1144TIP3   OH224922   6.682   4.253   2.298 -0.2258  0.3338  0.1086
 1144TIP3    H124923   6.684   4.237   2.392 -0.6846  0.0477  0.0700
 1144TIP3    H224924   6.699   4.167   2.259 -0.8114  0.3035 -0.0811
 1145TIP3   OH224925   1.727   2.661  12.232 -0.0801 -0.3995  0.2035
 1145TIP3    H124926   1.740   2.582  12.180 -1.6527  0.6245 -1.8431
 1145TIP3    H224927   1.669   2.634  12.303 -1.2206 -0.9512 -0.9151
 1146TIP3   OH224928   6.494   5.983  12.840 -0.1584  0.4531 -0.1348
 1146TIP3    H124929   6.510   5.968  12.933 -0.8402  1.5923  0.1838
 1146TIP3    H224930   6.566   5.938  12.795  0.7537  0.7561  0.9894
 1147TIP3   OH224931   1.366   5.117   4.727  0.0009  0.4377 -0.3145
 1147TIP3    H124932   1.278   5.097   4.695  0.2050 -0.3169 -0.4054
 1147TIP3    H224933   1.353   5.152   4.815 -0.3530 -0.1355 -0.1408
 1148TIP3   OH224934   6.425   2.272  16.736  0.0866 -0.4039  0.2238
 1148TIP3    H124935   6.337   2.263  16.772  0.9056 -0.8677  2.1797
 1148TIP3    H224936   6.428   2.209  16.663 -1.6337  0.6364 -0.7695
 1149TIP3   OH224937   6.329   5.778   1.932  0.7001  0.1696 -0.6817
 1149TIP3    H124938   6.321   5.833   1.853  0.5765 -0.6038 -1.2168
 1149TIP3    H224939   6.413   5.732   1.920  0.7288  0.1303 -0.3127
 1150TIP3   OH224940   6.212   4.685   5.353  0.9387 -0.3950  0.2090
 1150TIP3    H124941   6.148   4.637   5.300 -1.0444  0.1856  1.9631
 1150TIP3    H224942   6.225   4.630   5.430  0.0477  0.9616  1.3666
 1151TIP3   OH224943   3.387   0.343   1.559 -0.0937  0.5950 -0.2105
 1151TIP3    H124944   3.397   0.368   1.467 -1.2258  0.4367 -0.3839
 1151TIP3    H224945   3.395   0.425   1.608  1.5928  0.5339 -0.3540
 1152TIP3   OH224946   0.259   2.900   1.495 -0.1816  0.2001  0.1207
 1152TIP3    H124947   0.288   2.948   1.418 -1.2018 -0.3046 -0.5910
 1152TIP3    H224948   0.320   2.925   1.564  0.9726  0.3625 -0.9473
 1153TIP3   OH224949   2.526   4.941  10.608 -0.6749 -0.2849 -0.2214
 1153TIP3    H124950   2.610   4.897  10.593 -0.6573 -0.3771  0.1593
 1153TIP3    H224951   2.465   4.870  10.626 -0.7116 -0.1712  0.0948
 1154TIP3   OH224952   1.036   2.496  11.620 -0.4655  0.7506  0.0894
 1154TIP3    H124953   1.033   2.430  11.552  0.7868  1.8407 -1.0521
 1154TIP3    H224954   0.953   2.543  11.613 -0.9279 -0.0435  0.2486
 1155TIP3   OH224955   6.370   6.726   6.263 -0.4323 -0.0984  0.1306
 1155TIP3    H124956   6.410   6.783   6.330 -2.4477  1.8424 -0.2685
 1155TIP3    H224957   6.416   6.749   6.182 -1.6996  1.4806 -0.1583
 1156TIP3   OH224958   6.767   0.243  11.921 -0.7161  0.1796 -0.3141
 1156TIP3    H124959   6.720   0.283  11.994 -0.6405 -1.2830  0.5543
 1156TIP3    H224960   6.845   0.205  11.960 -0.4418 -0.2224 -1.2280
 1157TIP3   OH224961   6.513   0.601  14.489 -0.1057  0.3782  0.3150
 1157TIP3    H124962   6.451   0.528  14.496  0.6862 -0.5614 -1.9565
 1157TIP3    H224963   6.539   0.601  14.397  0.8836  2.7488  0.5717
 1158TIP3   OH224964   5.159   6.156   2.851 -0.4315  0.2780  0.0531
 1158TIP3    H124965   5.100   6.082   2.839 -0.2872  0.3854 -1.4754
 1158TIP3    H224966   5.110   6.231   2.818 -0.1146  0.6701  0.4638
 1159TIP3   OH224967   6.631   3.403   6.316  0.0788 -0.2656  0.3569
 1159TIP3    H124968   6.657   3.354   6.238 -1.0391 -1.5728  0.7957
 1159TIP3    H224969   6.647   3.343   6.389 -1.2278  0.0352  0.9069
 1160TIP3   OH224970   1.380   2.086   5.911 -0.5310  0.4803  0.2567
 1160TIP3    H124971   1.455   2.124   5.957 -0.5972  1.2553 -0.2530
 1160TIP3    H224972   1.303   2.122   5.956 -0.5978  0.0693  0.4742
 1161TIP3   OH224973   5.525   3.944   2.578  0.2095  0.3147  0.2403
 1161TIP3    H124974   5.445   3.996   2.573  0.1940  0.2043 -0.7907
 1161TIP3    H224975   5.595   4.009   2.585  0.0745  0.4340  0.4644
 1162TIP3   OH224976   1.883   1.421   4.813 -0.3877 -0.5215  0.4695
 1162TIP3    H124977   1.955   1.358   4.822 -0.4108 -0.5350  0.5580
 1162TIP3    H224978   1.864   1.421   4.719  0.9627  0.8621  0.1854
 1163TIP3   OH224979   3.182   6.010  13.161  0.0971  0.5152  0.2693
 1163TIP3    H124980   3.238   6.077  13.123 -0.2700  0.9940  0.5705
 1163TIP3    H224981   3.227   5.982  13.241  2.2458 -2.4313 -1.8687
 1164TIP3   OH224982   4.876   0.680   3.084 -0.2397  0.5051 -0.1292
 1164TIP3    H124983   4.952   0.638   3.124 -0.4510  0.6285  0.4065
 1164TIP3    H224984   4.912   0.741   3.020  0.1381  1.1812  0.7241
 1165TIP3   OH224985   5.927   3.066  16.757  0.2094 -0.1144 -0.1933
 1165TIP3    H124986   5.890   2.984  16.726  0.2530 -0.0333 -0.4574
 1165TIP3    H224987   5.976   3.042  16.836 -2.3274  0.1314  1.5022
 1166TIP3   OH224988   0.518   2.534   5.461  0.2826 -0.1349  0.2471
 1166TIP3    H124989   0.520   2.445   5.428  0.3870 -0.4744  1.1405
 1166TIP3    H224990   0.471   2.584   5.395 -1.9828 -1.3356  0.9041
 1167TIP3   OH224991   0.920   2.878   0.639  0.3593  0.3892 -0.1736
 1167TIP3    H124992   0.989   2.878   0.572  0.4539 -0.2566 -0.0767
 1167TIP3    H224993   0.841   2.902   0.590  0.3306 -0.5964 -0.6260
 1168TIP3   OH224994   1.644   2.648  11.604  0.0998  0.1296  0.2353
 1168TIP3    H124995   1.633   2.708  11.531 -2.1189  0.3167  0.6866
 1168TIP3    H224996   1.634   2.561  11.565  1.8656  0.0819 -0.1625
 1169TIP3   OH224997   5.049   1.675  16.585 -0.3047 -0.2645  0.3026
 1169TIP3    H124998   4.992   1.628  16.647 -1.9287  1.1805 -0.0555
 1169TIP3    H224999   5.056   1.763  16.621 -1.1250  0.5394 -1.4486
 1170TIP3   OH225000   6.155   0.424   0.393  0.0711 -0.4433  0.4254
 1170TIP3    H125001   6.194   0.439   0.307 -1.5627 -0.4227 -0.3205
 1170TIP3    H225002   6.094   0.496   0.406  0.4523 -0.3297  1.7047
 1171TIP3   OH225003   3.253   5.033  13.766 -0.2705  0.1338 -0.2341
 1171TIP3    H125004   3.346   5.036  13.791 -0.7446  1.8443  1.4242
 1171TIP3    H225005   3.207   5.018  13.848 -1.4626 -1.2005 -1.1235
 1172TIP3   OH225006   4.811   6.759  13.877 -0.5893  0.0824 -0.3523
 1172TIP3    H125007   4.905   6.774  13.879 -0.3281 -1.5789  0.5190
 1172TIP3    H225008   4.777   6.814  13.947 -0.1917  0.2042 -0.2546
 1173TIP3   OH225009   0.008   3.576  11.800 -0.3593 -0.1436 -0.0376
 1173TIP3    H125010  -0.073   3.591  11.750 -0.1865  1.2223  0.0663
 1173TIP3    H225011   0.015   3.481  11.806 -2.7110 -0.2739  1.1746
 1174TIP3   OH225012   2.592   4.692   0.763  1.1187 -0.6473 -0.4917
 1174TIP3    H125013   2.596   4.721   0.854  1.3291 -0.9490 -0.4062
 1174TIP3    H225014   2.616   4.600   0.766 -2.1979 -1.5746 -0.4168
 1175TIP3   OH225015   5.583   0.684   5.145  0.6543  0.0313  0.3965
 1175TIP3    H125016   5.580   0.748   5.217 -0.2683 -0.0094  0.4059
 1175TIP3    H225017   5.655   0.713   5.090  1.0662  0.3435  1.0817
 1176TIP3   OH225018   6.275   0.128   4.260  0.9042 -0.0046  0.2748
 1176TIP3    H125019   6.326   0.187   4.315 -0.8107  1.6652  0.1496
 1176TIP3    H225020   6.336   0.060   4.233  2.8546  1.5496  0.6912
 1177TIP3   OH225021   3.646   1.689  13.163 -0.4329 -0.0823  0.0751
 1177TIP3    H125022   3.665   1.672  13.071 -2.3553 -0.5399 -0.2599
 1177TIP3    H225023   3.716   1.645  13.211  0.0387 -0.6539 -1.1287
 1178TIP3   OH225024   6.469   0.915  15.408  0.0713 -0.0089  0.0998
 1178TIP3    H125025   6.491   0.841  15.465  0.7107  0.8952  1.0511
 1178TIP3    H225026   6.533   0.983  15.431 -0.2146  0.6739 -1.0858
 1179TIP3   OH225027   0.250   1.830   4.068  0.1086  0.6854 -0.5172
 1179TIP3    H125028   0.336   1.787   4.063  0.0514  0.6700 -1.3585
 1179TIP3    H225029   0.189   1.767   4.031 -0.4542  0.2347  1.1147
 1180TIP3   OH225030   3.435   3.521   3.443 -0.4603 -0.0411  0.1549
 1180TIP3    H125031   3.404   3.435   3.470 -0.5951  0.4281  1.5386
 1180TIP3    H225032   3.380   3.583   3.492  0.6142  0.8164  0.3014
 1181TIP3   OH225033   6.003   6.007   4.460  0.1865 -0.9484  0.0839
 1181TIP3    H125034   6.092   5.978   4.441  0.2056 -1.1986  0.5368
 1181TIP3    H225035   5.954   5.990   4.379  0.4797 -1.0983 -0.0613
 1182TIP3   OH225036   4.910   0.536  14.691 -0.0663 -0.1219 -0.2512
 1182TIP3    H125037   4.820   0.568  14.688  0.2876  0.8740 -0.6886
 1182TIP3    H225038   4.964   0.616  14.686  0.8299 -0.6342  1.0956
 1183TIP3   OH225039   2.028   0.689  16.482  0.4671  0.1208 -0.4489
 1183TIP3    H125040   2.085   0.638  16.539 -0.2482  0.3367  0.4660
 1183TIP3    H225041   2.068   0.682  16.395  1.7683  0.1111  0.1487
 1184TIP3   OH225042   0.695   4.939  12.975 -0.2269 -0.0365  0.0583
 1184TIP3    H125043   0.769   4.880  12.960  0.4584  0.3493  1.7829
 1184TIP3    H225044   0.660   4.913  13.060 -1.4395  0.4757 -0.2616
 1185TIP3   OH225045   3.802   5.217   5.458 -0.0442  0.1679  0.0982
 1185TIP3    H125046   3.714   5.180   5.450  0.2182 -0.5229  0.3086
 1185TIP3    H225047   3.853   5.147   5.499  0.3870  0.8961  0.8169
 1186TIP3   OH225048   1.646   1.737   0.161  0.0222  0.0660  0.2821
 1186TIP3    H125049   1.626   1.824   0.195 -3.2309  0.1644 -1.6781
 1186TIP3    H225050   1.662   1.751   0.068 -1.5065 -1.5312 -0.2517
 1187TIP3   OH225051   3.576   0.801  15.436  0.6253  0.6609 -0.1160
 1187TIP3    H125052   3.656   0.828  15.390 -0.1389  2.9628 -0.1594
 1187TIP3    H225053   3.592   0.826  15.527  0.5797 -0.3520  0.1770
 1188TIP3   OH225054   3.820   5.390  14.339 -0.4402 -0.0129 -0.2337
 1188TIP3    H125055   3.878   5.439  14.281 -0.7297  0.4080 -0.1791
 1188TIP3    H225056   3.737   5.386  14.291  0.0376 -1.8435 -0.9263
 1189TIP3   OH225057   5.118   2.609   3.202 -0.9532 -0.0611 -0.1737
 1189TIP3    H125058   5.172   2.597   3.124 -0.9290  0.1166 -0.1844
 1189TIP3    H225059   5.037   2.561   3.183 -0.6723 -0.5933 -0.0273
 1190TIP3   OH225060   0.271   1.021   1.419  0.3378 -0.2196 -0.2955
 1190TIP3    H125061   0.321   1.073   1.482 -0.0017 -1.0997  0.7316
 1190TIP3    H225062   0.309   1.041   1.334  1.6532  0.0207  0.3439
 1191TIP3   OH225063   6.049   0.576   3.387  0.3119 -0.0998  0.8958
 1191TIP3    H125064   6.110   0.550   3.457 -1.4056  0.1628  2.5383
 1191TIP3    H225065   5.965   0.541   3.416 -0.3840 -0.1575 -1.1763
 1192TIP3   OH225066   0.984   6.483   2.676 -0.3276 -0.1285 -0.2195
 1192TIP3    H125067   1.025   6.569   2.680 -0.0220 -0.2944  0.3789
 1192TIP3    H225068   1.017   6.444   2.595  0.4358 -0.1234  0.0830
 1193TIP3   OH225069   2.149   2.172   3.095  0.0579  0.3766 -0.5848
 1193TIP3    H125070   2.209   2.097   3.088  0.4823  0.7771 -1.3174
 1193TIP3    H225071   2.120   2.188   3.005 -1.5235 -0.0996 -0.1764
 1194TIP3   OH225072   3.781   5.751  13.006 -0.5074  0.2916 -0.6455
 1194TIP3    H125073   3.696   5.751  12.962 -0.0191  0.8748 -1.6028
 1194TIP3    H225074   3.816   5.839  12.989 -0.3462  0.5507  0.9808
 1195TIP3   OH225075   4.745   3.818  12.561  0.4219  0.3286 -0.0246
 1195TIP3    H125076   4.758   3.846  12.470  1.6936  0.6889  0.2540
 1195TIP3    H225077   4.665   3.863  12.589  0.5919  1.0231 -0.6533
 1196TIP3   OH225078   4.825   1.356   2.654  0.0590  0.4775 -0.0705
 1196TIP3    H125079   4.839   1.447   2.679  1.5729  0.3961 -0.5732
 1196TIP3    H225080   4.752   1.359   2.592 -1.8157  1.0012  2.0942
 1197TIP3   OH225081   2.169   4.305   2.037 -0.2158 -0.4136 -0.1324
 1197TIP3    H125082   2.156   4.317   1.943  0.8809 -1.7281 -0.4772
 1197TIP3    H225083   2.088   4.337   2.077 -0.8528 -0.2095 -1.5463
 1198TIP3   OH225084   5.056   1.879  17.007  0.0541  0.4186  0.8879
 1198TIP3    H125085   5.114   1.898  17.081 -0.6893  0.3229  1.4978
 1198TIP3    H225086   5.000   1.808  17.037  0.5553 -0.4710 -0.2092
 1199TIP3   OH225087   1.656   4.908  16.781 -0.4477  0.2215 -0.6181
 1199TIP3    H125088   1.609   4.846  16.837 -1.5427  0.2267 -1.5130
 1199TIP3    H225089   1.749   4.896  16.803 -0.8379 -0.1264  0.8262
 1200TIP3   OH225090   1.745   0.768   1.231  0.1324  0.1121  0.2185
 1200TIP3    H125091   1.812   0.718   1.277 -1.3301 -1.2176  0.9624
 1200TIP3    H225092   1.794   0.831   1.178  1.9869 -1.2699  0.2323
 1201TIP3   OH225093   5.453   3.787  16.837 -0.2781 -0.2100  0.2499
 1201TIP3    H125094   5.358   3.797  16.837 -0.3240 -0.6065 -0.2767
 1201TIP3    H225095   5.480   3.816  16.750  0.2680  1.5990  1.0105
 1202TIP3   OH225096   5.888   6.349  11.650 -0.1016  0.2608 -0.6137
 1202TIP3    H125097   5.936   6.333  11.569 -1.2357  1.0833 -1.4616
 1202TIP3    H225098   5.831   6.423  11.630 -0.7370  0.1698  0.7909
 1203TIP3   OH225099   4.567   3.793   0.305 -0.3608 -0.4248 -0.3146
 1203TIP3    H125100   4.620   3.846   0.365 -0.0957 -2.4714  1.2750
 1203TIP3    H225101   4.629   3.768   0.236  0.2898 -1.2038  0.5338
 1204TIP3   OH225102   4.989   0.116   1.605 -0.1428  0.0186 -0.5089
 1204TIP3    H125103   4.959   0.197   1.648  1.1865  0.5379 -0.5460
 1204TIP3    H225104   5.071   0.140   1.563  0.7685 -1.5947  0.2931
 1205TIP3   OH225105   5.791   1.535   0.017 -0.1339  0.3389  0.4214
 1205TIP3    H125106   5.726   1.465   0.008  1.0214 -0.6297 -0.6265
 1205TIP3    H225107   5.834   1.517   0.100  1.0444 -0.9782 -0.4557
 1206TIP3   OH225108   4.751   2.848   3.466  0.7797 -0.5149 -0.0052
 1206TIP3    H125109   4.793   2.862   3.381  1.5891  0.3499  0.5254
 1206TIP3    H225110   4.795   2.771   3.502  1.4237 -0.0453  0.2301
 1207TIP3   OH225111   1.026   4.198   2.316  0.2370 -0.0807 -0.0277
 1207TIP3    H125112   0.953   4.194   2.377  0.5182  1.2411  0.4069
 1207TIP3    H225113   1.098   4.236   2.367  1.0150 -0.7086 -0.6496
 1208TIP3   OH225114   6.623   2.244   2.520 -0.0973  0.4384 -0.2031
 1208TIP3    H125115   6.648   2.155   2.546  0.6625  0.5443 -0.5503
 1208TIP3    H225116   6.628   2.295   2.601 -0.7184  0.1304  0.0338
 1209TIP3   OH225117   1.790   3.697  12.782 -0.0956 -0.3338  0.5348
 1209TIP3    H125118   1.871   3.717  12.829 -0.6734 -0.5926  1.6746
 1209TIP3    H225119   1.729   3.765  12.810 -0.7591 -1.1011  0.9935
 1210TIP3   OH225120   5.414   2.573  11.759 -0.7412 -0.6301  0.6332
 1210TIP3    H125121   5.384   2.589  11.670  0.4214  1.4730  0.5947
 1210TIP3    H225122   5.360   2.631  11.813  0.6415  0.3823  0.9519
 1211TIP3   OH225123   5.041   6.313  17.062 -0.1369 -0.1778 -0.0680
 1211TIP3    H125124   4.964   6.257  17.066  0.4579 -1.0886 -0.9543
 1211TIP3    H225125   5.054   6.330  16.969  1.1404 -0.6301  0.0114
 1212TIP3   OH225126   3.804   1.661   2.378 -0.4300 -0.1121 -0.3507
 1212TIP3    H125127   3.805   1.567   2.394 -1.4640 -0.3055 -1.3627
 1212TIP3    H225128   3.865   1.674   2.306  0.1607  0.0775  0.1757
 1213TIP3   OH225129   0.859   0.980  12.145  0.0189  0.1115 -0.4391
 1213TIP3    H125130   0.928   1.035  12.109 -0.0479  0.2913 -0.2958
 1213TIP3    H225131   0.875   0.893  12.108  0.7556 -0.0176  0.1580
 1214TIP3   OH225132   2.014   2.604   3.480 -0.3319  0.0486  0.0421
 1214TIP3    H125133   1.920   2.588   3.489 -0.1701 -1.1889 -0.2693
 1214TIP3    H225134   2.045   2.620   3.569 -0.2151 -3.3751  0.7164
 1215TIP3   OH225135   5.423   0.691  15.619 -0.4988  0.5061 -0.3945
 1215TIP3    H125136   5.476   0.746  15.677  0.4162  0.5322 -1.2393
 1215TIP3    H225137   5.465   0.605  15.623 -1.7274 -0.0728  0.6605
 1216TIP3   OH225138   6.303   2.976   0.222 -0.0148 -0.3676  0.0581
 1216TIP3    H125139   6.270   2.894   0.184 -2.4763 -0.6158  2.5628
 1216TIP3    H225140   6.226   3.015   0.263  1.9967  1.2004  2.4189
 1217TIP3   OH225141   0.315   0.812   3.369 -0.4384 -0.5611 -0.0728
 1217TIP3    H125142   0.400   0.841   3.400  0.1912 -0.9920 -1.3621
 1217TIP3    H225143   0.321   0.817   3.273 -1.2711 -2.2056 -0.2424
 1218TIP3   OH225144   2.099   0.969  12.270  0.3029 -0.4794 -0.4828
 1218TIP3    H125145   2.194   0.977  12.265  0.5619 -2.1738  1.1941
 1218TIP3    H225146   2.081   0.879  12.243 -0.9568  0.2063 -2.0309
 1219TIP3   OH225147   0.045   0.917   0.338 -0.1001  0.5299  0.3724
 1219TIP3    H125148   0.018   0.909   0.246 -0.5324  0.0498  0.5359
 1219TIP3    H225149   0.111   0.848   0.349  0.2965  0.9001  0.2947
 1220TIP3   OH225150   3.594   3.969   4.424 -0.1239  0.4029  0.1012
 1220TIP3    H125151   3.563   3.903   4.363 -0.6469 -0.3012  1.1116
 1220TIP3    H225152   3.521   3.983   4.484  0.3083  1.2293  0.4487
 1221TIP3   OH225153   5.252   6.562  15.217  0.1600 -0.0879 -0.0251
 1221TIP3    H125154   5.239   6.538  15.125 -0.8755 -2.9293  0.8260
 1221TIP3    H225155   5.313   6.496  15.250  0.1355  0.6288  1.4768
 1222TIP3   OH225156   5.909   3.833  13.910  0.0256 -0.2110  0.7161
 1222TIP3    H125157   5.866   3.882  13.981 -0.3523  1.2952 -0.5170
 1222TIP3    H225158   5.890   3.884  13.832  2.2382 -0.7149 -0.1817
 1223TIP3   OH225159   2.044   5.769   3.288  0.3348 -0.0755  0.2167
 1223TIP3    H125160   2.030   5.779   3.194 -1.4746 -1.1029  0.3373
 1223TIP3    H225161   2.135   5.742   3.296  0.6453  0.5112 -1.2033
 1224TIP3   OH225162   1.032   0.362  13.604  0.2189 -0.4423 -0.0904
 1224TIP3    H125163   1.068   0.425  13.541 -0.3523 -0.7432 -0.7192
 1224TIP3    H225164   0.937   0.369  13.594  0.1474 -1.2535 -0.0162
 1225TIP3   OH225165   5.563   3.338  15.665  0.0626 -0.2274  0.1472
 1225TIP3    H125166   5.577   3.337  15.759 -0.9142  0.9421  0.3031
 1225TIP3    H225167   5.474   3.305  15.653 -0.0609  0.2875 -0.3292
 1226TIP3   OH225168   2.231   4.278  11.803 -0.0435  0.4295  0.3094
 1226TIP3    H125169   2.152   4.332  11.793 -0.3938 -0.0864  0.2675
 1226TIP3    H225170   2.200   4.197  11.844  0.2056 -0.4182 -1.1571
 1227TIP3   OH225171   0.034   0.029  10.923 -0.6427  0.4452  0.3657
 1227TIP3    H125172  -0.042   0.043  10.867  0.4411  0.8543 -1.0345
 1227TIP3    H225173   0.077   0.114  10.927  1.0926 -0.3401 -0.9093
 1228TIP3   OH225174   0.378   6.290   5.631 -0.3340 -0.4296  0.1662
 1228TIP3    H125175   0.325   6.260   5.705 -0.5084 -0.4028  0.0520
 1228TIP3    H225176   0.368   6.385   5.632 -0.9398 -0.4832 -0.3444
 1229TIP3   OH225177   5.357   2.570   5.257 -0.7915  0.4341  0.4684
 1229TIP3    H125178   5.386   2.629   5.327  0.8998 -1.4556  1.4244
 1229TIP3    H225179   5.290   2.516   5.297 -0.8068  0.2788  0.2356
 1230TIP3   OH225180   3.744   5.961   2.056  0.3096  0.0250  0.2338
 1230TIP3    H125181   3.668   6.011   2.087 -1.9502 -2.6746 -0.7296
 1230TIP3    H225182   3.768   6.002   1.973  0.0145  0.9784  0.6094
 1231TIP3   OH225183   6.421   3.143   3.085 -0.2147  0.2179 -0.3802
 1231TIP3    H125184   6.331   3.147   3.053 -0.5047  1.5608  0.5392
 1231TIP3    H225185   6.416   3.090   3.165 -0.4012  1.2347  0.2959
 1232TIP3   OH225186   2.552   6.697  16.508 -0.8005  0.2086  0.1949
 1232TIP3    H125187   2.482   6.667  16.450 -0.5806 -1.6237  0.8268
 1232TIP3    H225188   2.508   6.713  16.592 -0.3290 -2.1015  0.9361
 1233TIP3   OH225189   2.741   4.214  14.573  0.5086 -0.1839 -0.0669
 1233TIP3    H125190   2.698   4.275  14.514  1.7103  0.3025 -0.4492
 1233TIP3    H225191   2.780   4.269  14.641 -1.0695 -0.7542  1.3165
 1234TIP3   OH225192   6.279   0.323   5.546 -0.2107  0.1169 -1.0400
 1234TIP3    H125193   6.244   0.410   5.564  1.2186  0.4760  0.0708
 1234TIP3    H225194   6.330   0.333   5.465 -1.4350 -0.0850 -1.8528
 1235TIP3   OH225195   2.647   1.188  17.047  0.5029  0.1529 -0.5490
 1235TIP3    H125196   2.614   1.259  17.103  0.6506  0.0431 -0.3223
 1235TIP3    H225197   2.623   1.108  17.093  1.2903  0.0752 -0.2602
 1236TIP3   OH225198   4.735   2.962  11.667 -0.0075 -0.0957  0.0682
 1236TIP3    H125199   4.830   2.977  11.671 -0.2786  1.3724  1.3059
 1236TIP3    H225200   4.702   3.037  11.618 -0.4121 -1.2138 -1.3945
 1237TIP3   OH225201   3.534   4.987  14.421  1.2274 -0.5368 -0.1589
 1237TIP3    H125202   3.583   4.918  14.378  0.9959 -1.6557  1.3425
 1237TIP3    H225203   3.597   5.029  14.480  0.8880 -0.7031  0.3267
 1238TIP3   OH225204   0.941   0.329  13.146  0.0821  0.0098  0.2794
 1238TIP3    H125205   0.885   0.392  13.192 -0.0665 -0.0495  0.1817
 1238TIP3    H225206   1.024   0.330  13.194 -0.1115 -0.1391  0.6231
 1239TIP3   OH225207   5.394   3.584   4.245 -0.6209 -0.0749  0.4590
 1239TIP3    H125208   5.383   3.560   4.337  1.2311  1.9370  1.2543
 1239TIP3    H225209   5.407   3.679   4.247  1.1478 -0.2410 -1.7129
 1240TIP3   OH225210   6.412   4.043  16.430 -0.0751  0.2494  1.3533
 1240TIP3    H125211   6.483   4.038  16.366 -1.1061 -0.4514  0.2387
 1240TIP3    H225212   6.350   4.105  16.391 -0.6555 -0.0902  1.7325
 1241TIP3   OH225213   0.369   2.939   0.878 -0.2570 -0.2560 -0.0126
 1241TIP3    H125214   0.295   2.901   0.925 -0.9044  0.9017 -0.0526
 1241TIP3    H225215   0.333   3.019   0.839  1.4021  1.1229  1.2274
 1242TIP3   OH225216   5.487   0.852  11.829 -0.4520 -0.1566 -0.0898
 1242TIP3    H125217   5.448   0.938  11.812 -1.2588 -0.4463  0.2342
 1242TIP3    H225218   5.446   0.794  11.764 -1.7433 -0.7761  1.2304
 1243TIP3   OH225219   0.656   4.687  12.014  0.0984 -0.7110  0.4966
 1243TIP3    H125220   0.745   4.722  12.022  0.3945 -1.6082  1.1573
 1243TIP3    H225221   0.668   4.601  11.973 -0.5633 -0.3809 -0.4097
 1244TIP3   OH225222   3.905   5.245  15.204 -0.4978  0.6274 -0.0370
 1244TIP3    H125223   3.844   5.174  15.185  0.5142 -0.4818  0.7508
 1244TIP3    H225224   3.858   5.301  15.266 -0.9170  0.0868  0.1399
 1245TIP3   OH225225   4.510   3.953   3.744  0.1775  0.1221  0.1008
 1245TIP3    H125226   4.424   3.958   3.701 -0.4835 -1.0349  1.2430
 1245TIP3    H225227   4.497   3.889   3.814  1.8768  0.2435  0.5295
 1246TIP3   OH225228   5.424   6.517   3.776  0.4541 -0.1261 -0.0168
 1246TIP3    H125229   5.351   6.459   3.798  1.5595 -1.8160 -0.6676
 1246TIP3    H225230   5.384   6.588   3.726 -0.6108 -1.7168 -1.5074
 1247TIP3   OH225231   6.067   0.872  13.650  0.1502  0.4516  0.0482
 1247TIP3    H125232   5.990   0.920  13.682  0.6817  1.0543  0.4249
 1247TIP3    H225233   6.090   0.814  13.722  0.0955  0.3282 -0.0349
 1248TIP3   OH225234   1.504   1.144  13.404 -0.1749 -0.4813  0.4905
 1248TIP3    H125235   1.519   1.101  13.320 -3.4459  0.8522 -0.8688
 1248TIP3    H225236   1.565   1.217  13.405 -1.7620  0.9459 -1.8841
 1249TIP3   OH225237   6.657   6.026   2.371  0.8703 -0.0426 -0.4943
 1249TIP3    H125238   6.694   6.030   2.283 -0.8991 -1.8266 -1.3556
 1249TIP3    H225239   6.733   6.015   2.429  2.0724  1.5230 -1.7295
 1250TIP3   OH225240   6.772   3.866  15.158 -0.3421 -0.1631 -0.0601
 1250TIP3    H125241   6.683   3.830  15.154 -0.5389  0.4719 -1.7018
 1250TIP3    H225242   6.763   3.956  15.127  0.9772 -0.2823 -0.8126
 1251TIP3   OH225243   3.302   1.281  13.359 -0.0245 -0.5045 -0.1819
 1251TIP3    H125244   3.328   1.251  13.447  0.8687 -2.0349 -0.9371
 1251TIP3    H225245   3.368   1.347  13.336 -0.9480  0.7773  0.7571
 1252TIP3   OH225246   3.677   0.373  15.331  0.3795  0.1398 -0.3624
 1252TIP3    H125247   3.674   0.309  15.402 -0.2002 -0.5576 -1.0169
 1252TIP3    H225248   3.767   0.405  15.331  0.8799 -1.2604 -0.5491
 1253TIP3   OH225249   3.515   2.329  17.240  0.1187 -0.1981 -0.0522
 1253TIP3    H125250   3.496   2.316  17.333 -0.1793  0.4323 -0.0259
 1253TIP3    H225251   3.486   2.418  17.221  1.2124  0.0745 -0.4874
 1254TIP3   OH225252   2.594   1.652   5.089 -0.3076  0.0034 -0.2243
 1254TIP3    H125253   2.666   1.662   5.152 -1.4068 -1.9097  1.3974
 1254TIP3    H225254   2.590   1.558   5.072 -1.9489  0.1755 -0.8626
 1255TIP3   OH225255   0.087   0.445   4.417  0.3944 -0.3057 -0.1145
 1255TIP3    H125256   0.083   0.531   4.458 -2.0039 -1.0268  1.2692
 1255TIP3    H225257   0.017   0.446   4.351  0.4915 -1.0934 -0.2402
 1256TIP3   OH225258   1.853   4.144  15.077  0.8231  0.7543  0.3527
 1256TIP3    H125259   1.911   4.094  15.136 -0.2971  0.0840  0.9013
 1256TIP3    H225260   1.820   4.216  15.131 -1.7052 -0.9438  1.1501
 1257TIP3   OH225261   0.281   2.907  11.952  0.1989  0.3536  0.3829
 1257TIP3    H125262   0.245   2.921  11.864  1.1700 -0.6737 -0.1882
 1257TIP3    H225263   0.213   2.858  11.998  0.0348  0.1385 -0.0778
 1258TIP3   OH225264   4.128   2.267  14.975 -0.0857 -0.1078  0.0678
 1258TIP3    H125265   4.075   2.286  14.897  0.5732 -2.8557 -1.1219
 1258TIP3    H225266   4.103   2.334  15.038 -3.0744  0.2135 -1.3687
 1259TIP3   OH225267   4.032   4.867   5.502  0.1512  0.3437 -0.5950
 1259TIP3    H125268   4.027   4.917   5.584  0.4433  0.6796 -0.7793
 1259TIP3    H225269   3.962   4.902   5.448  0.9970  1.2760 -1.1138
 1260TIP3   OH225270   1.102   0.892  16.749  0.3321  0.0222  0.2437
 1260TIP3    H125271   1.042   0.939  16.807  0.2399  0.9493 -0.5985
 1260TIP3    H225272   1.047   0.859  16.678  0.5635 -0.5057  0.3033
 1261TIP3   OH225273   0.839   3.622  14.713 -0.2023 -0.2447  0.5864
 1261TIP3    H125274   0.888   3.645  14.792 -0.8469 -1.5684  1.4022
 1261TIP3    H225275   0.753   3.663  14.726 -0.1753 -0.1214  0.3792
 1262TIP3   OH225276   2.537   5.771  14.954  0.8260 -0.2545 -0.1450
 1262TIP3    H125277   2.580   5.726  15.026  0.7937 -0.5129 -0.2881
 1262TIP3    H225278   2.470   5.710  14.923  0.4883  0.0655 -0.0512
 1263TIP3   OH225279   2.665   6.283   4.829 -0.1935 -0.6830  0.5236
 1263TIP3    H125280   2.746   6.237   4.806 -0.3540 -0.0300 -1.4568
 1263TIP3    H225281   2.694   6.358   4.881  0.5324 -0.1304 -0.6660
 1264TIP3   OH225282   6.698   5.594  15.641  0.9744  0.2107 -0.1239
 1264TIP3    H125283   6.632   5.526  15.657  0.2671  0.5365 -1.4948
 1264TIP3    H225284   6.653   5.676  15.662  1.0351  0.4126 -0.7807
 1265TIP3   OH225285   4.717   6.600  12.977 -0.7227 -0.0972 -0.2657
 1265TIP3    H125286   4.658   6.533  12.944  0.3622 -0.5351 -1.3673
 1265TIP3    H225287   4.667   6.681  12.971 -0.7487 -0.2494 -2.5292
 1266TIP3   OH225288   2.179   2.615   1.577 -0.7750  1.1230  0.1111
 1266TIP3    H125289   2.181   2.711   1.582 -3.0637  1.1083  1.6429
 1266TIP3    H225290   2.203   2.586   1.665 -0.5065  0.2728 -0.2379
 1267TIP3   OH225291   3.352   5.285   2.849  0.5252  0.2419  0.3063
 1267TIP3    H125292   3.323   5.372   2.875 -2.2751  0.5230 -3.2904
 1267TIP3    H225293   3.307   5.226   2.910 -0.9400  1.1405  0.1321
 1268TIP3   OH225294   5.943   3.261   2.863  0.0402  0.7400  0.0476
 1268TIP3    H125295   5.930   3.356   2.861  0.2850  0.7544 -1.1644
 1268TIP3    H225296   5.862   3.225   2.826  0.2811  0.5139 -0.2688
 1269TIP3   OH225297   4.620   2.965   2.223 -0.0969 -0.0544  0.0092
 1269TIP3    H125298   4.679   2.941   2.294 -0.1512 -0.0677  0.0495
 1269TIP3    H225299   4.653   2.917   2.147 -0.4341 -0.5562  0.1769
 1270TIP3   OH225300   0.119   3.773  12.640 -0.2527  0.0164  0.1623
 1270TIP3    H125301   0.192   3.787  12.700 -0.7684  2.8353  0.2047
 1270TIP3    H225302   0.147   3.815  12.559 -1.0345 -0.6226 -0.4458
 1271TIP3   OH225303   1.171   0.062  13.768  0.1431  0.1901  0.5379
 1271TIP3    H125304   1.127   0.124  13.825  2.6633 -0.3599  3.1937
 1271TIP3    H225305   1.264   0.078  13.782  0.8421 -0.8239 -2.5120
 1272TIP3   OH225306   5.598   1.399  13.978  0.9614 -0.1088  0.0632
 1272TIP3    H125307   5.588   1.305  13.988 -0.2305  0.2474  2.6280
 1272TIP3    H225308   5.678   1.420  14.027  2.2689  0.0061 -2.0384
 1273TIP3   OH225309   1.848   6.075   1.645  0.1309  0.3884  0.0523
 1273TIP3    H125310   1.774   6.024   1.678  0.7958 -0.2528  0.5670
 1273TIP3    H225311   1.909   6.079   1.718  1.0322  0.0882 -0.6657
 1274TIP3   OH225312   4.399   3.008  14.997 -0.0230 -0.5309  0.1702
 1274TIP3    H125313   4.391   2.935  15.059  1.6933 -1.0996 -0.2377
 1274TIP3    H225314   4.342   3.076  15.032 -0.7896 -1.6677  1.1632
 1275TIP3   OH225315   6.649   2.182  16.045  0.1855  0.5037  0.2239
 1275TIP3    H125316   6.589   2.217  16.111 -1.6138  0.8037 -1.5472
 1275TIP3    H225317   6.674   2.097  16.079  1.6931  1.8968  2.7734
 1276TIP3   OH225318   6.052   4.368  16.747 -0.2890  0.6433 -0.4983
 1276TIP3    H125319   6.112   4.335  16.679 -0.1729 -1.7751  0.7247
 1276TIP3    H225320   6.008   4.290  16.780  0.0510  1.7030  2.6054
 1277TIP3   OH225321   1.537   5.076  15.945  0.3677  0.7940  0.1286
 1277TIP3    H125322   1.586   5.082  16.028  0.5422 -0.1127  0.0930
 1277TIP3    H225323   1.476   5.149  15.949 -0.2411  0.2317  1.4704
 1278TIP3   OH225324   3.485   6.604  13.272 -0.1739  0.0278 -0.1524
 1278TIP3    H125325   3.436   6.641  13.345 -0.6015 -3.2016  1.3014
 1278TIP3    H225326   3.577   6.615  13.295 -0.3005 -2.0849  1.5512
 1279TIP3   OH225327   2.292   1.705   4.466 -0.2078  0.3922  0.3711
 1279TIP3    H125328   2.206   1.738   4.443 -0.1222  1.7001  1.8557
 1279TIP3    H225329   2.353   1.770   4.433  0.1626 -0.0575  0.1563
 1280TIP3   OH225330   1.116   2.727   3.299  0.0155  0.5084 -0.0971
 1280TIP3    H125331   1.076   2.706   3.383  0.9100  0.5742  0.3455
 1280TIP3    H225332   1.209   2.709   3.311 -0.1404 -1.6589 -1.7668
 1281TIP3   OH225333   3.665   0.822  12.733 -0.2149 -0.0070  0.2432
 1281TIP3    H125334   3.667   0.846  12.640 -0.1271  0.6471  0.4143
 1281TIP3    H225335   3.578   0.784  12.745 -0.0283 -0.6165 -0.2269
 1282TIP3   OH225336   5.991   1.806  15.815  0.2839  0.1433  0.4183
 1282TIP3    H125337   6.048   1.882  15.826  0.1880 -0.0824  2.5702
 1282TIP3    H225338   6.051   1.734  15.795  0.8816 -0.2823  3.5583
 1283TIP3   OH225339   0.941   4.475  12.110  0.2430  0.0644  0.4462
 1283TIP3    H125340   0.977   4.561  12.132  3.9625 -1.9010  2.5275
 1283TIP3    H225341   0.927   4.433  12.195  0.8286 -2.3050 -0.6093
 1284TIP3   OH225342   0.047   6.316  16.733  0.6727  0.1059  0.2055
 1284TIP3    H125343   0.095   6.399  16.741 -0.1483  0.3871  2.4950
 1284TIP3    H225344  -0.037   6.333  16.774  0.5510 -1.9102  0.8288
 1285TIP3   OH225345   6.463   4.072  11.675  0.2801 -0.0388  0.2031
 1285TIP3    H125346   6.504   3.997  11.719  3.4615  0.3435 -1.9710
 1285TIP3    H225347   6.505   4.149  11.713 -0.9931  0.5641  0.4367
 1286TIP3   OH225348   6.575   4.112   4.489 -0.1460  0.5552 -0.1404
 1286TIP3    H125349   6.650   4.171   4.484 -0.6192  1.2845  1.1751
 1286TIP3    H225350   6.609   4.034   4.534  0.1237  0.3840 -0.6373
 1287TIP3   OH225351   5.131   1.453   0.134 -0.4303 -0.2075 -0.2333
 1287TIP3    H125352   5.037   1.438   0.141 -0.1411 -1.1591  2.0375
 1287TIP3    H225353   5.169   1.366   0.130  0.3112  0.1798 -2.3311
 1288TIP3   OH225354   1.191   2.781  16.629 -0.5513 -0.0308 -0.3058
 1288TIP3    H125355   1.251   2.817  16.564 -0.2392  1.0662  0.5893
 1288TIP3    H225356   1.242   2.712  16.672  0.3140  1.3335  0.8988
 1289TIP3   OH225357   2.076   4.041  10.743 -0.0621  0.0737 -0.0231
 1289TIP3    H125358   2.057   4.119  10.691 -1.0064 -0.6606 -0.8175
 1289TIP3    H225359   2.171   4.031  10.739  0.0336  1.0503 -0.1100
 1290TIP3   OH225360   1.176   4.393   3.233  0.2112  0.8217 -0.3276
 1290TIP3    H125361   1.271   4.383   3.236  0.1493  0.2566 -0.0854
 1290TIP3    H225362   1.161   4.486   3.219  0.8178  0.8179 -1.0511
 1291TIP3   OH225363   0.263   0.817   5.888  0.1492 -0.2674 -0.3570
 1291TIP3    H125364   0.181   0.865   5.900  1.4713  1.9841  0.0226
 1291TIP3    H225365   0.253   0.772   5.805 -0.9903  1.0280 -0.9310
 1292TIP3   OH225366   3.571   5.471  13.534  0.1461  0.1168  0.1510
 1292TIP3    H125367   3.604   5.435  13.616  0.6779  0.7327  0.2087
 1292TIP3    H225368   3.504   5.534  13.559  0.9793  1.0138  0.1637
 1293TIP3   OH225369   4.362   2.402   5.081 -0.2171 -0.6054 -0.0629
 1293TIP3    H125370   4.285   2.348   5.099 -1.4198  1.7753  2.4436
 1293TIP3    H225371   4.332   2.467   5.018 -1.1099  1.8789  2.7753
 1294TIP3   OH225372   6.750   6.342   0.473  0.1415  0.8380  0.5085
 1294TIP3    H125373   6.673   6.365   0.524  0.1160  0.5721  0.5906
 1294TIP3    H225374   6.801   6.423   0.469 -0.2287  1.0599  0.2974
 1295TIP3   OH225375   0.205   3.426  15.699  0.5619  0.0244  0.2278
 1295TIP3    H125376   0.179   3.517  15.681  1.8689  0.5001  0.6846
 1295TIP3    H225377   0.128   3.387  15.739 -1.1591 -0.0207 -2.9618
 1296TIP3   OH225378   4.605   2.886  11.919  1.1157 -0.0344 -0.3532
 1296TIP3    H125379   4.679   2.870  11.861  0.3077  1.0748 -1.7202
 1296TIP3    H225380   4.558   2.802  11.922  1.9762 -0.5120 -0.1155
 1297TIP3   OH225381   1.440   5.870   2.004  0.2379 -0.0701  0.0307
 1297TIP3    H125382   1.390   5.900   1.928  2.0135  3.1760  0.0267
 1297TIP3    H225383   1.418   5.778   2.013 -4.0837  0.7462 -1.2080
 1298TIP3   OH225384   1.406   4.642   4.782  0.3499  0.0971 -0.1064
 1298TIP3    H125385   1.362   4.592   4.713 -0.3520  0.3751  0.1405
 1298TIP3    H225386   1.345   4.640   4.856  1.1289 -0.2580  0.5337
 1299TIP3   OH225387   1.850   2.831   1.897 -0.0550 -0.2736  0.0634
 1299TIP3    H125388   1.833   2.915   1.854 -0.5876  0.6892  2.0957
 1299TIP3    H225389   1.782   2.772   1.862  0.2102  0.1742 -1.2295
 1300TIP3   OH225390   4.825   5.197  17.177  0.2411  0.0253  0.1542
 1300TIP3    H125391   4.777   5.170  17.099  1.1370  0.5736 -0.5942
 1300TIP3    H225392   4.775   5.271  17.212  0.3111  0.3282 -0.3879
 1301TIP3   OH225393   6.430   4.984   5.391 -0.3495  0.7041 -0.4702
 1301TIP3    H125394   6.352   5.034   5.414  0.4901  2.3545 -1.0831
 1301TIP3    H225395   6.421   4.901   5.438 -2.7614  0.6116 -1.0414
 1302TIP3   OH225396   3.590   0.189  16.430  0.5146 -0.3474  0.3802
 1302TIP3    H125397   3.589   0.133  16.353  0.4574  0.0270  0.1146
 1302TIP3    H225398   3.673   0.167  16.473  0.4351 -0.7289  0.3451
 1303TIP3   OH225399   2.949   5.042   4.087 -0.5991 -0.3212 -0.5452
 1303TIP3    H125400   2.923   4.958   4.050 -1.0362 -0.9728  1.1842
 1303TIP3    H225401   2.968   5.023   4.179  0.1783  1.3032 -0.3480
 1304TIP3   OH225402   3.783   4.677   5.235 -0.3084 -0.5451 -0.4272
 1304TIP3    H125403   3.868   4.647   5.203  0.2345 -0.3026  0.7673
 1304TIP3    H225404   3.726   4.675   5.158  0.9741  0.0221 -1.4014
 1305TIP3   OH225405   1.023   3.255   3.272  0.2504 -0.2191  0.1681
 1305TIP3    H125406   1.075   3.268   3.351  1.2466 -0.6740 -0.4149
 1305TIP3    H225407   0.965   3.183   3.293 -0.5761  0.6763  1.0279
 1306TIP3   OH225408   0.201   0.636   2.686  0.2079 -0.5598 -0.7166
 1306TIP3    H125409   0.277   0.592   2.647  0.7016 -1.0841  0.8124
 1306TIP3    H225410   0.145   0.565   2.716 -0.2248 -0.1565 -0.5662
 1307TIP3   OH225411   0.360   3.468  12.224  0.3465  0.1636  0.6181
 1307TIP3    H125412   0.337   3.381  12.257 -0.4429  1.1917  2.8777
 1307TIP3    H225413   0.275   3.509  12.206  0.6244  1.4801  2.2891
 1308TIP3   OH225414   3.561   3.720  16.194 -0.0010  0.1726  0.4128
 1308TIP3    H125415   3.636   3.750  16.245 -0.8936  1.5608  0.9307
 1308TIP3    H225416   3.524   3.648  16.245  0.0239  0.5408  0.9538
 1309TIP3   OH225417   5.633   2.152   4.251  0.6940  0.6619 -0.1834
 1309TIP3    H125418   5.661   2.148   4.342  1.5812  2.5331 -0.3542
 1309TIP3    H225419   5.580   2.232   4.245  1.1695  0.9026 -1.4343
 1310TIP3   OH225420   5.405   0.403   2.869  0.4239 -0.6610  0.0106
 1310TIP3    H125421   5.477   0.452   2.829 -1.1064  0.9063 -0.9136
 1310TIP3    H225422   5.375   0.343   2.799  0.1983 -0.6086  0.0610
 1311TIP3   OH225423   3.998   1.001   0.174 -0.3351  0.0682  0.3616
 1311TIP3    H125424   3.957   0.915   0.160  0.2093 -0.0578 -0.4803
 1311TIP3    H225425   4.084   0.993   0.133 -1.2103  1.8200 -1.8765
 1312TIP3   OH225426   2.686   2.080  16.269 -0.4467  0.0660 -0.3348
 1312TIP3    H125427   2.751   2.093  16.338  0.7792 -0.2443 -1.4242
 1312TIP3    H225428   2.727   2.019  16.208 -2.6809 -2.0371  0.1793
 1313TIP3   OH225429   4.331   1.314  15.476 -0.0766 -0.0551 -0.1510
 1313TIP3    H125430   4.356   1.320  15.568 -0.6166 -0.4782  0.0294
 1313TIP3    H225431   4.281   1.394  15.459  0.8531  0.4836 -0.3404
 1314TIP3   OH225432   1.255   2.509  13.865  0.6458  0.1021 -0.3001
 1314TIP3    H125433   1.161   2.525  13.869  0.5927 -0.1117 -0.6713
 1314TIP3    H225434   1.262   2.414  13.852  0.9287 -0.0193  0.6775
 1315TIP3   OH225435   4.290   3.718  10.511  0.3221 -0.4765  0.0162
 1315TIP3    H125436   4.328   3.793  10.464  0.2791  1.2694  2.6471
 1315TIP3    H225437   4.310   3.643  10.456  1.1623  1.3517 -2.2727
 1316TIP3   OH225438   2.562   2.506  14.875 -0.4252 -0.2116 -0.1914
 1316TIP3    H125439   2.570   2.596  14.844 -0.9070 -0.2013 -0.2957
 1316TIP3    H225440   2.545   2.455  14.796  0.4371 -0.4772 -0.2043
 1317TIP3   OH225441   1.706   4.532  15.179  0.3809 -0.0759  0.3393
 1317TIP3    H125442   1.730   4.498  15.265 -1.2131 -0.9376  0.4575
 1317TIP3    H225443   1.703   4.627  15.192  0.4010 -0.1788  1.1655
 1318TIP3   OH225444   1.760   4.310  12.912  0.2032 -0.5670 -0.4570
 1318TIP3    H125445   1.665   4.310  12.897  0.3578  0.8653 -1.5093
 1318TIP3    H225446   1.798   4.330  12.827  1.3495  1.4509  0.5057
 1319TIP3   OH225447   4.306   1.918  15.273 -0.1245 -0.3842 -0.3082
 1319TIP3    H125448   4.227   1.864  15.279  1.1507 -2.0637  2.2696
 1319TIP3    H225449   4.377   1.855  15.256  1.0722  0.7356  0.4578
 1320TIP3   OH225450   0.664   5.089   5.061  0.2189 -0.5652 -0.6215
 1320TIP3    H125451   0.735   5.025   5.054 -1.1127 -2.4833  2.3975
 1320TIP3    H225452   0.690   5.146   5.133 -0.2041  0.2345 -1.0925
 1321TIP3   OH225453   5.751   3.874  16.363 -0.5011  0.4224 -0.6852
 1321TIP3    H125454   5.809   3.882  16.439  1.5297  0.1563 -2.1601
 1321TIP3    H225455   5.739   3.779  16.352  1.0595  0.3679 -2.0393
 1322TIP3   OH225456   5.317   3.535  11.609 -0.0748 -0.0635  0.1717
 1322TIP3    H125457   5.385   3.508  11.672  0.6704 -0.5676 -0.8440
 1322TIP3    H225458   5.236   3.535  11.661  0.4703 -0.8378  1.0534
 1323TIP3   OH225459   4.915   2.524  16.131  0.1230  0.4011  0.2244
 1323TIP3    H125460   4.894   2.589  16.066  1.9665  0.7819 -0.0291
 1323TIP3    H225461   4.837   2.517  16.186 -1.3348  0.2599 -1.8473
 1324TIP3   OH225462   0.539   4.315   3.262  0.4317 -0.6755 -0.1691
 1324TIP3    H125463   0.558   4.373   3.188  0.5634 -0.0010  0.3758
 1324TIP3    H225464   0.543   4.373   3.339 -1.5017 -0.9944  0.2008
 1325TIP3   OH225465   0.041   3.523  15.159 -0.9175  0.5895  0.7106
 1325TIP3    H125466   0.072   3.603  15.118  0.0133  0.9787  2.1335
 1325TIP3    H225467   0.033   3.545  15.252  1.0949 -1.4660  1.4040
 1326TIP3   OH225468   1.188   5.930   1.116 -0.3138 -0.0135  0.2026
 1326TIP3    H125469   1.153   5.848   1.082 -0.4046 -0.0481  0.3776
 1326TIP3    H225470   1.200   5.915   1.209 -1.7629  0.6419  0.5206
 1327TIP3   OH225471   6.334   6.601   0.751  0.2431 -0.0337 -0.3917
 1327TIP3    H125472   6.283   6.520   0.759 -2.7135  1.6930 -1.1112
 1327TIP3    H225473   6.423   6.571   0.732 -0.6474 -3.1159 -0.0535
 1328TIP3   OH225474   0.144   1.903  12.835 -0.3916 -0.7797  0.2166
 1328TIP3    H125475   0.149   1.944  12.921  0.1561  1.3434 -0.8014
 1328TIP3    H225476   0.065   1.939  12.794  0.6817  0.1484 -1.1068
 1329TIP3   OH225477   2.467   4.643  12.672 -0.6192 -0.0593  0.2614
 1329TIP3    H125478   2.455   4.610  12.762 -0.1352 -3.1149 -0.7361
 1329TIP3    H225479   2.562   4.647  12.661 -0.6748 -0.7298 -0.4723
 1330TIP3   OH225480   1.713   5.837   1.748  0.3813  0.3700 -0.0906
 1330TIP3    H125481   1.682   5.802   1.832 -0.0027  0.8496 -0.0296
 1330TIP3    H225482   1.718   5.761   1.690 -0.0412  0.1528  0.1602
 1331TIP3   OH225483   5.740   0.730  13.818  0.4042  0.2193 -0.2531
 1331TIP3    H125484   5.670   0.760  13.761 -0.3135  0.4388  0.7253
 1331TIP3    H225485   5.732   0.634  13.819 -1.4678  0.3483  1.7856
 1332TIP3   OH225486   1.457   2.743  13.172 -0.8910  0.0322  0.0382
 1332TIP3    H125487   1.501   2.721  13.090  1.1987  1.3858  0.7549
 1332TIP3    H225488   1.385   2.681  13.177  0.5185 -1.8196 -1.5400
 1333TIP3   OH225489   3.555   1.988  13.663  0.5210  0.3562 -0.1524
 1333TIP3    H125490   3.590   1.920  13.720  1.1619  1.0528  0.3071
 1333TIP3    H225491   3.589   2.070  13.700  1.3126  0.7941 -1.7949
 1334TIP3   OH225492   0.734   2.332  15.703 -0.1204  0.8855 -0.1280
 1334TIP3    H125493   0.649   2.287  15.696 -1.1000  2.8153 -0.9612
 1334TIP3    H225494   0.793   2.282  15.647 -0.5034 -0.9295  1.0638
 1335TIP3   OH225495   6.607   1.971   1.496 -0.0740 -0.7213 -0.5343
 1335TIP3    H125496   6.577   1.953   1.407  0.9493 -1.4871 -0.7371
 1335TIP3    H225497   6.538   1.937   1.552 -0.4964 -0.6793 -1.0253
 1336TIP3   OH225498   1.024   3.309  14.714  0.5667 -0.0604 -0.5053
 1336TIP3    H125499   0.973   3.342  14.788  1.5432  0.8374 -0.2191
 1336TIP3    H225500   1.083   3.381  14.691  2.5520 -1.4947 -0.0514
 1337TIP3   OH225501   4.194   4.382  12.127  0.3547 -0.2090  0.1257
 1337TIP3    H125502   4.257   4.454  12.124 -1.0329  0.9791 -2.4030
 1337TIP3    H225503   4.110   4.421  12.102 -0.6556 -2.4546 -0.1842
 1338TIP3   OH225504   6.470   5.124  11.746 -0.1242  0.2342  0.3401
 1338TIP3    H125505   6.400   5.172  11.789  0.3410 -0.1184  1.5189
 1338TIP3    H225506   6.523   5.089  11.818  1.8183  1.3268 -0.5334
 1339TIP3   OH225507   5.548   2.676  13.190 -0.4486  0.2256  0.1525
 1339TIP3    H125508   5.470   2.699  13.140  0.0532  1.7737  0.0424
 1339TIP3    H225509   5.541   2.727  13.271 -0.4741 -1.0606  0.9641
 1340TIP3   OH225510   3.382   6.389   3.156  0.1170 -0.5645  0.2011
 1340TIP3    H125511   3.309   6.397   3.216 -0.6866 -0.6024 -0.7654
 1340TIP3    H225512   3.398   6.478   3.124  0.0644 -0.6542 -0.0820
 1341TIP3   OH225513   4.331   1.777   6.397 -0.2387  0.5737 -0.1624
 1341TIP3    H125514   4.281   1.851   6.432  0.2868  1.1085 -0.5308
 1341TIP3    H225515   4.265   1.715   6.368 -0.6875  1.2030 -0.4842
 1342TIP3   OH225516   4.689   4.577   5.329 -0.0001 -0.2163  0.2415
 1342TIP3    H125517   4.745   4.548   5.401 -0.9547  0.0612  1.1130
 1342TIP3    H225518   4.601   4.580   5.367 -0.5925 -0.5577 -1.0844
 1343TIP3   OH225519   4.665   6.480   4.753 -0.0058  0.1169 -0.5883
 1343TIP3    H125520   4.573   6.457   4.766  0.1404 -0.2694 -0.2408
 1343TIP3    H225521   4.691   6.435   4.673 -0.5342  1.4280 -1.5156
 1344TIP3   OH225522   4.388   1.937  10.978 -0.2815 -0.4252  0.0990
 1344TIP3    H125523   4.459   1.961  10.918 -1.3152  1.5621 -0.3551
 1344TIP3    H225524   4.328   1.885  10.924  0.7255 -1.9819  0.4457
 1345TIP3   OH225525   2.548   3.451  16.779  0.6478 -0.0513  0.0743
 1345TIP3    H125526   2.571   3.515  16.711  0.5180 -1.8562 -1.7039
 1345TIP3    H225527   2.480   3.495  16.830  0.4410  1.1880 -1.2165
 1346TIP3   OH225528   2.560   5.981  11.520 -0.1149  0.4118  0.1204
 1346TIP3    H125529   2.503   6.029  11.459 -0.6303 -0.9540 -0.4888
 1346TIP3    H225530   2.638   6.036  11.529 -1.1751  1.9017  0.3101
 1347TIP3   OH225531   5.666   6.644  14.647 -0.2946 -0.5365 -0.0810
 1347TIP3    H125532   5.638   6.672  14.734 -2.2744 -1.1526 -0.4916
 1347TIP3    H225533   5.653   6.549  14.646  1.4666 -0.7904 -0.4401
 1348TIP3   OH225534   1.535   6.418  14.594  0.5011 -0.6203 -0.5629
 1348TIP3    H125535   1.443   6.430  14.572  0.8614  0.4368 -1.5597
 1348TIP3    H225536   1.557   6.494  14.648  0.4361 -1.5978  0.8736
 1349TIP3   OH225537   5.163   5.773  11.005  0.4120 -0.6374  0.0449
 1349TIP3    H125538   5.117   5.720  10.940 -0.9821 -1.1824  1.4261
 1349TIP3    H225539   5.234   5.814  10.957 -2.9144  2.1636 -2.7720
 1350TIP3   OH225540   6.456   5.507  10.653 -0.1455  0.4079 -0.2860
 1350TIP3    H125541   6.411   5.430  10.617  0.2931 -0.3050  0.6778
 1350TIP3    H225542   6.402   5.581  10.626 -1.1387 -0.3286 -0.3378
 1351TIP3   OH225543   4.517   5.781   2.839  0.2591  0.1364 -0.0392
 1351TIP3    H125544   4.529   5.720   2.912 -1.4711 -2.0419 -1.4936
 1351TIP3    H225545   4.558   5.737   2.764 -1.1561  0.6653 -1.1470
 1352TIP3   OH225546   4.893   4.796   5.417  0.0360  0.0543 -0.8642
 1352TIP3    H125547   4.861   4.724   5.363 -0.1918 -0.2204 -0.3685
 1352TIP3    H225548   4.885   4.764   5.507  0.1596  0.6050 -0.6540
 1353TIP3   OH225549   3.278   3.334   3.725  0.2835  0.3582 -0.3882
 1353TIP3    H125550   3.212   3.395   3.692  0.0859  0.2894 -0.1197
 1353TIP3    H225551   3.228   3.254   3.745  0.4573  0.2877 -0.2374
 1354TIP3   OH225552   1.809   3.433  12.851  0.0911  0.3834 -0.2493
 1354TIP3    H125553   1.790   3.519  12.813  1.4774 -0.1402 -2.2159
 1354TIP3    H225554   1.794   3.372  12.779  0.1589 -0.9221  0.8298
 1355TIP3   OH225555   4.423   2.616  16.025 -0.3361 -0.0232 -0.0626
 1355TIP3    H125556   4.481   2.663  15.965 -0.7952  0.3746 -0.2059
 1355TIP3    H225557   4.471   2.612  16.107 -0.8506  1.9730  0.3750
 1356TIP3   OH225558   0.170   1.049   3.861  0.0845  0.4631  0.1040
 1356TIP3    H125559   0.238   1.001   3.908  0.2947 -1.3732 -1.9975
 1356TIP3    H225560   0.096   0.988   3.858 -0.6513  1.3528 -0.1351
 1357TIP3   OH225561   1.238   5.560  12.810  0.0871  0.1769  0.2468
 1357TIP3    H125562   1.173   5.556  12.740  1.0863  1.5915 -0.7923
 1357TIP3    H225563   1.196   5.518  12.884 -1.3575 -0.4796 -0.9258
 1358TIP3   OH225564   4.065   2.972   3.222 -0.6220 -0.1035  0.0169
 1358TIP3    H125565   4.049   2.974   3.128 -0.0429 -0.7897 -0.0966
 1358TIP3    H225566   4.151   3.014   3.233  0.0346 -1.4403  0.0816
 1359TIP3   OH225567   2.917   2.867   4.271  0.4205 -0.2742  0.0046
 1359TIP3    H125568   2.948   2.894   4.357 -0.5811 -2.2738  1.0306
 1359TIP3    H225569   2.922   2.946   4.217  2.0051  0.7474  1.6202
 1360TIP3   OH225570   4.067   1.063   1.340  0.3045  0.4107  0.1103
 1360TIP3    H125571   4.059   1.026   1.428 -0.1737  0.4514  0.0829
 1360TIP3    H225572   4.071   0.988   1.282  2.4923  0.3327  0.3140
 1361TIP3   OH225573   5.966   3.693  14.232  0.3001 -0.3152  0.5104
 1361TIP3    H125574   5.880   3.726  14.207  0.5630  2.1956  2.6454
 1361TIP3    H225575   5.971   3.708  14.327  2.7938 -1.0840  0.5329
 1362TIP3   OH225576   5.555   0.319   5.835 -0.1902 -0.1624  0.5855
 1362TIP3    H125577   5.603   0.393   5.872 -2.8091  1.3324  1.1399
 1362TIP3    H225578   5.586   0.313   5.745  0.0602  1.6503  0.5210
 1363TIP3   OH225579   6.528   5.484   4.425 -0.0609  0.2582  0.1202
 1363TIP3    H125580   6.472   5.525   4.359 -0.0276  1.5789  0.8881
 1363TIP3    H225581   6.606   5.457   4.377 -0.8150 -0.4521 -0.7185
 1364TIP3   OH225582   5.037   6.439  16.530 -0.0110 -0.2185 -0.1664
 1364TIP3    H125583   5.057   6.489  16.451 -1.7731 -0.4395 -0.7793
 1364TIP3    H225584   5.061   6.349  16.508  2.1872  0.1686  0.5783
 1365TIP3   OH225585   3.778   5.473  16.267  0.6044  0.6085  0.3008
 1365TIP3    H125586   3.725   5.539  16.223  1.1237  0.8070 -0.0287
 1365TIP3    H225587   3.715   5.418  16.313 -0.0301 -0.1876 -1.4784
 1366TIP3   OH225588   0.576   5.443   3.090 -0.0331 -0.1482  0.3494
 1366TIP3    H125589   0.548   5.362   3.046 -0.1071  1.1984 -2.1950
 1366TIP3    H225590   0.654   5.418   3.140  0.7501 -1.5181 -1.5012
 1367TIP3   OH225591   2.603   6.132  13.992 -0.0658  0.1740  0.1868
 1367TIP3    H125592   2.684   6.092  13.960 -0.0487  0.3756 -0.0160
 1367TIP3    H225593   2.533   6.079  13.954 -0.0722  1.0274 -0.9942
 1368TIP3   OH225594   1.865   4.861   3.944  0.0146 -0.2247 -0.7382
 1368TIP3    H125595   1.927   4.935   3.948  0.7723 -0.9094  1.2856
 1368TIP3    H225596   1.806   4.883   3.873  1.6978  1.1853 -1.7541
 1369TIP3   OH225597   0.497   0.329  12.311  0.1063  0.2769  0.1848
 1369TIP3    H125598   0.441   0.403  12.335  0.0736 -0.4331  2.4637
 1369TIP3    H225599   0.436   0.265  12.274 -0.2314  0.4411  0.4513
 1370TIP3   OH225600   0.627   3.545  11.722 -0.2313  0.2669  0.2295
 1370TIP3    H125601   0.569   3.492  11.777  0.5167 -0.2012  0.5701
 1370TIP3    H225602   0.649   3.621  11.776 -0.0654  0.1591  0.3127
 1371TIP3   OH225603   0.548   4.841   5.640 -1.0084 -0.7896 -0.6815
 1371TIP3    H125604   0.578   4.832   5.730 -0.5509  1.2771 -0.6002
 1371TIP3    H225605   0.500   4.924   5.639  0.1886 -0.0885 -2.6442
 1372TIP3   OH225606   0.114   5.347   2.493 -0.5728  0.2182  0.4165
 1372TIP3    H125607   0.142   5.433   2.464 -0.3376  0.1984  0.5822
 1372TIP3    H225608   0.038   5.364   2.550 -0.2762  0.3469  0.7749
 1373TIP3   OH225609   0.184   5.337   4.040 -0.6625 -0.1286  0.0346
 1373TIP3    H125610   0.148   5.403   3.981 -0.7406  0.0601  0.2896
 1373TIP3    H225611   0.114   5.273   4.049 -0.6301 -0.1852 -0.1224
 1374TIP3   OH225612   5.975   1.393  15.998  0.4817 -1.3086 -0.0959
 1374TIP3    H125613   5.998   1.458  16.065  0.7852 -1.1576 -0.3467
 1374TIP3    H225614   5.940   1.445  15.926 -0.5594 -1.5257  0.2410
 1375TIP3   OH225615   4.777   5.198  16.361 -0.6245  0.3366 -0.5184
 1375TIP3    H125616   4.688   5.231  16.375 -1.0758 -0.4725 -1.4621
 1375TIP3    H225617   4.814   5.255  16.295  0.1339  1.6847  1.0381
 1376TIP3   OH225618   0.512   2.394  15.117 -0.3501 -0.1136  0.5090
 1376TIP3    H125619   0.423   2.367  15.138  0.2894 -0.1414  3.4854
 1376TIP3    H225620   0.503   2.481  15.078 -1.5684  0.8511  2.8303
 1377TIP3   OH225621   2.180   1.416  10.168 -0.3238 -0.3820  0.3789
 1377TIP3    H125622   2.208   1.478  10.236 -0.2035 -0.2417  0.2039
 1377TIP3    H225623   2.085   1.414  10.175 -0.3399 -0.0162  0.2445
 1378TIP3   OH225624   1.753   0.390  14.261 -0.2447 -0.0384  0.6800
 1378TIP3    H125625   1.764   0.297  14.240  0.1400  0.0168  0.6294
 1378TIP3    H225626   1.814   0.435  14.203 -1.3115  0.3487 -0.1717
 1379TIP3   OH225627   6.739   0.623  17.144 -0.1248  0.1046  0.1937
 1379TIP3    H125628   6.661   0.677  17.159 -0.3147 -0.0700 -0.1641
 1379TIP3    H225629   6.765   0.593  17.232  0.0032  0.8024  0.3942
 1380TIP3   OH225630   5.318   0.908  11.250  0.1488  0.1082  0.5643
 1380TIP3    H125631   5.273   0.939  11.329 -0.2750  1.1077 -0.0612
 1380TIP3    H225632   5.372   0.983  11.223 -0.2037 -0.0035 -0.4574
 1381TIP3   OH225633   6.024   6.665   4.349  0.2360  0.2663  0.7495
 1381TIP3    H125634   6.075   6.626   4.277 -1.4051  2.2489 -1.5527
 1381TIP3    H225635   6.088   6.718   4.397  0.9063  0.7197 -0.6014
 1382TIP3   OH225636   3.056   2.169  12.761 -0.0799  0.7418  0.0970
 1382TIP3    H125637   2.970   2.129  12.776 -1.4305  3.1737 -1.0072
 1382TIP3    H225638   3.055   2.248  12.815  1.8717  0.3123  0.8202
 1383TIP3   OH225639   2.087   0.723   5.214 -0.1618  0.2416 -0.0780
 1383TIP3    H125640   2.182   0.725   5.224 -0.2382 -1.1930  1.0409
 1383TIP3    H225641   2.053   0.728   5.303 -1.1986  2.5070 -0.5508
 1384TIP3   OH225642   1.700   2.130  17.131 -0.3043  0.6335 -0.4362
 1384TIP3    H125643   1.787   2.125  17.090  0.2085  0.0571  0.7045
 1384TIP3    H225644   1.658   2.205  17.088  0.1478 -0.0659 -2.1564
 1385TIP3   OH225645   6.610   1.412   5.170 -0.1796 -0.3733 -0.3473
 1385TIP3    H125646   6.543   1.455   5.223  0.2014  1.3933 -1.2435
 1385TIP3    H225647   6.682   1.476   5.166 -0.0852 -0.5563 -2.7329
 1386TIP3   OH225648   2.371   5.982  14.975 -0.5944 -0.5572 -0.6337
 1386TIP3    H125649   2.428   5.907  14.989  2.7284  2.0991  0.7286
 1386TIP3    H225650   2.327   5.995  15.060 -1.4200 -1.1264 -0.9666
 1387TIP3   OH225651   2.605   1.061   4.917  0.2914  0.0002  0.2609
 1387TIP3    H125652   2.543   1.089   4.850 -1.9472 -1.3056  1.7354
 1387TIP3    H225653   2.657   0.993   4.874 -1.8548 -1.6044  0.1273
 1388TIP3   OH225654   1.193   4.250  15.950 -0.1161  0.2947 -0.4713
 1388TIP3    H125655   1.230   4.193  16.017  0.4385  0.0612 -0.9807
 1388TIP3    H225656   1.120   4.294  15.995  0.0462 -0.1021  0.1910
 1389TIP3   OH225657   6.025   0.177  16.072 -0.4084  0.1400 -0.3205
 1389TIP3    H125658   6.110   0.153  16.034  0.5861  0.6740  1.5182
 1389TIP3    H225659   6.040   0.176  16.167 -2.8008 -1.0526  0.0827
 1390TIP3   OH225660   0.390   4.378   2.228  0.1688 -0.1100  0.7407
 1390TIP3    H125661   0.370   4.363   2.136 -0.4279  0.5058  0.7723
 1390TIP3    H225662   0.409   4.471   2.234 -0.2919 -0.0502  1.3368
 1391TIP3   OH225663   0.112   3.755   2.144 -0.0122  0.4233 -0.3191
 1391TIP3    H125664   0.071   3.683   2.096  0.2006  0.6472 -0.8376
 1391TIP3    H225665   0.191   3.776   2.094 -1.2791  2.5836 -1.5372
 1392TIP3   OH225666   6.196   4.169  11.854  0.3385 -0.3271  0.0748
 1392TIP3    H125667   6.133   4.097  11.855 -0.0373 -0.0002  0.1387
 1392TIP3    H225668   6.157   4.234  11.796  1.2775 -0.7032 -1.0049
 1393TIP3   OH225669   2.108   2.940   0.915  0.0743 -0.0565 -0.0213
 1393TIP3    H125670   2.120   2.905   1.003  0.0300  0.6426  0.2631
 1393TIP3    H225671   2.058   3.021   0.928  1.7074  1.0593 -0.5189
 1394TIP3   OH225672   1.714   4.001  16.395  0.0938 -0.3331  0.9065
 1394TIP3    H125673   1.651   3.992  16.323  0.5402  0.0815  0.4588
 1394TIP3    H225674   1.667   3.970  16.472  0.2177 -2.5044  0.1245
 1395TIP3   OH225675   3.080   6.492   0.747  0.4972  0.5618  0.1377
 1395TIP3    H125676   2.993   6.518   0.717  0.8471  0.5062 -0.9175
 1395TIP3    H225677   3.086   6.529   0.836 -1.3766 -1.1724  1.0117
 1396TIP3   OH225678   5.927   6.794   1.457  0.1098 -0.1860 -0.6520
 1396TIP3    H125679   5.981   6.729   1.503 -0.0269  0.8579  1.0066
 1396TIP3    H225680   5.964   6.797   1.369 -0.5515 -3.3043 -1.1034
 1397TIP3   OH225681   1.036   0.670  16.883 -1.0569  0.2626 -0.1656
 1397TIP3    H125682   1.080   0.748  16.848 -2.0516  0.7502 -0.3555
 1397TIP3    H225683   0.974   0.705  16.946  0.9662 -0.6181  2.4075
 1398TIP3   OH225684   4.821   6.346   5.391 -0.0740 -0.3893  0.0055
 1398TIP3    H125685   4.869   6.347   5.308 -0.1818  2.6450 -0.0700
 1398TIP3    H225686   4.745   6.290   5.373 -0.5161  0.8623 -2.2200
 1399TIP3   OH225687   3.294   0.026   0.457 -0.2523 -0.1400  0.1443
 1399TIP3    H125688   3.347   0.069   0.524 -0.4820  0.1316  0.1558
 1399TIP3    H225689   3.355  -0.031   0.411 -0.0788 -0.2738  0.5380
 1400TIP3   OH225690   3.743   5.498   0.452  0.5980  0.1960 -0.0989
 1400TIP3    H125691   3.823   5.515   0.403 -0.2113 -0.4737 -1.6943
 1400TIP3    H225692   3.673   5.532   0.395 -0.2204  1.2086  1.4795
 1401TIP3   OH225693   0.038   0.842   2.745  0.0924 -1.1199 -0.2538
 1401TIP3    H125694   0.105   0.906   2.721  0.2746 -1.4400 -0.6155
 1401TIP3    H225695   0.084   0.758   2.745 -0.0749 -1.2134  0.5230
 1402TIP3   OH225696   5.232   5.091  14.322 -0.2789  0.1975  0.2889
 1402TIP3    H125697   5.208   5.068  14.233  0.1767 -1.9201  0.6995
 1402TIP3    H225698   5.154   5.072  14.374 -0.1610  0.3206  0.5149
 1403TIP3   OH225699   2.876   4.517  12.347 -0.2152  0.0852 -0.4508
 1403TIP3    H125700   2.928   4.474  12.414 -2.3298 -1.4281  0.2600
 1403TIP3    H225701   2.844   4.597  12.389 -0.5137 -0.2380 -0.0583
 1404TIP3   OH225702   0.285   3.152  15.917  0.0008  0.1192 -0.5346
 1404TIP3    H125703   0.304   3.114  15.832  0.2964 -0.2766 -0.2919
 1404TIP3    H225704   0.201   3.195  15.906 -0.0173 -0.0347 -0.9916
 1405TIP3   OH225705   0.905   3.299  16.949 -0.0685 -0.0845 -0.1322
 1405TIP3    H125706   0.898   3.304  16.854 -0.3283 -0.9990 -0.1659
 1405TIP3    H225707   0.978   3.239  16.965  0.7227  0.9651  0.2518
 1406TIP3   OH225708   2.281   6.153   3.595 -0.7923 -0.0722  0.5806
 1406TIP3    H125709   2.211   6.148   3.530 -0.5083 -0.7754  0.3110
 1406TIP3    H225710   2.251   6.098   3.667 -1.9808  2.2750  1.9296
 1407TIP3   OH225711   4.187   0.338   3.304  0.1967  0.0222  0.2684
 1407TIP3    H125712   4.258   0.285   3.341 -0.1269  0.3213  1.3085
 1407TIP3    H225713   4.107   0.292   3.329 -0.1686  1.7545  2.4356
 1408TIP3   OH225714   0.374   3.018   1.278 -0.0855 -0.1152  0.1112
 1408TIP3    H125715   0.467   3.012   1.258 -0.0379  0.0940  0.2713
 1408TIP3    H225716   0.346   3.102   1.241  0.2516  0.8096  1.8947
 1409TIP3   OH225717   0.387   0.158   2.524  0.2055  0.3273 -0.5229
 1409TIP3    H125718   0.390   0.081   2.580  1.0415  1.9743  1.8114
 1409TIP3    H225719   0.477   0.190   2.523 -0.1179  1.2380 -1.5218
 1410TIP3   OH225720   2.397   0.330   0.993  0.3242 -0.3350 -0.2148
 1410TIP3    H125721   2.301   0.329   1.000  0.3831  0.1341  0.7411
 1410TIP3    H225722   2.418   0.417   0.960  0.3680 -0.7949 -1.4380
 1411TIP3   OH225723   1.251   4.124  16.184 -0.2045  0.2272 -0.2363
 1411TIP3    H125724   1.246   4.034  16.152 -1.9892  1.1306 -2.6173
 1411TIP3    H225725   1.197   4.124  16.263  0.7038 -1.0137  0.4144
 1412TIP3   OH225726   1.830   6.412   3.362 -0.4706  0.1314  0.3915
 1412TIP3    H125727   1.778   6.492   3.375 -1.0641 -0.3744  1.1284
 1412TIP3    H225728   1.812   6.386   3.272 -1.4464 -0.0077  0.6267
 1413TIP3   OH225729   0.111   3.761  13.400  0.1848 -0.0709 -0.1203
 1413TIP3    H125730   0.121   3.779  13.493  1.6375 -0.9233 -0.0904
 1413TIP3    H225731   0.146   3.839  13.356  1.0918 -0.3930  0.0339
 1414TIP3   OH225732   1.949   0.668  17.123  0.6181  0.5752  0.0222
 1414TIP3    H125733   1.974   0.585  17.165 -1.7094  0.3727  1.0940
 1414TIP3    H225734   1.934   0.728  17.196 -0.2737  1.1786 -0.6548
 1415TIP3   OH225735   2.893   0.052   0.994  0.0206  0.4479  0.8393
 1415TIP3    H125736   2.933   0.061   0.907 -0.4872  0.2629  0.5867
 1415TIP3    H225737   2.872   0.141   1.020  0.9859  0.5877  1.1559
 1416TIP3   OH225738   3.070   5.196  11.670  0.1259  0.3844 -0.4906
 1416TIP3    H125739   2.977   5.200  11.644 -0.2056 -0.8856  0.4796
 1416TIP3    H225740   3.091   5.103  11.668  0.5787  0.4157  2.1088
 1417TIP3   OH225741   0.495   6.728   1.997 -0.5481 -0.7128  0.3214
 1417TIP3    H125742   0.518   6.699   1.909  0.2811  0.6100  0.0716
 1417TIP3    H225743   0.571   6.704   2.051  0.7084  2.0015 -0.1347
 1418TIP3   OH225744   0.151   3.966   3.144 -0.7041  0.0227  0.8210
 1418TIP3    H125745   0.219   4.034   3.153 -0.8457  0.1641  0.8209
 1418TIP3    H225746   0.152   3.920   3.228 -1.0405  0.4268  1.0440
 1419TIP3   OH225747   5.090   5.593   2.761  0.5462 -0.3678 -0.2998
 1419TIP3    H125748   4.995   5.602   2.771  0.4569 -0.5359 -0.9326
 1419TIP3    H225749   5.100   5.537   2.684  1.1490 -1.2562  0.4312
 1420TIP3   OH225750   6.674   2.632   4.189  0.5061  0.5195 -0.3598
 1420TIP3    H125751   6.634   2.618   4.274  0.9931  1.2457 -0.0048
 1420TIP3    H225752   6.601   2.634   4.127  0.1511  0.0366  0.0461
 1421TIP3   OH225753   5.634   6.357  14.637 -0.6800 -0.0499 -0.7234
 1421TIP3    H125754   5.553   6.314  14.665 -1.0641 -0.4042 -2.3260
 1421TIP3    H225755   5.695   6.286  14.619  0.2850  0.2475  1.3189
 1422TIP3   OH225756   3.749   2.108  12.014 -0.0804 -0.2892  0.2566
 1422TIP3    H125757   3.771   2.169  12.084  0.0947 -0.6481  0.5200
 1422TIP3    H225758   3.654   2.117  12.003  0.3361  2.1514 -1.7117
 1423TIP3   OH225759   2.073   0.305  15.975  0.0022 -0.3793  0.3048
 1423TIP3    H125760   2.093   0.391  16.012 -0.3277 -0.4642  0.6831
 1423TIP3    H225761   1.994   0.320  15.923  0.7831 -0.1383 -0.8308
 1424TIP3   OH225762   6.264   3.418   1.611  0.1784  0.3531 -0.2691
 1424TIP3    H125763   6.315   3.497   1.628 -1.6435  1.7407 -1.1688
 1424TIP3    H225764   6.223   3.433   1.526 -0.9765 -1.1319  0.0021
 1425TIP3   OH225765   2.049   5.373   5.205  0.5382 -0.0586 -0.3437
 1425TIP3    H125766   2.085   5.403   5.288 -1.9660  0.9086  0.4414
 1425TIP3    H225767   2.097   5.423   5.138  0.6299  1.1846  0.6491
 1426TIP3   OH225768   4.613   1.728   0.552  0.1669  0.4632 -0.5721
 1426TIP3    H125769   4.519   1.723   0.569  0.3002  2.3967  0.9774
 1426TIP3    H225770   4.627   1.815   0.516  1.5461  0.7701  0.6179
 1427TIP3   OH225771   4.586   2.085  13.745 -0.2087  0.0969 -0.1649
 1427TIP3    H125772   4.597   2.141  13.668 -1.7839  1.5139  0.6258
 1427TIP3    H225773   4.509   2.031  13.724 -2.8495  2.9306  1.7934
 1428TIP3   OH225774   4.837   2.584   1.633 -0.3089 -0.2802 -0.4216
 1428TIP3    H125775   4.777   2.657   1.616  0.1498 -0.1309 -1.4439
 1428TIP3    H225776   4.907   2.622   1.685 -1.7976 -0.7698  2.0218
 1429TIP3   OH225777   0.648   5.489  11.128 -0.0229 -0.2000 -0.0340
 1429TIP3    H125778   0.571   5.483  11.072 -0.1233 -0.3433  0.1194
 1429TIP3    H225779   0.630   5.429  11.201 -0.3573  0.7721  0.6918
 1430TIP3   OH225780   1.656   4.644   0.740 -0.4075  0.6215 -0.4630
 1430TIP3    H125781   1.752   4.645   0.737 -0.4435  1.3699 -1.5023
 1430TIP3    H225782   1.629   4.720   0.689 -1.5535  0.8923  0.5039
 1431TIP3   OH225783   4.832   6.132  17.056  0.3186 -0.5282  0.6831
 1431TIP3    H125784   4.798   6.158  16.970 -0.3722 -0.2311  1.0408
 1431TIP3    H225785   4.754   6.130  17.112  0.7455 -0.8999  1.2545
 1432TIP3   OH225786   0.280   4.285   2.923  0.0468 -0.1048  0.4662
 1432TIP3    H125787   0.337   4.248   2.991  0.3366 -0.9236 -0.2300
 1432TIP3    H225788   0.284   4.223   2.851 -0.1149  0.8641 -0.3867
 1433TIP3   OH225789   6.498   6.414  11.787  0.3048 -0.2292  0.0497
 1433TIP3    H125790   6.509   6.509  11.800 -1.0845  0.0451 -0.7207
 1433TIP3    H225791   6.563   6.375  11.846  0.7099  1.1933  0.5825
 1434TIP3   OH225792   1.631   3.490  15.427  0.2127 -0.0869  0.0774
 1434TIP3    H125793   1.656   3.401  15.451  0.9540  0.0488 -0.1859
 1434TIP3    H225794   1.549   3.505  15.475 -0.5292 -1.3167 -0.7738
 1435TIP3   OH225795   3.430   3.823   3.749 -0.3895  0.0473  0.7920
 1435TIP3    H125796   3.441   3.801   3.842 -0.8710 -0.8853  0.6332
 1435TIP3    H225797   3.511   3.794   3.707 -1.1986 -1.9091  0.5082
 1436TIP3   OH225798   3.584   3.506  15.028 -0.0669  0.2730 -0.0833
 1436TIP3    H125799   3.497   3.466  15.020 -0.1287  0.3673  0.1184
 1436TIP3    H225800   3.582   3.580  14.968  0.2438 -0.3605 -0.8929
 1437TIP3   OH225801   3.872   1.088   5.707  0.2532 -0.1524 -0.3291
 1437TIP3    H125802   3.869   1.183   5.717 -1.4378 -0.1432 -0.6779
 1437TIP3    H225803   3.854   1.073   5.615 -0.7290 -0.8498 -0.0330
 1438TIP3   OH225804   3.971   1.839   5.958  0.5457 -0.0323 -0.4621
 1438TIP3    H125805   4.028   1.870   6.028 -1.3541  0.7404  0.7971
 1438TIP3    H225806   3.886   1.826   6.000 -0.1940 -1.2809 -2.2512
 1439TIP3   OH225807   1.673   3.616  16.056 -0.1906  0.0068 -0.4000
 1439TIP3    H125808   1.582   3.587  16.063 -0.4959  0.7160 -1.2216
 1439TIP3    H225809   1.687   3.628  15.962  1.3218 -1.8485 -0.4442
 1440TIP3   OH225810   1.062   5.314   3.734  0.4868  0.0801  0.2477
 1440TIP3    H125811   1.055   5.385   3.797 -1.7312  0.0558  0.0607
 1440TIP3    H225812   1.044   5.355   3.649 -1.6878 -0.8403  0.2385
 1441TIP3   OH225813   2.007   0.055   5.972  0.4878 -0.1883 -0.1086
 1441TIP3    H125814   2.049   0.056   6.058  1.9342  1.6212 -0.8258
 1441TIP3    H225815   1.913   0.052   5.992  0.7948  0.7342  1.5279
 1442TIP3   OH225816   4.843   1.929   1.567 -0.8030 -0.3326 -0.1304
 1442TIP3    H125817   4.809   1.934   1.657 -0.3369  1.3513 -0.0274
 1442TIP3    H225818   4.772   1.961   1.512 -0.3952  0.5418 -0.1653
 1443TIP3   OH225819   4.457   1.324   3.952  0.1753  0.1606 -0.3818
 1443TIP3    H125820   4.385   1.374   3.990 -0.7910 -1.3987 -0.1345
 1443TIP3    H225821   4.532   1.342   4.008 -0.6183 -0.1145  0.7741
 1444TIP3   OH225822   0.667   3.986   3.127 -0.4351  0.4918 -0.0681
 1444TIP3    H125823   0.682   3.897   3.159  0.0789  0.3359 -0.7219
 1444TIP3    H225824   0.683   4.042   3.203 -1.9036 -0.0501  0.6392
 1445TIP3   OH225825   2.891   0.549  10.510  0.1908  0.1794  0.2864
 1445TIP3    H125826   2.906   0.506  10.594  1.6927 -0.3727 -0.2486
 1445TIP3    H225827   2.857   0.635  10.534  0.1519 -0.1430  1.4556
 1446TIP3   OH225828   3.679   0.325  15.056 -0.1282 -0.1875 -0.1133
 1446TIP3    H125829   3.688   0.351  15.148  2.2020 -2.4493  0.3630
 1446TIP3    H225830   3.590   0.291  15.050 -0.9918  1.8474  0.7988
 1447TIP3   OH225831   2.536   0.399   0.664  0.3213  0.7962  0.0133
 1447TIP3    H125832   2.454   0.415   0.619  0.4627  0.9228 -0.2021
 1447TIP3    H225833   2.528   0.447   0.747  0.2481  0.9537 -0.0858
 1448TIP3   OH225834   6.426   2.743   3.816 -0.2871 -0.5569 -0.0291
 1448TIP3    H125835   6.361   2.721   3.883  0.5486 -0.2547  0.9089
 1448TIP3    H225836   6.492   2.673   3.823  0.2086 -0.0898  0.0152
 1449TIP3   OH225837   1.937   1.035   5.278 -0.1329 -0.3260 -0.5934
 1449TIP3    H125838   1.888   0.958   5.248 -1.0810 -0.0294  0.1668
 1449TIP3    H225839   1.933   1.096   5.205 -2.2491  0.3100  0.0071
 1450TIP3   OH225840   3.350   5.073   5.029 -0.1501  0.2730 -0.0411
 1450TIP3    H125841   3.442   5.061   5.005  0.3105  1.3061  1.1551
 1450TIP3    H225842   3.310   5.112   4.951  0.9158  1.8740  0.1891
 1451TIP3   OH225843   2.025   5.765   4.700  0.3615  0.4191 -0.3927
 1451TIP3    H125844   1.934   5.781   4.677 -0.0411 -1.4488 -0.2190
 1451TIP3    H225845   2.022   5.688   4.758  2.2792 -1.6867 -2.9553
 1452TIP3   OH225846   5.759   2.115  15.529  1.2624  0.0094 -0.0724
 1452TIP3    H125847   5.838   2.160  15.500  0.2212  2.4426  0.7802
 1452TIP3    H225848   5.766   2.113  15.625  0.7111 -0.5840 -0.0367
 1453TIP3   OH225849   5.879   2.564  13.792  0.3031  0.0770 -0.2758
 1453TIP3    H125850   5.920   2.484  13.825  0.6125  0.7620  1.0208
 1453TIP3    H225851   5.947   2.606  13.741  0.6704  0.3475  0.4339
 1454TIP3   OH225852   1.374   6.710   1.797 -0.0361  0.0675 -0.1710
 1454TIP3    H125853   1.357   6.697   1.704  0.2283 -0.2019 -0.1817
 1454TIP3    H225854   1.468   6.725   1.803 -0.2962  1.6972 -0.1201
 1455TIP3   OH225855   4.842   2.243   5.652 -0.6281  0.8146  0.1504
 1455TIP3    H125856   4.762   2.254   5.601 -1.6574  0.5977  1.6917
 1455TIP3    H225857   4.822   2.172   5.713  0.4896  1.2289  1.0076
 1456TIP3   OH225858   6.772   0.436  10.965 -0.7386 -0.1090 -0.5522
 1456TIP3    H125859   6.785   0.424  10.871  1.9903 -0.9441 -0.1059
 1456TIP3    H225860   6.860   0.442  11.002 -1.7279 -0.7959  2.0867
 1457TIP3   OH225861   0.158   1.431   3.625  0.4354  0.0232  0.6858
 1457TIP3    H125862   0.190   1.513   3.663  0.4186  0.3180  0.0675
 1457TIP3    H225863   0.063   1.434   3.639  0.0268  1.5789 -2.1236
 1458TIP3   OH225864   0.372   5.400   6.089 -0.0413  0.0094 -0.4486
 1458TIP3    H125865   0.364   5.494   6.069 -0.4046  0.6417  2.5113
 1458TIP3    H225866   0.466   5.384   6.087  0.0873  0.6783  0.0271
 1459TIP3   OH225867   1.332   1.182   2.311  0.2071 -0.0168  0.6527
 1459TIP3    H125868   1.363   1.216   2.227 -0.0788 -1.0592  0.1168
 1459TIP3    H225869   1.282   1.255   2.350  0.9512  0.7064  0.2512
 1460TIP3   OH225870   6.670   5.193   2.245 -0.1509  0.1175  0.2340
 1460TIP3    H125871   6.656   5.281   2.281  2.7219  1.6765 -2.2064
 1460TIP3    H225872   6.744   5.159   2.294 -0.4904 -0.4525  0.3490
 1461TIP3   OH225873   3.166   3.280  13.114 -0.2449 -0.8146  0.3784
 1461TIP3    H125874   3.251   3.322  13.126 -0.3898  0.4049 -2.4888
 1461TIP3    H225875   3.104   3.339  13.159 -0.0383  0.3793 -0.8672
 1462TIP3   OH225876   1.902   0.524  13.029 -0.2460  0.5066 -0.4067
 1462TIP3    H125877   1.838   0.594  13.019  0.1220  1.0814  1.0327
 1462TIP3    H225878   1.983   0.569  13.053  0.0740 -0.3716  0.1946
 1463TIP3   OH225879   3.341   1.554  15.044  0.1771 -0.0059 -0.0855
 1463TIP3    H125880   3.341   1.555  14.948  2.6725  0.0454 -0.1357
 1463TIP3    H225881   3.301   1.637  15.069 -0.3182  0.0656 -1.0976
 1464TIP3   OH225882   4.326   3.202   5.880 -0.1407  0.0911 -0.3397
 1464TIP3    H125883   4.247   3.234   5.837  0.4743  1.8727 -0.1714
 1464TIP3    H225884   4.323   3.239   5.968  2.0763  2.2428 -1.0959
 1465TIP3   OH225885   3.144   0.686  11.326 -0.3411 -0.3614 -0.1189
 1465TIP3    H125886   3.205   0.759  11.336 -0.4258 -0.0134 -1.8634
 1465TIP3    H225887   3.070   0.723  11.278 -0.8256 -1.3490 -0.1474
 1466TIP3   OH225888   6.398   3.058  12.734  0.0333 -0.5110  0.2812
 1466TIP3    H125889   6.358   2.971  12.732 -0.9119 -0.0665 -0.2124
 1466TIP3    H225890   6.354   3.103  12.806  1.4027 -0.8449  1.3644
 1467TIP3   OH225891   3.405   5.371  14.705 -0.3837 -0.2249 -0.5159
 1467TIP3    H125892   3.429   5.279  14.715 -0.8043 -0.1364  1.4028
 1467TIP3    H225893   3.415   5.387  14.611  0.8999 -1.8816 -0.6976
 1468TIP3   OH225894   3.788   0.295   0.179 -1.2568 -0.0757 -0.2582
 1468TIP3    H125895   3.822   0.210   0.207 -1.2538  0.1819  0.5281
 1468TIP3    H225896   3.822   0.306   0.091  0.3274 -0.0351  0.3400
 1469TIP3   OH225897   2.879   1.836  13.898 -0.0303 -1.0626 -0.0109
 1469TIP3    H125898   2.955   1.889  13.919  1.6069 -3.0495 -0.7628
 1469TIP3    H225899   2.807   1.898  13.893  1.7958  1.0638 -0.7071
 1470TIP3   OH225900   0.837   3.503  15.199  0.1372 -0.3865 -0.2746
 1470TIP3    H125901   0.870   3.467  15.281 -0.8374  0.1707  0.3722
 1470TIP3    H225902   0.747   3.473  15.194 -0.3941  1.1300 -0.1959
 1471TIP3   OH225903   5.650   1.171   1.680 -0.0842 -0.4447  0.5105
 1471TIP3    H125904   5.686   1.165   1.768  1.4563 -0.8815 -0.1305
 1471TIP3    H225905   5.720   1.210   1.628 -0.2213 -2.0369 -0.9298
 1472TIP3   OH225906   5.751   4.652  16.383  0.0179 -0.2438  0.0962
 1472TIP3    H125907   5.747   4.590  16.456 -1.1785  1.1554  1.2570
 1472TIP3    H225908   5.824   4.621  16.329 -0.3898 -2.4942  0.7736
 1473TIP3   OH225909   5.194   2.887  13.945  0.0837  0.1516 -0.6128
 1473TIP3    H125910   5.266   2.842  13.901  0.3262 -0.1475  0.0824
 1473TIP3    H225911   5.236   2.944  14.009 -0.1136  3.0548 -2.9705
 1474TIP3   OH225912   6.236   5.040   5.991 -0.2687  0.0795  0.6018
 1474TIP3    H125913   6.193   5.012   5.910  1.1260 -0.9892  0.2097
 1474TIP3    H225914   6.283   4.963   6.022  0.6558  0.9650  1.4783
 1475TIP3   OH225915   0.264   4.023  13.941  0.6531  0.4318  0.4009
 1475TIP3    H125916   0.359   4.035  13.934  1.0282 -1.0978  2.3299
 1475TIP3    H225917   0.253   3.957  14.010 -1.8864  1.6002  1.1745
 1476TIP3   OH225918   1.393   1.112   4.997  0.5677 -0.2005  0.0778
 1476TIP3    H125919   1.364   1.103   4.906  1.6341  0.2357 -0.3160
 1476TIP3    H225920   1.482   1.076   4.997  0.0431 -1.5328  1.2608
 1477TIP3   OH225921   4.411   3.431  17.281 -0.0452 -0.2731 -0.7674
 1477TIP3    H125922   4.418   3.429  17.377 -2.2982 -1.5676 -0.5839
 1477TIP3    H225923   4.338   3.490  17.264 -1.1753 -1.8428 -1.5493
 1478TIP3   OH225924   2.235   0.669  11.851 -0.0903 -0.7848  0.3634
 1478TIP3    H125925   2.200   0.708  11.772  0.6215 -1.3398 -0.2332
 1478TIP3    H225926   2.317   0.628  11.824  0.2246 -0.8697  1.4097
 1479TIP3   OH225927   5.420   2.692  14.313  0.0411  0.7283 -0.2136
 1479TIP3    H125928   5.474   2.690  14.392 -0.8403 -1.2824  0.3762
 1479TIP3    H225929   5.344   2.746  14.338  0.7021  1.7238 -0.3330
 1480TIP3   OH225930   6.457   5.821   1.305  0.4589 -0.2098 -0.3568
 1480TIP3    H125931   6.423   5.795   1.390  1.1693  1.5660  0.4842
 1480TIP3    H225932   6.398   5.780   1.242 -1.1773 -0.0198  1.0190
 1481TIP3   OH225933   0.198   2.067  15.358 -0.0328  0.5742  0.6202
 1481TIP3    H125934   0.288   2.053  15.388  0.1175 -0.2688 -0.2228
 1481TIP3    H225935   0.169   1.982  15.325 -0.3719  1.3548 -1.1718
 1482TIP3   OH225936   5.619   0.187  15.494  0.2119 -0.0409  0.3931
 1482TIP3    H125937   5.630   0.178  15.399  0.5841  1.4721  0.2700
 1482TIP3    H225938   5.594   0.279  15.506  1.7880  0.2086  1.8806
 1483TIP3   OH225939   5.542   2.195   1.097 -0.2132  0.2244  0.0688
 1483TIP3    H125940   5.520   2.264   1.034  0.6886 -0.8490 -1.4560
 1483TIP3    H225941   5.458   2.155   1.118 -0.6051  1.0374  0.0691
 1484TIP3   OH225942   0.830   3.391   6.107  0.0128 -0.5309  0.3808
 1484TIP3    H125943   0.915   3.362   6.141  0.3600  0.5261  0.4442
 1484TIP3    H225944   0.777   3.311   6.103  0.6387 -1.0176  1.4447
 1485TIP3   OH225945   0.701   6.055   1.530 -0.0339  0.5746 -0.2255
 1485TIP3    H125946   0.643   5.984   1.558 -0.0807  1.0966  1.0058
 1485TIP3    H225947   0.646   6.109   1.473 -0.2294  0.0798 -0.5158
 1486TIP3   OH225948   4.848   3.526  14.777 -0.2074 -0.4590  0.0586
 1486TIP3    H125949   4.890   3.547  14.694  2.0792  0.5007  1.4137
 1486TIP3    H225950   4.862   3.432  14.788 -0.0616 -0.4885 -0.3675
 1487TIP3   OH225951   0.775   3.657   3.456  0.0432 -0.2491  0.1266
 1487TIP3    H125952   0.799   3.749   3.468  0.2324 -0.2008 -0.6047
 1487TIP3    H225953   0.812   3.633   3.371 -3.4291  0.1784 -1.6096
 1488TIP3   OH225954   6.731   5.698   6.881 -0.5289 -0.0719 -0.0929
 1488TIP3    H125955   6.659   5.641   6.854  0.4909 -2.5187  2.0998
 1488TIP3    H225956   6.693   5.753   6.950 -0.6396 -0.5118  0.2038
 1489TIP3   OH225957   3.547   0.913  10.639  0.3025  0.0644  0.3194
 1489TIP3    H125958   3.619   0.932  10.700 -1.0463 -1.5701  2.4847
 1489TIP3    H225959   3.581   0.939  10.554  3.2916 -0.1628  1.3690
 1490TIP3   OH225960   1.356   4.368   4.370 -0.0409 -0.5310  0.6236
 1490TIP3    H125961   1.332   4.371   4.277 -1.5972 -2.2711  0.9431
 1490TIP3    H225962   1.429   4.429   4.378 -2.4454  2.7621 -0.9909
 1491TIP3   OH225963   5.170   0.943  11.483 -0.0660  0.2829 -0.2853
 1491TIP3    H125964   5.083   0.905  11.488  0.1032 -0.3124 -1.6281
 1491TIP3    H225965   5.213   0.916  11.565 -1.0640  0.4004  0.2762
 1492TIP3   OH225966   0.336   4.184   0.820  0.2259 -0.3302  0.1568
 1492TIP3    H125967   0.371   4.159   0.735  0.1866  0.3671 -0.0636
 1492TIP3    H225968   0.275   4.113   0.843  1.9691 -1.6958  0.6680
 1493TIP3   OH225969   6.340   3.639  15.550  0.2480  0.0019 -0.0521
 1493TIP3    H125970   6.310   3.550  15.570  1.0034 -0.0582  0.8326
 1493TIP3    H225971   6.259   3.689  15.542 -0.1525 -0.5172  0.6317
 1494TIP3   OH225972   5.190   5.856  16.822 -0.0343  0.3031 -0.2258
 1494TIP3    H125973   5.269   5.882  16.871  0.7720  0.0125 -1.3592
 1494TIP3    H225974   5.223   5.805  16.748 -1.4246 -1.4456  0.3312
 1495TIP3   OH225975   2.265   0.806   0.291  0.0081  0.7373 -0.0028
 1495TIP3    H125976   2.220   0.882   0.254 -0.4012 -0.3342 -1.7981
 1495TIP3    H225977   2.317   0.773   0.218  1.6766  0.4126  1.3055
 1496TIP3   OH225978   0.080   4.311  16.766  0.2914  0.2588  0.3595
 1496TIP3    H125979   0.123   4.385  16.723 -0.2475  1.0645  1.2001
 1496TIP3    H225980  -0.011   4.317  16.738  0.3640 -0.4244 -0.0232
 1497TIP3   OH225981   4.892   1.837   1.025 -0.4622 -0.4869  0.4720
 1497TIP3    H125982   4.807   1.793   1.020 -0.6778  0.1322 -2.3224
 1497TIP3    H225983   4.875   1.925   0.991  1.2114 -0.2373  0.2463
 1498TIP3   OH225984   4.167   0.919   6.140 -0.3187  0.3643 -0.0217
 1498TIP3    H125985   4.140   0.924   6.048 -2.6145 -0.6914  0.5684
 1498TIP3    H225986   4.260   0.944   6.138 -0.3430  0.4726 -2.6015
 1499TIP3   OH225987   2.050   2.536   1.258  0.5672 -0.0503  0.0063
 1499TIP3    H125988   2.123   2.521   1.198  0.6092  0.9940 -0.2031
 1499TIP3    H225989   1.991   2.462   1.242  1.5661 -0.8902  0.1660
 1500TIP3   OH225990   3.094   6.589  13.501  0.1218  0.1908  0.1321
 1500TIP3    H125991   3.146   6.513  13.526  0.7364 -0.3418 -2.5996
 1500TIP3    H225992   3.158   6.654  13.475 -0.5166  0.1112 -1.6839
 1501TIP3   OH225993   4.743   5.303   5.193 -0.0834 -0.1393 -0.1485
 1501TIP3    H125994   4.755   5.208   5.200 -1.0679 -0.3380 -0.9748
 1501TIP3    H225995   4.762   5.337   5.280  2.5825 -0.8412 -0.4331
 1502TIP3   OH225996   6.248   2.408   3.978  0.1322 -0.5267 -0.4003
 1502TIP3    H125997   6.274   2.323   4.012 -0.0770  0.1427  1.4640
 1502TIP3    H225998   6.173   2.434   4.032 -0.1108  0.6292 -1.2684
 1503TIP3   OH225999   2.126   3.319   1.822  0.7483 -0.1090  0.2429
 1503TIP3    H126000   2.052   3.282   1.870  0.3446 -1.4239 -1.3761
 1503TIP3    H226001   2.087   3.375   1.755  1.2381 -0.2854 -0.1980
 1504TIP3   OH226002   0.380   1.542   4.121 -0.5023 -0.0840  0.7768
 1504TIP3    H126003   0.453   1.583   4.074  0.1406 -0.1951  1.6683
 1504TIP3    H226004   0.309   1.539   4.057 -0.2103  1.4379  0.3633
 1505TIP3   OH226005   0.568   3.587   0.288 -0.4915  0.3435  0.1178
 1505TIP3    H126006   0.476   3.573   0.309 -0.6446  1.1986  0.0636
 1505TIP3    H226007   0.566   3.630   0.202  0.0771 -2.2167 -1.2146
 1506TIP3   OH226008   4.258   5.160  16.744 -0.0193  0.0226 -0.2958
 1506TIP3    H126009   4.252   5.226  16.813  1.9813 -0.1414  0.0697
 1506TIP3    H226010   4.343   5.176  16.703 -0.9349 -0.2476 -2.3633
 1507TIP3   OH226011   4.432   2.723  12.697  0.5368 -0.2099  0.2111
 1507TIP3    H126012   4.397   2.812  12.709  0.1269 -0.2030 -0.9526
 1507TIP3    H226013   4.412   2.679  12.779  2.2126  1.2411  1.4493
 1508TIP3   OH226014   2.275   4.164   5.300 -0.4748  0.1010 -0.4445
 1508TIP3    H126015   2.305   4.191   5.386 -2.4570  0.4828  0.1398
 1508TIP3    H226016   2.319   4.080   5.285  0.3869  0.3471  0.6341
 1509TIP3   OH226017   0.226   1.209  13.610  0.0776 -0.2059 -0.3402
 1509TIP3    H126018   0.253   1.297  13.584 -1.4035  0.5546  0.6410
 1509TIP3    H226019   0.306   1.156  13.604  1.2291  1.4621  0.2205
 1510TIP3   OH226020   0.100   2.288  14.282  0.2420  0.0845  0.6842
 1510TIP3    H126021   0.142   2.363  14.326  0.0218  0.6710 -0.1015
 1510TIP3    H226022   0.155   2.272  14.205 -0.9660  0.8690 -0.3656
 1511TIP3   OH226023   2.610   0.453   5.037  0.9759 -0.0401 -0.4318
 1511TIP3    H126024   2.531   0.473   5.089  0.8816  0.9863 -0.9467
 1511TIP3    H226025   2.682   0.464   5.099  0.6404 -2.2570  0.3788
 1512TIP3   OH226026   6.475   2.100   0.506 -0.0866 -0.0091  0.0774
 1512TIP3    H126027   6.471   2.186   0.547 -0.7494  0.5012 -1.0317
 1512TIP3    H226028   6.457   2.117   0.413  2.3292 -0.9993 -0.6187
 1513TIP3   OH226029   0.823   0.070   2.713  0.0042 -0.7816 -0.4027
 1513TIP3    H126030   0.838   0.054   2.806 -0.4214 -1.1768 -0.3978
 1513TIP3    H226031   0.838   0.164   2.701  0.6915 -0.8492 -0.0634
 1514TIP3   OH226032   4.682   4.481  15.160  0.1617 -0.0870  0.0452
 1514TIP3    H126033   4.768   4.443  15.140 -0.4998 -0.4297 -2.3278
 1514TIP3    H226034   4.686   4.569  15.124 -0.6218 -0.2626 -0.4825
 1515TIP3   OH226035   2.824   5.731   1.886 -1.1418  0.0178  0.0673
 1515TIP3    H126036   2.872   5.784   1.823  0.0933 -0.8900  0.2260
 1515TIP3    H226037   2.830   5.779   1.968 -0.1120 -0.3079  0.1883
 1516TIP3   OH226038   3.302   4.557   5.538  0.0561 -0.2254 -0.8672
 1516TIP3    H126039   3.272   4.506   5.464  1.0843 -0.8038 -0.8901
 1516TIP3    H226040   3.295   4.648   5.510 -2.0500 -0.3306 -0.7216
 1517TIP3   OH226041   1.610   2.805   3.775 -0.2506 -0.3810 -0.2545
 1517TIP3    H126042   1.602   2.710   3.770  0.3811 -0.4363 -0.2785
 1517TIP3    H226043   1.677   2.827   3.710 -2.5780  0.4010 -2.4410
 1518TIP3   OH226044   1.135   3.072   4.436 -0.5361  0.3809 -0.2238
 1518TIP3    H126045   1.060   3.105   4.486 -1.1024 -1.8187  0.4301
 1518TIP3    H226046   1.116   2.979   4.423  2.7763 -0.5604  1.2177
 1519TIP3   OH226047   3.945   5.826  13.959 -0.0730 -0.3208  0.2781
 1519TIP3    H126048   4.035   5.836  13.928 -0.6422 -0.4644 -1.5084
 1519TIP3    H226049   3.929   5.903  14.013  1.2668 -0.5343  0.9940
 1520TIP3   OH226050   3.967   4.154  15.051 -0.5422  0.1230  0.0034
 1520TIP3    H126051   3.949   4.188  14.964 -0.9520  1.1282  0.4747
 1520TIP3    H226052   3.993   4.230  15.103  0.8839 -0.6460  0.4617
 1521TIP3   OH226053   4.613   5.246  13.144 -0.6586  0.5790  0.1907
 1521TIP3    H126054   4.585   5.162  13.108  0.6654  0.2184 -0.0091
 1521TIP3    H226055   4.640   5.226  13.234  0.4778  0.6204 -0.1304
 1522TIP3   OH226056   5.747   4.776  10.521  0.3281  0.7951 -0.3988
 1522TIP3    H126057   5.681   4.841  10.547 -0.0403  0.2454  0.0516
 1522TIP3    H226058   5.808   4.773  10.595  0.8399  1.2688 -0.7947
 1523TIP3   OH226059   4.095   0.521   3.510 -0.4712  0.4188 -0.4946
 1523TIP3    H126060   4.120   0.429   3.508 -1.3547  0.1646 -0.0719
 1523TIP3    H226061   4.125   0.556   3.426  2.4892  0.4510  0.5269
 1524TIP3   OH226062   2.723   4.769   0.130 -0.3030 -0.7361 -0.7675
 1524TIP3    H126063   2.682   4.694   0.172  0.4262 -0.8196 -0.2040
 1524TIP3    H226064   2.815   4.745   0.119  0.1324  0.4068  0.2339
 1525TIP3   OH226065   3.671   5.570  11.589  0.4982  0.0680  0.2266
 1525TIP3    H126066   3.656   5.663  11.607 -0.3735  0.3917 -1.9759
 1525TIP3    H226067   3.585   5.535  11.567  1.0948 -0.8464 -0.7211
 1526TIP3   OH226068   3.026   2.665  13.585  0.5289 -0.2351  0.1987
 1526TIP3    H126069   2.944   2.650  13.538  1.0712  0.0998 -0.8869
 1526TIP3    H226070   3.048   2.756  13.565  1.1235 -0.3069  0.5390
 1527TIP3   OH226071   0.045   0.440   1.966 -0.1331 -0.1911  0.0635
 1527TIP3    H126072  -0.044   0.412   1.945 -0.1071 -0.6609  0.5706
 1527TIP3    H226073   0.034   0.507   2.033 -0.1168 -0.0845 -0.0403
 1528TIP3   OH226074   4.237   2.737  17.269 -0.0425  0.0720 -0.1393
 1528TIP3    H126075   4.185   2.657  17.271 -1.2016  0.7854 -0.8232
 1528TIP3    H226076   4.258   2.750  17.176  0.9580  0.0480  0.0755
 1529TIP3   OH226077   4.189   5.280   6.617 -1.2923  0.0559 -0.1097
 1529TIP3    H126078   4.238   5.327   6.685 -0.0335 -0.3797 -0.7145
 1529TIP3    H226079   4.243   5.287   6.539 -1.2067 -2.1993 -0.2677
 1530TIP3   OH226080   5.476   6.148  15.509  0.0675  0.1959 -0.0810
 1530TIP3    H126081   5.510   6.177  15.593  0.1949 -0.8362  0.2378
 1530TIP3    H226082   5.538   6.184  15.445  1.8698 -1.7481  0.5044
 1531TIP3   OH226083   1.986   1.573   4.416 -0.2550  0.2211  0.0519
 1531TIP3    H126084   1.997   1.648   4.474 -0.4222  0.7549 -0.6024
 1531TIP3    H226085   1.932   1.512   4.467 -3.0862  2.0028 -0.6862
 1532TIP3   OH226086   0.776   2.277   0.674  0.1461 -1.2131  0.4239
 1532TIP3    H126087   0.871   2.271   0.681  0.4328  0.6706 -1.3552
 1532TIP3    H226088   0.754   2.230   0.594  0.0667  1.7665 -1.3893
 1533TIP3   OH226089   3.832   0.919  12.519  0.0816 -0.3929  1.3337
 1533TIP3    H126090   3.863   0.901  12.431 -0.6886 -0.4954  1.0779
 1533TIP3    H226091   3.866   1.006  12.540 -0.9886  0.2879  0.3429
 1534TIP3   OH226092   1.031   0.621  11.278 -0.5127  0.3164 -0.3514
 1534TIP3    H126093   1.012   0.714  11.289  1.3940  0.5430  1.4303
 1534TIP3    H226094   1.065   0.614  11.189 -0.4078  1.3620 -0.4007
 1535TIP3   OH226095   5.747   6.424   2.530 -0.2334 -0.2211 -0.0320
 1535TIP3    H126096   5.666   6.391   2.492  0.2561 -1.4550 -0.0367
 1535TIP3    H226097   5.796   6.345   2.554  1.3449  0.4960 -0.8328
 1536TIP3   OH226098   4.375   2.284  10.324  0.8266  0.2584  0.3354
 1536TIP3    H126099   4.423   2.202  10.313  1.5082  0.5421  1.1836
 1536TIP3    H226100   4.346   2.283  10.415 -0.3649  0.3178 -0.0300
 1537TIP3   OH226101   2.002   3.564  15.492  0.2486  0.3018  0.1151
 1537TIP3    H126102   1.969   3.607  15.571  2.3713  0.2196  1.0824
 1537TIP3    H226103   2.007   3.471  15.515 -1.2207 -0.0579 -0.8863
 1538TIP3   OH226104   2.480   6.093  15.881 -0.1146  0.3412  0.2338
 1538TIP3    H126105   2.439   6.017  15.922  3.8965 -1.8032  0.4746
 1538TIP3    H226106   2.492   6.155  15.953 -0.2646 -0.1724  0.7020
 1539TIP3   OH226107   1.975   0.517  12.551 -0.6051  0.1375  0.1424
 1539TIP3    H126108   1.932   0.594  12.515 -0.4638 -0.4004 -1.2051
 1539TIP3    H226109   2.043   0.495  12.488 -0.7540 -1.1937  0.4200
 1540TIP3   OH226110   6.192   4.771  11.629  0.3279  0.4922  0.6435
 1540TIP3    H126111   6.256   4.786  11.560  0.9704  1.0182  1.3608
 1540TIP3    H226112   6.146   4.854  11.638 -0.4190  0.1383  0.1785
 1541TIP3   OH226113   1.806   6.545   5.199 -0.6250  0.4897  0.4223
 1541TIP3    H126114   1.723   6.501   5.220 -0.6289  0.6312  0.7003
 1541TIP3    H226115   1.789   6.638   5.216 -0.3848  0.5098  0.5609
 1542TIP3   OH226116   2.671   1.729   2.895  0.2807 -0.0846 -0.2059
 1542TIP3    H126117   2.617   1.656   2.926 -2.0788  1.1479 -1.2146
 1542TIP3    H226118   2.675   1.716   2.800  2.1022 -0.3569 -0.1031
 1543TIP3   OH226119   1.361   4.479   1.820  0.2534  0.1839  0.3749
 1543TIP3    H126120   1.410   4.431   1.887  0.7861  0.0115 -0.1259
 1543TIP3    H226121   1.409   4.460   1.738 -2.0486 -1.9761 -0.5430
 1544TIP3   OH226122   6.764   1.124  12.521  0.3285 -0.3068  0.4601
 1544TIP3    H126123   6.821   1.189  12.481  0.8377  1.1317  3.3899
 1544TIP3    H226124   6.677   1.164  12.523  0.4692 -0.0207  1.4790
 1545TIP3   OH226125   6.467   0.539  15.378  0.1304 -0.3588  0.0081
 1545TIP3    H126126   6.532   0.538  15.307 -0.4442 -1.0926 -0.5170
 1545TIP3    H226127   6.498   0.607  15.438  0.5446  0.3778 -1.0200
 1546TIP3   OH226128   3.275   0.506   0.191 -0.5880  0.1807  0.3638
 1546TIP3    H126129   3.355   0.499   0.139 -1.3598  3.1164 -1.3310
 1546TIP3    H226130   3.224   0.427   0.168  0.6702 -0.3801 -0.5275
 1547TIP3   OH226131   4.627   0.279  17.252  0.3007  0.1009  0.1916
 1547TIP3    H126132   4.548   0.281  17.198  0.0153  1.5002  0.6176
 1547TIP3    H226133   4.599   0.317  17.336  1.5533  1.1980  0.1445
 1548TIP3   OH226134   5.639   0.993  17.084 -0.7340 -0.1611  0.0645
 1548TIP3    H126135   5.693   0.914  17.072  0.1502  0.0645  2.2286
 1548TIP3    H226136   5.575   0.968  17.150 -1.9662  0.2328 -0.9673
 1549TIP3   OH226137   2.848   6.027   2.600 -0.3171 -0.3914 -0.1138
 1549TIP3    H126138   2.797   6.107   2.589  1.5488  0.9515  0.6453
 1549TIP3    H226139   2.890   6.013   2.516  0.0053 -0.0849 -0.0082
 1550TIP3   OH226140   4.820   5.021  16.068 -0.2474 -0.2384 -0.6033
 1550TIP3    H126141   4.806   4.996  15.977  0.3300 -1.6288 -0.3350
 1550TIP3    H226142   4.886   5.090  16.064  0.0367 -0.5419 -1.2266
 1551TIP3   OH226143   3.824   1.256  13.219 -0.2711 -0.2487  0.4009
 1551TIP3    H126144   3.772   1.199  13.163 -2.1310  1.2740  0.5367
 1551TIP3    H226145   3.832   1.209  13.302 -0.6861 -0.8706  0.0886
 1552TIP3   OH226146   3.902   0.482  15.254  0.5104  0.2010 -1.0191
 1552TIP3    H126147   3.978   0.501  15.198  1.7199  0.9845  0.8260
 1552TIP3    H226148   3.889   0.563  15.303 -3.6344  1.2511 -3.6294
 1553TIP3   OH226149   2.134   3.205   2.796 -0.2476  0.3635 -1.0489
 1553TIP3    H126150   2.123   3.298   2.774  0.8298  0.5105 -0.9912
 1553TIP3    H226151   2.053   3.182   2.842 -0.1130  1.5391 -0.1862
 1554TIP3   OH226152   0.393   0.578  16.048 -0.2288 -0.1301 -0.2251
 1554TIP3    H126153   0.488   0.569  16.036 -0.2293  0.6421 -0.8853
 1554TIP3    H226154   0.356   0.501  16.004  0.1483 -1.0127  1.0023
 1555TIP3   OH226155   1.589   2.137   3.592 -0.0778  0.0417  0.2861
 1555TIP3    H126156   1.666   2.082   3.573  0.1395  0.4404 -0.0158
 1555TIP3    H226157   1.515   2.089   3.555 -0.1189 -0.8471  1.4995
 1556TIP3   OH226158   6.451   1.843  11.786 -0.2415 -0.4276 -0.0956
 1556TIP3    H126159   6.433   1.920  11.732 -0.2694 -1.5133 -1.6704
 1556TIP3    H226160   6.547   1.844  11.797 -0.5136  1.7378  2.8495
 1557TIP3   OH226161   5.421   1.983  11.270 -0.2557 -0.0331  0.1585
 1557TIP3    H126162   5.480   2.010  11.200 -0.0622 -2.1838 -0.5504
 1557TIP3    H226163   5.361   2.057  11.281 -0.7873  0.0465 -2.8249
 1558TIP3   OH226164   6.051   6.429   0.536  0.1174  0.2465  0.0876
 1558TIP3    H126165   5.961   6.450   0.562 -0.1350  1.6636 -1.8514
 1558TIP3    H226166   6.045   6.341   0.499 -0.6330  0.6279 -0.7296
 1559TIP3   OH226167   3.001   1.087   0.459 -0.8242  0.1860 -0.2783
 1559TIP3    H126168   3.069   1.153   0.472 -1.1537  0.8157 -1.6692
 1559TIP3    H226169   3.002   1.036   0.540  0.4221  0.9857  0.2332
 1560TIP3   OH226170   4.374   5.256   2.771 -0.1034  0.0236  0.0480
 1560TIP3    H126171   4.326   5.328   2.813 -1.1203 -0.1016 -0.8901
 1560TIP3    H226172   4.399   5.290   2.685  0.5726 -0.2852  0.1191
 1561TIP3   OH226173   6.186   3.298  15.107  0.3895 -0.2901 -0.4297
 1561TIP3    H126174   6.097   3.265  15.104 -0.2481  1.3753 -0.4630
 1561TIP3    H226175   6.233   3.248  15.040 -0.5653 -1.0024 -0.5766
 1562TIP3   OH226176   6.669   0.878  16.434 -0.3046 -0.2507 -0.3704
 1562TIP3    H126177   6.639   0.835  16.354  0.0632  1.1223 -1.2684
 1562TIP3    H226178   6.595   0.869  16.495 -0.6571 -1.1521 -0.9173
 1563TIP3   OH226179   2.422   0.153  11.459 -0.2810 -0.0794 -0.0149
 1563TIP3    H126180   2.394   0.203  11.382 -0.0128 -2.6087 -1.8248
 1563TIP3    H226181   2.506   0.192  11.483 -0.5964  1.0555 -0.6700
 1564TIP3   OH226182   2.195   0.182  11.664  0.0979  0.3418  0.3997
 1564TIP3    H126183   2.120   0.165  11.606  1.3416  0.7944 -1.3832
 1564TIP3    H226184   2.271   0.174  11.607  1.4185 -0.0488  2.1875
 1565TIP3   OH226185   4.835   5.129  10.571 -0.1616  0.0009 -0.2319
 1565TIP3    H126186   4.903   5.190  10.543  0.2215 -0.7081 -0.8477
 1565TIP3    H226187   4.760   5.185  10.592  0.3260  0.7152 -0.3923
 1566TIP3   OH226188   0.101   6.639   3.321  0.0782 -0.6830 -0.2995
 1566TIP3    H126189   0.169   6.673   3.263 -0.0252 -0.9979 -0.6098
 1566TIP3    H226190   0.120   6.677   3.406  0.3325 -0.3508 -0.5057
 1567TIP3   OH226191   4.276   5.477  15.030 -0.3221  0.1847 -0.3162
 1567TIP3    H126192   4.301   5.560  15.069 -1.5320  1.0700 -1.3701
 1567TIP3    H226193   4.357   5.443  14.992  0.6205 -0.1500  1.9125
 1568TIP3   OH226194   3.926   2.042  16.850 -0.0754 -0.1919  0.9114
 1568TIP3    H126195   3.913   1.949  16.864 -1.1757 -0.2659 -0.4633
 1568TIP3    H226196   3.863   2.085  16.907 -2.2143 -0.4080 -1.2034
 1569TIP3   OH226197   3.629   4.335  12.451 -0.4348  0.3340  0.0348
 1569TIP3    H126198   3.704   4.391  12.470  0.6813 -1.6577  1.6605
 1569TIP3    H226199   3.573   4.342  12.528 -1.1199  0.5507 -0.4805
 1570TIP3   OH226200   5.484   2.093  12.925 -0.0234 -0.0585 -0.4790
 1570TIP3    H126201   5.500   2.014  12.976 -0.8126  1.2047  1.7924
 1570TIP3    H226202   5.511   2.070  12.836  1.7688 -2.1694  0.5736
 1571TIP3   OH226203   1.512   4.849   3.918 -0.7418  0.5802 -0.1429
 1571TIP3    H126204   1.569   4.893   3.854 -0.0162 -1.4292 -0.9284
 1571TIP3    H226205   1.463   4.785   3.866 -4.0051  2.4764  0.4565
 1572TIP3   OH226206   2.928   4.141   5.646  0.0650 -0.4915 -0.1682
 1572TIP3    H126207   2.928   4.233   5.620 -0.1431  0.0319  1.6104
 1572TIP3    H226208   3.020   4.122   5.666  0.3337 -1.0851 -1.8816
 1573TIP3   OH226209   3.761   2.530  17.155  0.1284  0.1689 -0.3693
 1573TIP3    H126210   3.700   2.599  17.180  1.5030  1.3744 -0.2760
 1573TIP3    H226211   3.753   2.525  17.059 -0.8986 -0.4473 -0.2657
 1574TIP3   OH226212   5.077   5.038   1.491 -0.4482  0.2698 -0.3029
 1574TIP3    H126213   5.126   5.118   1.510 -0.6465  0.0030  1.4307
 1574TIP3    H226214   5.109   4.974   1.555 -2.7830 -0.0222  0.6214
 1575TIP3   OH226215   6.771   5.669  15.077  0.1858 -0.2950  0.1119
 1575TIP3    H126216   6.708   5.634  15.140 -0.6490  0.2447 -0.4120
 1575TIP3    H226217   6.752   5.623  14.996 -1.4522  1.8917 -0.7939
 1576TIP3   OH226218   2.245   2.566   0.468  0.5784  0.3654 -0.0881
 1576TIP3    H126219   2.222   2.557   0.375  2.0130 -2.0715 -0.2391
 1576TIP3    H226220   2.340   2.579   0.468  0.6827 -0.3066  1.0534
 1577TIP3   OH226221   1.962   2.649   2.838  0.0454  0.5577 -0.3353
 1577TIP3    H126222   1.926   2.724   2.886 -3.9923 -1.2703 -0.2974
 1577TIP3    H226223   1.911   2.646   2.757 -1.4949 -3.4306  0.6906
 1578TIP3   OH226224   2.955   3.432  14.231 -0.5445  0.2836 -0.1415
 1578TIP3    H126225   2.992   3.418  14.144 -1.0276  2.0161 -0.6399
 1578TIP3    H226226   3.028   3.468  14.282 -0.1984 -0.9460  0.2413
 1579TIP3   OH226227   3.995   2.846  10.545  0.2590  1.0201  0.0311
 1579TIP3    H126228   4.083   2.874  10.569  0.6370  0.0816 -0.2359
 1579TIP3    H226229   3.944   2.928  10.541  0.5078  1.3291  2.5705
 1580TIP3   OH226230   4.058   3.747   1.138 -0.1121  0.3418  0.3887
 1580TIP3    H126231   4.135   3.800   1.117  0.5260 -0.7497 -0.0797
 1580TIP3    H226232   4.042   3.695   1.059 -0.0182 -1.0090  1.2451
 1581TIP3   OH226233   6.646   2.086  14.699 -0.3521 -0.0450 -0.3650
 1581TIP3    H126234   6.646   2.110  14.792 -1.2563 -1.1126 -0.0836
 1581TIP3    H226235   6.678   2.164  14.654 -0.3879  0.6467  0.7963
 1582TIP3   OH226236   0.381   2.629  12.950  0.3515 -0.4007  0.4250
 1582TIP3    H126237   0.439   2.648  12.877 -0.0124 -1.0403 -0.0422
 1582TIP3    H226238   0.317   2.567  12.914 -0.2792 -0.1355  1.0808
 1583TIP3   OH226239   2.864   5.466   2.242  1.0733  0.4298 -0.0156
 1583TIP3    H126240   2.944   5.419   2.218  1.2335  0.1548  1.0140
 1583TIP3    H226241   2.842   5.432   2.329  0.1418  0.9051 -0.0594
 1584TIP3   OH226242   0.302   5.347  14.992 -0.2344  0.3070 -0.5229
 1584TIP3    H126243   0.397   5.363  14.985 -0.2172 -0.5442 -3.0113
 1584TIP3    H226244   0.294   5.252  14.999 -0.8967  0.3580 -0.5706
 1585TIP3   OH226245   2.590   5.577  15.649  0.5072 -0.3856 -0.6799
 1585TIP3    H126246   2.528   5.512  15.684  0.2233 -0.2028 -0.8444
 1585TIP3    H226247   2.594   5.644  15.717  0.2612 -0.2287 -0.8190
 1586TIP3   OH226248   5.284   1.290   5.057 -0.3225  0.8454 -0.1992
 1586TIP3    H126249   5.314   1.199   5.050 -2.6795  0.0053  0.2756
 1586TIP3    H226250   5.335   1.326   5.129 -0.5607 -0.6095  0.7145
 1587TIP3   OH226251   4.521   4.733  15.705 -0.2396  0.2429  0.2013
 1587TIP3    H126252   4.587   4.712  15.638  0.6103 -0.6725  1.3023
 1587TIP3    H226253   4.494   4.648  15.739  0.3284  0.7460  1.9669
 1588TIP3   OH226254   4.604   3.289  13.328 -0.8618  0.0486 -0.6567
 1588TIP3    H126255   4.628   3.280  13.235 -0.3457  1.9141 -0.7179
 1588TIP3    H226256   4.664   3.229  13.373  0.8950  1.2932 -1.2613
 1589TIP3   OH226257   3.155   4.182  13.311 -0.0366 -0.3372  0.6647
 1589TIP3    H126258   3.145   4.277  13.313  0.7980 -0.2404  0.6210
 1589TIP3    H226259   3.066   4.148  13.317 -0.3571  0.4496  0.4223
 1590TIP3   OH226260   4.424   4.495  16.799 -0.3330  0.0425 -0.1323
 1590TIP3    H126261   4.461   4.550  16.729  1.2423 -0.8255 -0.0012
 1590TIP3    H226262   4.471   4.412  16.792  0.2688  0.1290  2.2962
 1591TIP3   OH226263   4.787   0.631   1.719 -0.5084  0.1334 -0.3841
 1591TIP3    H126264   4.853   0.689   1.682 -1.0733  2.0573  1.5419
 1591TIP3    H226265   4.755   0.580   1.644  1.6936  0.5921 -1.6736
 1592TIP3   OH226266   2.930   2.934  12.905  0.0454  0.3322  0.4653
 1592TIP3    H126267   2.945   2.859  12.963  1.2167  1.4596  1.6666
 1592TIP3    H226268   2.967   3.008  12.952  0.8569  1.3193 -1.6780
 1593TIP3   OH226269   2.295   0.977   2.983 -0.0000  0.1187 -0.3212
 1593TIP3    H126270   2.276   1.004   3.073  1.5867 -1.6476  0.5672
 1593TIP3    H226271   2.248   1.040   2.929 -0.7362  1.3836  1.7419
 1594TIP3   OH226272   5.422   2.741  15.357  0.2121  0.2633  0.0259
 1594TIP3    H126273   5.359   2.777  15.295  0.6548  0.2670 -0.4332
 1594TIP3    H226274   5.506   2.778  15.329  0.3693  0.5016  0.8213
 1595TIP3   OH226275   6.564   0.463   0.400  0.0386  0.0731  0.5019
 1595TIP3    H126276   6.520   0.387   0.439 -1.5825  0.9789  0.4746
 1595TIP3    H226277   6.628   0.490   0.466  0.5104 -1.1964  0.5848
 1596TIP3   OH226278   2.719   2.998   4.851  0.2448  0.2675 -0.5715
 1596TIP3    H126279   2.811   2.997   4.827  0.0406 -0.7791 -1.3282
 1596TIP3    H226280   2.699   2.907   4.874 -0.3789  0.6491  0.4337
 1597TIP3   OH226281   2.938   3.918  14.717 -0.2633 -0.4383 -0.3750
 1597TIP3    H126282   2.885   3.974  14.774 -1.2211 -1.9537  0.2464
 1597TIP3    H226283   2.976   3.852  14.775  0.9531 -0.3748 -1.0801
 1598TIP3   OH226284   6.358   3.240   2.477 -0.1046 -0.2075  0.5098
 1598TIP3    H126285   6.419   3.168   2.495  0.2823  0.0073  0.0776
 1598TIP3    H226286   6.380   3.268   2.388  0.5542  1.2258  1.1106
 1599TIP3   OH226287   5.273   0.682  12.644  0.4345  0.1219  0.8802
 1599TIP3    H126288   5.329   0.640  12.710  0.7266 -0.0647  0.5155
 1599TIP3    H226289   5.184   0.675  12.680  0.6717  0.6422  1.5726
 1600TIP3   OH226290   0.039   3.233  15.805 -0.1135  0.3987 -0.1169
 1600TIP3    H126291  -0.005   3.289  15.870  0.3644 -0.4962  1.0109
 1600TIP3    H226292  -0.032   3.181  15.767 -0.1562 -0.6274  1.2848
 1601TIP3   OH226293   0.339   2.393   0.388  0.1018  0.2896  0.1776
 1601TIP3    H126294   0.394   2.421   0.461 -1.0208 -0.0938  1.1785
 1601TIP3    H226295   0.382   2.430   0.310  0.0187  2.6991  1.2222
 1602TIP3   OH226296   5.275   4.711   5.629 -0.5568 -0.2080 -0.5305
 1602TIP3    H126297   5.214   4.699   5.702  1.0567  1.9333  1.2169
 1602TIP3    H226298   5.220   4.736   5.556 -1.8696  0.8962  0.8090
 1603TIP3   OH226299   3.488   3.432   0.042 -0.3811  0.0601 -0.2847
 1603TIP3    H126300   3.419   3.370   0.020  1.6067 -2.0537 -0.6809
 1603TIP3    H226301   3.522   3.402   0.127 -0.2952  1.4098  0.1732
 1604TIP3   OH226302   5.216   3.871   3.888  0.1530 -0.9646  0.8566
 1604TIP3    H126303   5.300   3.914   3.904  0.6511 -1.9357  0.8830
 1604TIP3    H226304   5.182   3.913   3.809  0.6119 -0.4916  0.9119
 1605TIP3   OH226305   3.213   4.855   0.175  0.3864 -0.1303  0.1020
 1605TIP3    H126306   3.296   4.889   0.142 -0.0311 -0.3927 -1.2401
 1605TIP3    H226307   3.175   4.929   0.222  1.7374 -0.2448  1.4273
 1606TIP3   OH226308   6.681   2.844   3.648  0.4458  0.1053  0.6832
 1606TIP3    H126309   6.617   2.812   3.711  0.9977 -2.4415 -0.0035
 1606TIP3    H226310   6.762   2.800   3.671  0.8915 -0.0815 -1.1776
 1607TIP3   OH226311   4.994   6.544  14.841  0.2612  0.0687 -0.4574
 1607TIP3    H126312   4.903   6.555  14.813 -0.1174 -0.6059  0.4579
 1607TIP3    H226313   5.009   6.449  14.835  0.8085  0.1477 -0.3291
 1608TIP3   OH226314   0.926   0.071  15.670  0.4104  0.2816  0.6627
 1608TIP3    H126315   0.937   0.022  15.752  1.3140  1.3189  1.1691
 1608TIP3    H226316   0.991   0.034  15.611  0.1528 -0.0717  0.6002
 1609TIP3   OH226317   5.668   2.992  15.703 -0.0996  0.1187 -0.5508
 1609TIP3    H126318   5.586   2.948  15.679 -0.6479  1.2660 -0.7953
 1609TIP3    H226319   5.641   3.065  15.758  0.8507 -0.1154  0.2377
 1610TIP3   OH226320   4.050   2.033   3.381  0.2135  0.2535 -0.2033
 1610TIP3    H126321   4.021   1.978   3.454  0.8797  0.2434  0.0532
 1610TIP3    H226322   4.082   2.113   3.423 -1.0234  0.9629 -0.5927
 1611TIP3   OH226323   3.235   0.634  16.352  0.1688  0.2186  0.2992
 1611TIP3    H126324   3.292   0.558  16.342  1.1423  0.8225  1.1449
 1611TIP3    H226325   3.294   0.705  16.379 -1.2158  0.4316  2.8990
 1612TIP3   OH226326   2.125   6.704   1.672 -0.0649  0.3653  0.3427
 1612TIP3    H126327   2.175   6.759   1.611 -0.1068 -0.1128 -0.1197
 1612TIP3    H226328   2.066   6.653   1.617 -0.1609 -0.0160  0.7894
 1613TIP3   OH226329   4.659   2.441   3.729 -0.5050 -0.2627 -0.3620
 1613TIP3    H126330   4.573   2.484   3.729  0.0975  0.9505 -1.9858
 1613TIP3    H226331   4.721   2.511   3.746  0.1421 -1.2502  1.5026
 1614TIP3   OH226332   1.014   3.165  15.155  0.6089  0.0500 -0.1577
 1614TIP3    H126333   1.024   3.213  15.237  1.0641 -0.9043  0.3604
 1614TIP3    H226334   1.103   3.151  15.124  0.4468  0.2013 -0.6837
 1615TIP3   OH226335   0.454   0.357   0.657 -0.6208 -0.3250 -0.2096
 1615TIP3    H126336   0.452   0.301   0.734 -2.5773 -1.1386 -0.8358
 1615TIP3    H226337   0.367   0.396   0.653 -0.3905  0.0682 -1.7425
 1616TIP3   OH226338   4.668   2.885  12.803  0.2588  0.8890 -0.2702
 1616TIP3    H126339   4.754   2.925  12.814  0.1789  1.6374 -2.1011
 1616TIP3    H226340   4.609   2.940  12.856  0.9653  0.0206  1.4674
 1617TIP3   OH226341   6.814   4.102  11.287 -0.2996 -0.6335 -0.4325
 1617TIP3    H126342   6.848   4.127  11.201  0.6127  0.2580  0.1779
 1617TIP3    H226343   6.750   4.032  11.268  0.6848 -1.2037 -1.7245
 1618TIP3   OH226344   3.314   4.946  12.783 -0.2955 -0.1117  0.0056
 1618TIP3    H126345   3.271   4.898  12.854 -2.3303  1.1365 -0.3696
 1618TIP3    H226346   3.382   4.997  12.827 -2.1022  1.3275  1.1934
 1619TIP3   OH226347   6.217   2.502  11.724 -0.1576 -0.1880  0.1589
 1619TIP3    H126348   6.285   2.452  11.770  0.4476  0.6417  0.1704
 1619TIP3    H226349   6.135   2.463  11.754  0.2542 -0.0859  1.4345
 1620TIP3   OH226350   0.684   0.629   2.631 -0.4758 -0.2561 -0.0387
 1620TIP3    H126351   0.750   0.586   2.577 -1.2610 -0.3765 -0.9141
 1620TIP3    H226352   0.734   0.677   2.697  0.6156  2.0716 -2.4823
 1621TIP3   OH226353   0.947   4.958  11.101 -0.0545  0.2792  0.7340
 1621TIP3    H126354   0.865   4.919  11.130 -1.1831  2.2240  0.3010
 1621TIP3    H226355   1.000   4.885  11.070 -2.2636 -0.8393 -0.4624
 1622TIP3   OH226356   1.630   0.315   4.766  0.4936 -0.0575  0.2707
 1622TIP3    H126357   1.545   0.305   4.810  1.4111  0.5016  2.2127
 1622TIP3    H226358   1.610   0.366   4.687 -0.9823  0.0523  0.7058
 1623TIP3   OH226359   0.873   3.096   4.907  0.2092  0.3067  0.2339
 1623TIP3    H126360   0.936   3.155   4.950  1.4056  0.2973 -1.4720
 1623TIP3    H226361   0.794   3.103   4.960  1.9394 -0.4591  3.0309
 1624TIP3   OH226362   4.919   0.375  14.433  0.1207  0.4860  0.2616
 1624TIP3    H126363   4.934   0.417  14.518 -0.8353  0.3271  0.5056
 1624TIP3    H226364   4.912   0.282  14.452  2.2471  0.1745 -0.2850
 1625TIP3   OH226365   3.660   3.107  14.601  0.1941 -0.3882 -0.2218
 1625TIP3    H126366   3.667   3.201  14.617 -0.5218  0.0684 -2.4682
 1625TIP3    H226367   3.571   3.095  14.567  0.8832 -1.6376 -1.6060
 1626TIP3   OH226368   1.659   4.454  15.446  0.3005 -0.0189 -0.1478
 1626TIP3    H126369   1.711   4.524  15.485 -1.0912  0.5117  0.7923
 1626TIP3    H226370   1.584   4.444  15.505  0.3663 -2.1391 -0.4045
 1627TIP3   OH226371   2.972   6.793  12.869 -0.0225  0.3308  0.5046
 1627TIP3    H126372   2.899   6.732  12.876  0.0089 -0.1123 -2.5004
 1627TIP3    H226373   2.955   6.858  12.937 -1.0539 -1.9428  2.5059
 1628TIP3   OH226374   1.549   1.853   3.373 -0.0858 -0.5815  0.0204
 1628TIP3    H126375   1.486   1.827   3.306 -0.0585  3.3044 -1.6461
 1628TIP3    H226376   1.632   1.862   3.327  0.3772  0.2417  0.9945
 1629TIP3   OH226377   5.010   4.527  12.412  0.3534 -0.0402 -0.0934
 1629TIP3    H126378   4.916   4.517  12.425 -0.2029  2.3790 -1.7493
 1629TIP3    H226379   5.025   4.504  12.320  0.9213  2.0785 -0.5635
 1630TIP3   OH226380   0.089   1.530  12.976 -0.1705 -0.3750  0.0694
 1630TIP3    H126381   0.113   1.557  13.064  0.5440  2.7919 -1.0303
 1630TIP3    H226382   0.005   1.574  12.959  1.4809  2.1162 -2.1099
 1631TIP3   OH226383   6.054   0.892  16.683  0.0511 -0.2106 -0.5204
 1631TIP3    H126384   6.063   0.797  16.677  0.8436 -0.1501 -0.3061
 1631TIP3    H226385   5.970   0.910  16.641  0.1443 -0.9538 -1.0410
 1632TIP3   OH226386   1.593   1.957  12.077  0.5119  0.0384 -0.2654
 1632TIP3    H126387   1.563   2.040  12.042  0.7575  0.7555  1.1973
 1632TIP3    H226388   1.552   1.950  12.162  0.9776 -1.0534 -0.1175
 1633TIP3   OH226389   1.498   1.759   3.677 -0.2599  0.0223  0.5302
 1633TIP3    H126390   1.566   1.731   3.738 -0.3885 -1.5325 -0.0191
 1633TIP3    H226391   1.540   1.756   3.591 -0.9598 -0.8331  0.2021
 1634TIP3   OH226392   1.828   3.332   4.087  0.2316  0.6811 -0.6435
 1634TIP3    H126393   1.805   3.268   4.019 -0.0473  0.5713 -0.4463
 1634TIP3    H226394   1.747   3.343   4.138  0.2654  1.2139 -0.6955
 1635TIP3   OH226395   0.103   3.845   1.210 -0.3561  0.2772  0.5932
 1635TIP3    H126396   0.123   3.938   1.223 -1.3427  0.6663 -0.5871
 1635TIP3    H226397   0.047   3.843   1.133 -0.0657 -1.3437  0.4099
 1636TIP3   OH226398   5.161   0.011   5.733 -0.0785 -0.0818  0.1009
 1636TIP3    H126399   5.166  -0.076   5.772 -5.7108 -0.6832 -0.0896
 1636TIP3    H226400   5.146   0.071   5.806 -0.0347  0.2456 -0.1527
 1637TIP3   OH226401   0.044   1.249  17.243  0.4122  0.0461 -0.5108
 1637TIP3    H126402   0.093   1.201  17.309  2.5249  0.8081 -1.5001
 1637TIP3    H226403   0.029   1.336  17.281 -0.8779 -0.4256  0.0985
 1638TIP3   OH226404   5.725   5.369  13.852 -0.5053 -0.1703 -0.3906
 1638TIP3    H126405   5.650   5.392  13.907 -0.0757 -3.3259  1.6347
 1638TIP3    H226406   5.701   5.286  13.811  1.2097 -0.3976 -0.9985
 1639TIP3   OH226407   1.747   0.577   0.943 -0.3537  0.2170  0.2569
 1639TIP3    H126408   1.714   0.551   1.029 -1.0274  1.2961  0.3433
 1639TIP3    H226409   1.692   0.651   0.918  2.3104  2.4594  0.6476
 1640TIP3   OH226410   1.900   5.184   5.064 -0.5588 -0.2148  0.4277
 1640TIP3    H126411   1.851   5.177   5.146  0.9294  0.7419  1.4109
 1640TIP3    H226412   1.961   5.256   5.078 -0.1870 -0.1292 -1.4812
 1641TIP3   OH226413   5.109   3.379  14.351 -0.2389  0.2160  0.4456
 1641TIP3    H126414   5.102   3.470  14.324 -1.0100 -0.1657 -0.6783
 1641TIP3    H226415   5.046   3.371  14.423  1.8018  1.2287  2.3703
 1642TIP3   OH226416   2.673   2.177  10.472  0.9856 -0.0619  0.1287
 1642TIP3    H126417   2.708   2.090  10.493  2.2631  0.8215  1.7155
 1642TIP3    H226418   2.729   2.208  10.401  1.4651  0.0694  0.5630
 1643TIP3   OH226419   1.008   2.449  13.049  0.5373  0.6570  0.0574
 1643TIP3    H126420   0.978   2.358  13.047  0.2356  0.6882  2.2544
 1643TIP3    H226421   0.988   2.482  12.961  0.5101 -1.3377 -0.7213
 1644TIP3   OH226422   4.990   3.229  16.065 -0.1620  0.0334 -0.2439
 1644TIP3    H126423   4.977   3.135  16.062 -0.2553  0.0603 -0.6867
 1644TIP3    H226424   5.023   3.246  16.154 -0.0920 -0.4183 -0.1851
 1645TIP3   OH226425   4.601   0.993   5.472 -0.2513  0.4098 -0.1479
 1645TIP3    H126426   4.560   0.925   5.419  0.9245 -0.4242 -0.0020
 1645TIP3    H226427   4.678   1.020   5.422 -0.0267  0.7545  0.3784
 1646TIP3   OH226428   3.362   1.560  17.151  0.0350  0.0569 -0.5016
 1646TIP3    H126429   3.360   1.556  17.055  0.1123 -0.1174 -0.4959
 1646TIP3    H226430   3.405   1.479  17.178  2.1928  1.1855 -0.4047
 1647TIP3   OH226431   6.015   6.229  12.153  0.3957  0.0403  0.2150
 1647TIP3    H126432   6.001   6.137  12.128  0.6649  0.2114 -0.5742
 1647TIP3    H226433   5.976   6.236  12.240 -0.1103 -0.6897  0.0521
 1648TIP3   OH226434   2.315   4.394  15.780  0.1256  0.4790  0.1259
 1648TIP3    H126435   2.401   4.352  15.770  0.4386  1.2273 -0.3385
 1648TIP3    H226436   2.254   4.320  15.786  0.4667 -0.0779 -2.4273
 1649TIP3   OH226437   0.477   0.345  17.133 -0.2934 -0.1945  0.6995
 1649TIP3    H126438   0.520   0.335  17.048 -1.0571 -2.6750  0.5619
 1649TIP3    H226439   0.548   0.346  17.197  0.2766  1.5384  0.0429
 1650TIP3   OH226440   5.781   0.921  13.100 -0.0703 -0.0281  0.2768
 1650TIP3    H126441   5.712   0.896  13.038 -1.2003  2.2396  0.5768
 1650TIP3    H226442   5.789   0.844  13.158 -1.0483 -1.0267 -0.8825
 1651TIP3   OH226443   5.931   3.145  16.065  0.3662 -0.3838 -0.2110
 1651TIP3    H126444   5.945   3.092  15.987 -1.8038 -0.3363 -0.6825
 1651TIP3    H226445   5.848   3.190  16.048  0.9471  1.2844  1.2182
 1652TIP3   OH226446   5.496   5.006   3.602  0.4653  0.8818  0.2457
 1652TIP3    H126447   5.561   4.981   3.535  1.4132  0.0941  1.4409
 1652TIP3    H226448   5.546   5.009   3.683 -1.3694 -1.6019  1.5288
 1653TIP3   OH226449   3.036   2.051  15.424 -0.3215  0.2228  0.1106
 1653TIP3    H126450   3.082   2.041  15.507 -1.0005 -0.3678  0.4281
 1653TIP3    H226451   3.075   1.986  15.367 -0.2556  0.2294  0.1482
 1654TIP3   OH226452   1.482   6.254  15.638 -0.1613 -0.0805  0.2695
 1654TIP3    H126453   1.498   6.222  15.549  0.0701 -3.9289  1.5923
 1654TIP3    H226454   1.564   6.239  15.684 -0.7767  0.3713  1.5409
 1655TIP3   OH226455   5.117   0.529   6.362 -0.1511 -0.0196 -0.1107
 1655TIP3    H126456   5.057   0.508   6.290 -0.5485 -0.3120  0.3064
 1655TIP3    H226457   5.067   0.587   6.419 -0.3829 -1.0609  0.7584
 1656TIP3   OH226458   0.400   4.939   5.074  0.4079 -0.6260  0.2897
 1656TIP3    H126459   0.476   4.922   5.129 -0.5532  1.0754  2.2264
 1656TIP3    H226460   0.350   5.005   5.122 -1.9284 -1.1896 -1.2715
 1657TIP3   OH226461   5.587   2.577  15.739  0.1516 -0.2360  0.1294
 1657TIP3    H126462   5.638   2.577  15.659  3.3651  1.0872  2.0649
 1657TIP3    H226463   5.614   2.498  15.786 -0.3941 -0.0915  0.7027
 1658TIP3   OH226464   4.015   0.925  16.035  0.5253  0.2337 -0.7211
 1658TIP3    H126465   3.965   0.971  15.968  0.4918  1.0292 -0.1664
 1658TIP3    H226466   3.950   0.903  16.102  1.0304  2.0727  0.4335
 1659TIP3   OH226467   5.943   5.050   1.430  0.0040 -1.2584  0.3147
 1659TIP3    H126468   5.851   5.075   1.429  0.3747  0.1511  1.1958
 1659TIP3    H226469   5.989   5.124   1.391  0.9186 -1.3042  1.2885
 1660TIP3   OH226470   3.158   0.608  12.281  0.6350 -0.0434  0.4605
 1660TIP3    H126471   3.166   0.680  12.343 -2.0657  0.2132  0.5837
 1660TIP3    H226472   3.147   0.650  12.196  4.0611 -0.3934 -0.2264
 1661TIP3   OH226473   4.964   5.895  12.108 -0.3956  0.2993  0.0727
 1661TIP3    H126474   5.011   5.906  12.190  1.2277 -1.3133 -0.6029
 1661TIP3    H226475   5.017   5.833  12.058 -2.4966 -0.4397 -1.3050
 1662TIP3   OH226476   6.548   2.366  16.253 -0.1058  0.1108 -0.0585
 1662TIP3    H126477   6.518   2.435  16.193  1.4567 -1.6771 -3.0443
 1662TIP3    H226478   6.631   2.398  16.287 -0.6044  0.7847  0.5323
 1663TIP3   OH226479   2.827   5.572  15.495 -0.1930 -0.2348 -0.5168
 1663TIP3    H126480   2.767   5.507  15.459  0.4046 -1.0060 -0.1217
 1663TIP3    H226481   2.773   5.622  15.557 -0.7715 -0.0340 -1.1787
 1664TIP3   OH226482   1.648   2.694  12.982  0.2775  0.1120 -0.4273
 1664TIP3    H126483   1.658   2.617  12.926 -1.1639  0.1733 -0.7905
 1664TIP3    H226484   1.635   2.766  12.920  1.3713  0.6123 -0.0810
 1665TIP3   OH226485   2.970   6.286  12.490  0.4150 -0.1037  0.7044
 1665TIP3    H126486   2.924   6.312  12.570  1.1639 -0.0516  1.1282
 1665TIP3    H226487   3.063   6.300  12.511  0.5772  0.4739 -0.3833
 1666TIP3   OH226488   1.557   0.583  14.281  0.6392  0.2044 -0.2730
 1666TIP3    H126489   1.602   0.498  14.281  2.1773  1.0022 -0.2686
 1666TIP3    H226490   1.606   0.637  14.219  1.3837  1.9641  1.7759
 1667TIP3   OH226491   2.451   5.528  14.311 -0.4554  0.3996 -0.6053
 1667TIP3    H126492   2.472   5.453  14.255 -2.2970 -1.2058  0.7920
 1667TIP3    H226493   2.356   5.539  14.300 -0.9079 -0.1096  2.3518
 1668TIP3   OH226494   6.155   0.931  16.356  0.2875 -0.3217  0.0566
 1668TIP3    H126495   6.241   0.929  16.314  0.5970  0.0355  0.6819
 1668TIP3    H226496   6.136   1.024  16.368 -0.0818 -0.4073  0.1494
 1669TIP3   OH226497   6.027   6.208   5.514 -0.1148  0.1924  0.4527
 1669TIP3    H126498   6.074   6.239   5.591 -1.5580 -0.8956  1.8186
 1669TIP3    H226499   6.046   6.272   5.446  2.5833  0.2549  1.2085
 1670TIP3   OH226500   4.610   1.229   1.469 -0.8320 -0.4180 -0.0981
 1670TIP3    H126501   4.640   1.213   1.559 -0.7797 -2.9876 -0.5574
 1670TIP3    H226502   4.664   1.303   1.440 -1.9072  1.4899  2.4730
 1671TIP3   OH226503   2.510   2.969   6.239 -0.3791 -0.1990  0.0892
 1671TIP3    H126504   2.582   3.027   6.217  3.0338 -3.9307  0.8089
 1671TIP3    H226505   2.467   2.950   6.155  0.9026  0.3000 -0.6847
 1672TIP3   OH226506   2.591   3.999  15.106 -0.3825  0.0220  0.1282
 1672TIP3    H126507   2.649   3.926  15.122  1.5743  2.1828  3.6188
 1672TIP3    H226508   2.505   3.968  15.134  0.0496 -1.5527 -0.2584
 1673TIP3   OH226509   4.602   1.385  15.399 -0.2398  0.0236 -0.2754
 1673TIP3    H126510   4.602   1.317  15.467 -2.2107 -0.9636 -1.1983
 1673TIP3    H226511   4.512   1.383  15.365 -0.7987  4.2134  0.7497
 1674TIP3   OH226512   1.323   4.074   0.766 -0.1887  0.0282 -0.5202
 1674TIP3    H126513   1.296   4.161   0.737 -0.6308 -0.6105 -2.0567
 1674TIP3    H226514   1.310   4.076   0.861 -0.3933  1.5611 -0.5611
 1675TIP3   OH226515   2.517   3.021  13.763  0.7676 -0.4881  0.4174
 1675TIP3    H126516   2.573   2.944  13.747  0.6317 -0.5843  0.4067
 1675TIP3    H226517   2.572   3.080  13.814  1.2427 -0.1384 -0.4813
 1676TIP3   OH226518   4.545   2.509   4.102  0.4405 -0.3364 -0.0010
 1676TIP3    H126519   4.595   2.544   4.028  0.2479  0.7102  0.3591
 1676TIP3    H226520   4.499   2.433   4.065  2.1612 -1.2217 -0.3679
 1677TIP3   OH226521   4.646   5.806  12.776 -0.1006  0.0470  0.2124
 1677TIP3    H126522   4.574   5.843  12.724 -0.5012 -0.8651  0.1095
 1677TIP3    H226523   4.714   5.786  12.711 -0.1352  0.0090  0.1881
 1678TIP3   OH226524   6.636   5.278  17.264 -0.2145 -0.3309 -0.4861
 1678TIP3    H126525   6.554   5.324  17.285  0.2782  0.6887 -0.7819
 1678TIP3    H226526   6.609   5.209  17.203 -0.9960 -0.6007  0.1494
 1679TIP3   OH226527   1.590   2.481   1.783 -0.1553  0.1887  0.8452
 1679TIP3    H126528   1.496   2.482   1.768  0.1475 -1.2389 -1.4174
 1679TIP3    H226529   1.616   2.573   1.783 -1.5275  0.5819  1.4456
 1680TIP3   OH226530   3.037   4.012   0.574 -0.0338  0.4766 -0.5911
 1680TIP3    H126531   2.987   4.045   0.500 -2.4173 -2.2746 -0.2930
 1680TIP3    H226532   3.074   3.929   0.543 -0.8275 -0.5619  1.1490
 1681TIP3   OH226533   6.243   5.865   5.702  0.5368 -0.1446  0.0195
 1681TIP3    H126534   6.284   5.951   5.690 -1.2165  0.7408  0.1900
 1681TIP3    H226535   6.271   5.814   5.626  1.2108  0.7177 -0.3163
 1682TIP3   OH226536   6.814   3.708   2.372  0.4856  0.2568  0.1458
 1682TIP3    H126537   6.865   3.716   2.453  1.0858  1.2352 -0.3234
 1682TIP3    H226538   6.877   3.723   2.302 -0.2721  0.6358 -0.4681
 1683TIP3   OH226539   3.741   4.796   1.159  0.3435  0.1935  0.3030
 1683TIP3    H126540   3.771   4.776   1.247 -1.3096  1.0282  1.0746
 1683TIP3    H226541   3.660   4.845   1.171 -0.7025 -0.9442 -1.6920
 1684TIP3   OH226542   1.099   4.789   2.404  0.2673 -0.7225 -0.6138
 1684TIP3    H126543   1.138   4.846   2.471  1.9998  0.0643 -2.2192
 1684TIP3    H226544   1.099   4.702   2.443  1.2885 -0.2806  0.3990
 1685TIP3   OH226545   4.366   0.210   3.723  0.4267  0.0135 -0.4480
 1685TIP3    H126546   4.393   0.267   3.795  0.3617 -0.8119  0.2414
 1685TIP3    H226547   4.284   0.248   3.692  0.1981  0.0928  0.2420
 1686TIP3   OH226548   2.374   3.689  13.274 -0.5746 -0.1423  0.3995
 1686TIP3    H126549   2.385   3.723  13.362 -1.5176  0.6161  0.2369
 1686TIP3    H226550   2.283   3.661  13.270 -0.3909 -0.6793 -0.1580
 1687TIP3   OH226551   5.326   5.736  11.263  0.0394 -0.0095 -0.3020
 1687TIP3    H126552   5.399   5.683  11.233 -0.3546 -0.2414 -0.8620
 1687TIP3    H226553   5.273   5.750  11.185  0.1506  1.2247 -0.1672
 1688TIP3   OH226554   1.363   4.337  12.121 -0.7105  0.7926  0.3041
 1688TIP3    H126555   1.334   4.410  12.066  0.4291  0.5138 -0.6961
 1688TIP3    H226556   1.336   4.259  12.073  2.6751  0.5012 -1.2848
 1689TIP3   OH226557   1.878   2.743   0.483 -0.3366 -0.0570  0.0789
 1689TIP3    H126558   1.837   2.698   0.556 -1.0284  0.8495  0.2561
 1689TIP3    H226559   1.936   2.677   0.444  0.3863 -0.4038  1.7028
 1690TIP3   OH226560   4.386   0.160   1.544  0.1841  0.7220  0.1637
 1690TIP3    H126561   4.453   0.202   1.598  0.1155  1.3610 -0.2317
 1690TIP3    H226562   4.433   0.131   1.465  0.5598 -1.4563  1.1528
 1691TIP3   OH226563   2.798   4.950   5.493  0.4421 -0.2122 -0.0456
 1691TIP3    H126564   2.819   4.966   5.401  1.6099 -0.4594  0.1646
 1691TIP3    H226565   2.830   4.861   5.510  0.6536  0.0051  0.7140
 1692TIP3   OH226566   6.058   1.663  14.547 -0.4745 -0.0276  0.5671
 1692TIP3    H126567   5.994   1.676  14.616 -0.7909  0.8945  0.1012
 1692TIP3    H226568   6.024   1.588  14.497 -1.0308  0.2692  0.4997
 1693TIP3   OH226569   4.199   2.111   5.077 -0.4050  0.5997 -0.3684
 1693TIP3    H126570   4.137   2.143   5.143  0.0150  1.3820 -0.3474
 1693TIP3    H226571   4.256   2.051   5.125  0.3299  1.6923  0.1428
 1694TIP3   OH226572   1.143   6.245  11.250 -0.8165  0.3479  0.4521
 1694TIP3    H126573   1.130   6.171  11.310  0.2384 -0.6191 -0.4829
 1694TIP3    H226574   1.194   6.208  11.178  0.5746  2.2467  0.4397
 1695TIP3   OH226575   3.410   6.178  10.692 -0.1725 -0.5293  0.4742
 1695TIP3    H126576   3.372   6.168  10.605 -0.8271 -1.6801  0.8891
 1695TIP3    H226577   3.412   6.273  10.706 -0.3030 -0.3492 -0.6763
 1696TIP3   OH226578   6.214   5.713  12.535  1.0508  0.4671 -0.1612
 1696TIP3    H126579   6.242   5.689  12.623  1.4788 -0.2620 -0.4910
 1696TIP3    H226580   6.147   5.780  12.548  0.6137 -0.1404  0.7383
 1697TIP3   OH226581   4.190   0.972   2.782 -0.1791 -0.8177 -0.9080
 1697TIP3    H126582   4.199   1.044   2.719  0.1935 -1.5908 -1.7540
 1697TIP3    H226583   4.224   1.008   2.864 -1.8086  0.5984 -0.8195
 1698TIP3   OH226584   3.856   6.522   1.401 -0.1444 -1.2810  0.0694
 1698TIP3    H126585   3.829   6.437   1.366  2.4314 -2.7159  1.3833
 1698TIP3    H226586   3.853   6.510   1.496 -3.8387  1.4835  0.3767
 1699TIP3   OH226587   4.923   6.307   6.066  0.0423 -0.2126 -0.0885
 1699TIP3    H126588   5.017   6.296   6.074 -0.1521 -2.1949 -0.3800
 1699TIP3    H226589   4.908   6.400   6.083  2.2462  0.5104 -1.8737
 1700TIP3   OH226590   1.807   1.676   4.888 -0.0294  0.6252  0.8484
 1700TIP3    H126591   1.719   1.713   4.890 -1.0798 -1.7902  0.9188
 1700TIP3    H226592   1.794   1.584   4.865  2.5648  0.4756 -0.2313
 1701TIP3   OH226593   5.762   5.888  14.114 -0.7793  0.2414 -0.1922
 1701TIP3    H126594   5.741   5.845  14.031 -1.1519  1.4194 -0.7195
 1701TIP3    H226595   5.854   5.867  14.129  0.0274  2.2071 -2.2458
 1702TIP3   OH226596   0.064   6.495  13.828  0.1084 -0.2727 -0.3766
 1702TIP3    H126597   0.060   6.500  13.733  2.1911 -1.4090 -0.5482
 1702TIP3    H226598   0.087   6.404  13.847  1.9696  0.4864  1.1122
 1703TIP3   OH226599   1.194   6.308  12.813  0.5353  0.4239  0.3044
 1703TIP3    H126600   1.136   6.295  12.738  2.3362 -0.9267 -0.9229
 1703TIP3    H226601   1.232   6.395  12.799  1.1482  0.0309 -0.6077
 1704TIP3   OH226602   1.711   1.034   1.442  0.6301 -0.4616  0.4813
 1704TIP3    H126603   1.787   0.982   1.467 -0.1846 -1.2594  1.3564
 1704TIP3    H226604   1.641   0.969   1.428  0.3140  0.1881 -1.0955
 1705TIP3   OH226605   6.505   6.461  11.108  0.5596 -0.3126  0.1335
 1705TIP3    H126606   6.420   6.489  11.074 -0.1571 -0.0582  2.0677
 1705TIP3    H226607   6.565   6.531  11.084  0.5007 -1.0444 -2.2943
 1706TIP3   OH226608   2.303   6.165  12.633 -0.2526  0.1299  0.0666
 1706TIP3    H126609   2.398   6.155  12.643 -0.3390 -2.1888 -0.9913
 1706TIP3    H226610   2.272   6.188  12.721  1.3980  2.1466  0.1608
 1707TIP3   OH226611   0.656   5.941  14.814 -0.0519 -0.3652  0.2761
 1707TIP3    H126612   0.690   5.903  14.895 -0.5300  0.0130  0.6603
 1707TIP3    H226613   0.666   6.035  14.825  1.1885 -0.3622 -0.7014
 1708TIP3   OH226614   0.136   4.699  13.676  0.2181  0.1001 -0.4331
 1708TIP3    H126615   0.206   4.709  13.610  0.6188  2.6990  0.3149
 1708TIP3    H226616   0.062   4.747  13.639 -0.2578 -0.2625  0.0445
 1709TIP3   OH226617   2.723   4.002  15.775  0.1429  0.0598 -0.3879
 1709TIP3    H126618   2.686   4.065  15.714 -0.7272 -0.2992 -0.2405
 1709TIP3    H226619   2.818   4.013  15.766  0.0125  3.3310  1.6665
 1710TIP3   OH226620   1.834   2.805   3.616  0.1573  0.4991 -0.4850
 1710TIP3    H126621   1.812   2.713   3.609 -0.4177  0.5820  0.1676
 1710TIP3    H226622   1.917   2.806   3.663  0.3421  0.2984 -0.8059
 1711TIP3   OH226623   3.510   3.946   4.921 -0.0524  0.6718 -0.1948
 1711TIP3    H126624   3.425   3.948   4.876 -0.4820  0.5582  0.6104
 1711TIP3    H226625   3.567   3.898   4.861 -1.0942 -1.0949  0.1792
 1712TIP3   OH226626   4.468   1.973  12.235  0.0433  0.5607  0.2647
 1712TIP3    H126627   4.390   1.971  12.180 -0.1430 -1.1628  0.5580
 1712TIP3    H226628   4.454   1.903  12.299  2.6021 -0.9047 -0.7249
 1713TIP3   OH226629   2.299   5.818  11.502  0.0519 -0.4456 -0.4650
 1713TIP3    H126630   2.337   5.742  11.458 -1.0988  0.0757 -2.4625
 1713TIP3    H226631   2.240   5.856  11.436  0.9007  2.3953  0.3304
 1714TIP3   OH226632   1.803   2.661  13.224  0.7448  0.1409  0.4920
 1714TIP3    H126633   1.895   2.654  13.198  0.7758  1.5989  0.1581
 1714TIP3    H226634   1.756   2.674  13.142  0.1363 -1.4925  0.5774
 1715TIP3   OH226635   5.622   6.664  17.260 -0.1712 -0.4669  0.4285
 1715TIP3    H126636   5.676   6.688  17.335  2.9730  0.2196 -1.9488
 1715TIP3    H226637   5.663   6.585  17.225 -0.4100  0.2828 -1.6415
 1716TIP3   OH226638   0.098   0.049  14.898 -0.4619  0.5417  0.2617
 1716TIP3    H126639   0.145   0.050  14.815 -0.5103  3.5898  0.2430
 1716TIP3    H226640   0.014   0.090  14.878 -0.8073  0.5084  1.6265
 1717TIP3   OH226641   3.486   4.117  10.794 -0.2142 -0.4319  0.0729
 1717TIP3    H126642   3.402   4.128  10.749  0.8872 -0.5247 -2.0775
 1717TIP3    H226643   3.529   4.202  10.786  0.6992 -0.9393 -0.5651
 1718TIP3   OH226644   3.460   3.952  14.836  0.2837  0.2876 -0.5196
 1718TIP3    H126645   3.388   3.991  14.785 -0.8111 -1.3611 -0.2565
 1718TIP3    H226646   3.526   4.021  14.840 -1.1328  1.7133 -1.0783
 1719TIP3   OH226647   2.842   4.525  12.890 -0.2171  0.2427 -0.1561
 1719TIP3    H126648   2.874   4.501  12.803 -1.0006  3.7271 -1.4571
 1719TIP3    H226649   2.779   4.594  12.875 -2.2477 -0.7905  3.0452
 1720TIP3   OH226650   4.322   2.180  15.320 -0.1140 -0.5222  0.5823
 1720TIP3    H126651   4.319   2.086  15.301 -1.1496 -0.5304  0.7535
 1720TIP3    H226652   4.329   2.222  15.234  1.8053 -0.7913  0.5694
 1721TIP3   OH226653   5.277   1.153   2.351 -0.0227 -0.5422 -0.3876
 1721TIP3    H126654   5.196   1.179   2.307  0.8847  1.4867 -0.9227
 1721TIP3    H226655   5.267   1.184   2.441  0.9815  1.5970 -0.9779
 1722TIP3   OH226656   4.064   2.770   5.008  0.5919  0.0229  0.0423
 1722TIP3    H126657   4.053   2.736   4.919 -2.3960  1.4598 -0.2061
 1722TIP3    H226658   3.994   2.729   5.058  1.0012  0.7758  1.2482
 1723TIP3   OH226659   6.441   6.601  12.861  0.2081  0.2567 -0.1230
 1723TIP3    H126660   6.462   6.617  12.769 -0.5175 -2.5404 -0.8454
 1723TIP3    H226661   6.370   6.661  12.880 -0.5636 -0.0672 -1.8181
 1724TIP3   OH226662   3.033   3.121  14.138 -0.0616  0.5367 -0.1415
 1724TIP3    H126663   2.960   3.128  14.199  0.2899  1.0169  0.2328
 1724TIP3    H226664   3.020   3.193  14.076 -0.4165  0.0519 -0.6313
 1725TIP3   OH226665   2.179   5.977   3.785  0.1861  0.0495 -0.1917
 1725TIP3    H126666   2.125   5.901   3.763 -2.2219  1.5654  0.2677
 1725TIP3    H226667   2.204   5.962   3.877 -0.7551  0.0468  0.0771
 1726TIP3   OH226668   0.453   5.954   1.879  0.1373  0.0709  0.4914
 1726TIP3    H126669   0.402   6.033   1.897  1.3958  1.2945 -1.2246
 1726TIP3    H226670   0.544   5.983   1.882  0.5508 -0.5739 -3.3540
 1727TIP3   OH226671   2.519   2.691   2.881  0.2150  0.2582  0.1141
 1727TIP3    H126672   2.583   2.644   2.934 -0.7619 -1.6627 -0.3640
 1727TIP3    H226673   2.544   2.672   2.791  0.1222  1.0924 -0.0917
 1728TIP3   OH226674   6.588   3.410   3.594  0.1964 -0.5518  0.3245
 1728TIP3    H126675   6.563   3.374   3.679  0.2690  0.0444  0.5974
 1728TIP3    H226676   6.643   3.486   3.614  0.4621 -0.5870 -0.2552
 1729TIP3   OH226677   6.044   6.580  11.823  0.1543 -0.8423 -0.8472
 1729TIP3    H126678   6.118   6.580  11.885 -0.8634 -0.3830  0.3963
 1729TIP3    H226679   6.032   6.488  11.801 -1.0628 -1.3360  1.6326
 1730TIP3   OH226680   4.204   0.573   3.821  0.0715 -0.3392  0.3296
 1730TIP3    H126681   4.187   0.533   3.736  1.8430  0.3219 -0.3414
 1730TIP3    H226682   4.174   0.664   3.812  1.5213  0.1090 -0.0308
 1731TIP3   OH226683   5.005   3.463   5.349 -0.0317  0.6761 -0.0367
 1731TIP3    H126684   4.986   3.414   5.429  1.5500 -0.3213 -0.2414
 1731TIP3    H226685   5.073   3.524   5.374  1.5819 -0.6998 -0.9572
 1732TIP3   OH226686   5.682   2.077   0.239  0.1524 -0.4916  0.3874
 1732TIP3    H126687   5.735   2.015   0.188 -0.0318 -0.3198 -0.0187
 1732TIP3    H226688   5.614   2.024   0.279  0.6366 -0.7176  0.9202
 1733TIP3   OH226689   0.499   4.779   3.198 -0.0218 -0.4818 -0.0575
 1733TIP3    H126690   0.476   4.695   3.158 -0.1486 -1.4212  1.9583
 1733TIP3    H226691   0.517   4.759   3.289 -0.8702  1.8155  0.6619
 1734TIP3   OH226692   5.096   4.372   2.071 -0.5328  0.3011  0.0611
 1734TIP3    H126693   5.009   4.357   2.034  0.1259 -0.9728 -1.0118
 1734TIP3    H226694   5.135   4.439   2.015 -0.3610 -0.0420 -0.2357
 1735TIP3   OH226695   5.484   4.733   4.126 -0.3305  0.1710  0.0378
 1735TIP3    H126696   5.547   4.804   4.124 -1.0800  0.8367 -0.1014
 1735TIP3    H226697   5.401   4.774   4.149 -0.7124 -0.6996  0.2599
 1736TIP3   OH226698   2.096   6.166  12.834 -0.5956  0.1682  0.7973
 1736TIP3    H126699   2.118   6.216  12.913  0.1241  1.1752 -0.0219
 1736TIP3    H226700   2.093   6.075  12.864  0.5380  0.4439  1.8156
 1737TIP3   OH226701   6.202   1.948  15.907 -0.6847  0.2029  0.5859
 1737TIP3    H126702   6.234   2.002  15.979 -0.6454  0.3896  0.4274
 1737TIP3    H226703   6.249   1.865  15.916  1.2623  1.1184 -0.7557
 1738TIP3   OH226704   6.227   5.237  11.834  0.9316 -0.2013 -0.7451
 1738TIP3    H126705   6.285   5.294  11.784  1.9511 -1.8052 -1.4317
 1738TIP3    H226706   6.147   5.287  11.845  1.9718  1.5324 -0.9386
 1739TIP3   OH226707   4.846   1.685  16.866 -0.1441  0.3315 -0.4994
 1739TIP3    H126708   4.803   1.683  16.780  0.3178  0.7029 -0.7423
 1739TIP3    H226709   4.879   1.775  16.874  0.5462  0.0671 -0.3001
 1740TIP3   OH226710   5.892   2.323   6.039 -0.2472  0.2354 -0.5912
 1740TIP3    H126711   5.896   2.413   6.070 -0.0020 -0.2683  0.9409
 1740TIP3    H226712   5.859   2.274   6.115  1.0025 -1.1521 -0.9082
 1741TIP3   OH226713   3.606   3.271   2.601 -0.5676  0.2532 -0.2854
 1741TIP3    H126714   3.563   3.324   2.668  1.1383  1.0318  0.2357
 1741TIP3    H226715   3.608   3.327   2.524 -0.3956  0.2596 -0.2765
 1742TIP3   OH226716   3.978   3.062   5.461 -0.4903 -0.3772  0.6136
 1742TIP3    H126717   3.996   3.102   5.546  0.8423 -1.1723  0.7252
 1742TIP3    H226718   4.038   3.104   5.401 -3.0713  1.9101 -0.4736
 1743TIP3   OH226719   1.125   1.528   1.006 -0.0508  0.2525  0.6160
 1743TIP3    H126720   1.130   1.582   1.085  1.2486  1.3636 -0.1972
 1743TIP3    H226721   1.193   1.564   0.949 -0.9928 -0.5192 -1.0150
 1744TIP3   OH226722   3.192   6.601  14.066 -0.1501  0.7206  0.2341
 1744TIP3    H126723   3.100   6.578  14.051 -0.1304  0.9818 -0.3041
 1744TIP3    H226724   3.228   6.612  13.978  0.6065 -0.1991  0.4261
 1745TIP3   OH226725   6.351   1.542  12.867  0.0041 -0.2047  0.9335
 1745TIP3    H126726   6.405   1.520  12.792 -0.1978 -1.8495  1.2446
 1745TIP3    H226727   6.266   1.567  12.830 -0.4208 -2.0266  0.6439
 1746TIP3   OH226728   5.697   0.742   1.276 -0.3608  0.3729  0.3789
 1746TIP3    H126729   5.666   0.695   1.353  0.3017  0.3435  0.6339
 1746TIP3    H226730   5.792   0.726   1.275 -0.2033  1.2886  0.1955
 1747TIP3   OH226731   3.850   4.446   2.274  0.2279 -0.1481  0.1017
 1747TIP3    H126732   3.852   4.357   2.309  1.7572 -0.5103 -0.8662
 1747TIP3    H226733   3.760   4.458   2.242 -0.1438 -1.1191  0.7831
 1748TIP3   OH226734   2.950   5.152   1.690  0.3052  0.3013  0.1527
 1748TIP3    H126735   3.019   5.192   1.743  0.7468  1.8476 -1.5335
 1748TIP3    H226736   2.930   5.069   1.734 -0.2052  2.0870  3.3523
 1749TIP3   OH226737   1.885   0.882   2.034 -0.0529 -0.0598  0.0202
 1749TIP3    H126738   1.914   0.958   1.984 -0.1187  0.9300  1.4661
 1749TIP3    H226739   1.790   0.881   2.024 -0.1059  0.3854  0.4662
 1750TIP3   OH226740   1.969   2.054   2.611 -0.0702 -0.2207 -0.0793
 1750TIP3    H126741   2.005   1.967   2.597  1.5428  0.2112  1.1768
 1750TIP3    H226742   1.900   2.041   2.676  0.0380 -0.5878 -0.0397
 1751TIP3   OH226743   4.235   3.815  11.171  1.0359  0.2386  0.0777
 1751TIP3    H126744   4.308   3.756  11.189  1.8879  1.1526 -0.3383
 1751TIP3    H226745   4.252   3.891  11.227 -0.4836 -0.2367  1.2295
 1752TIP3   OH226746   0.791   1.002   2.764 -0.0299 -0.9550  0.2259
 1752TIP3    H126747   0.871   0.954   2.741 -0.5468 -1.4408 -0.6113
 1752TIP3    H226748   0.736   0.994   2.686 -0.0083  1.2841 -0.0354
 1753TIP3   OH226749   2.861   5.676  13.188 -0.0995  0.3540  0.4794
 1753TIP3    H126750   2.890   5.738  13.121  1.4800 -0.3088  0.5171
 1753TIP3    H226751   2.905   5.594  13.165 -1.9460 -0.6818  0.5929
 1754TIP3   OH226752   4.194   1.825  17.149 -0.0330 -0.4975  0.1981
 1754TIP3    H126753   4.114   1.780  17.122  0.2283 -0.5682 -0.4752
 1754TIP3    H226754   4.256   1.755  17.170  0.8168 -0.4911 -2.1639
 1755TIP3   OH226755   1.318   5.094  13.738  0.5974 -0.5047  0.4541
 1755TIP3    H126756   1.284   5.153  13.805  1.8539 -0.8905  1.4653
 1755TIP3    H226757   1.286   5.008  13.763 -1.4248 -0.2481 -1.1510
 1756TIP3   OH226758   6.463   2.661  14.292 -0.2835  0.2391 -0.6638
 1756TIP3    H126759   6.495   2.732  14.236  0.4245  1.4156  1.1820
 1756TIP3    H226760   6.523   2.589  14.275  1.1986  1.2635  0.0640
 1757TIP3   OH226761   4.880   6.754  10.372  0.4249  0.3688  0.4609
 1757TIP3    H126762   4.903   6.840  10.408 -2.0256  1.3633 -0.2680
 1757TIP3    H226763   4.790   6.739  10.400  0.0713 -0.9661 -1.3085
 1758TIP3   OH226764   6.142   3.660   4.919 -0.1085 -0.0554 -0.0851
 1758TIP3    H126765   6.066   3.677   4.975 -0.2310  0.2114 -0.3298
 1758TIP3    H226766   6.182   3.581   4.956  0.7625  1.0532  1.3774
 1759TIP3   OH226767   1.717   6.502  11.214 -0.4929 -0.1075 -0.0037
 1759TIP3    H126768   1.630   6.503  11.175 -0.3862  0.8264 -0.2130
 1759TIP3    H226769   1.773   6.549  11.152 -0.2519  1.0533  1.0752
 1760TIP3   OH226770   1.578   5.026  15.519 -0.0459 -0.3565 -0.5224
 1760TIP3    H126771   1.540   4.939  15.505 -1.4615  0.0462  0.6097
 1760TIP3    H226772   1.580   5.066  15.432 -0.1827 -1.2186 -0.9241
 1761TIP3   OH226773   2.312   5.852  12.584 -0.3037  0.2184  0.4271
 1761TIP3    H126774   2.340   5.943  12.589  1.6972 -0.3847  0.4733
 1761TIP3    H226775   2.315   5.821  12.675 -1.3676  0.2039  0.4660
 1762TIP3   OH226776   5.441   0.744  11.577  0.0854 -0.2879  0.0647
 1762TIP3    H126777   5.396   0.753  11.492  0.2466 -0.7364 -0.0689
 1762TIP3    H226778   5.510   0.680  11.560  0.4275 -0.0094  0.4135
 1763TIP3   OH226779   6.573   1.990  11.421 -0.4914 -0.5155  0.7935
 1763TIP3    H126780   6.486   1.953  11.433 -1.0986 -0.1894 -2.3804
 1763TIP3    H226781   6.570   2.074  11.467 -2.0648 -0.2038  0.1312
 1764TIP3   OH226782   6.349   0.730  15.846  0.8564  0.4634  0.1533
 1764TIP3    H126783   6.379   0.750  15.935  1.0316 -0.0452  0.2126
 1764TIP3    H226784   6.366   0.636  15.836 -0.2850  0.2668  0.0181
 1765TIP3   OH226785   4.846   6.600   4.370 -0.2467 -0.0801 -0.8251
 1765TIP3    H126786   4.875   6.576   4.458  1.3381 -1.5722 -1.7259
 1765TIP3    H226787   4.855   6.696   4.368  0.7071 -0.1289  0.2878
 1766TIP3   OH226788   6.388   3.011   1.964  0.3222 -0.1858 -0.4215
 1766TIP3    H126789   6.379   3.081   1.899 -0.0090 -0.7800 -1.0178
 1766TIP3    H226790   6.460   2.957   1.932 -0.2127 -0.7974 -0.5847
 1767TIP3   OH226791   0.901   6.441   0.129 -0.7328 -0.9877 -0.0010
 1767TIP3    H126792   0.822   6.422   0.078 -0.1458  1.5791 -1.9981
 1767TIP3    H226793   0.970   6.388   0.087 -0.7933 -0.9204 -0.1854
 1768TIP3   OH226794   0.444   6.653   4.596 -0.1487  0.0760  0.2062
 1768TIP3    H126795   0.524   6.697   4.622  0.8241 -1.0533 -0.8266
 1768TIP3    H226796   0.405   6.710   4.530  0.1417  0.2784  0.2112
 1769TIP3   OH226797   2.044   3.366   5.077 -0.1853 -0.2260  0.7256
 1769TIP3    H126798   2.054   3.277   5.044 -1.3567  0.0260 -0.3512
 1769TIP3    H226799   1.965   3.364   5.131 -1.1903  0.5278 -0.6824
 1770TIP3   OH226800   1.284   6.738   3.856  0.5667 -0.1154 -0.0292
 1770TIP3    H126801   1.334   6.662   3.886 -0.6768 -1.0103 -0.1536
 1770TIP3    H226802   1.198   6.727   3.898  0.7715  1.8992  0.9706
 1771TIP3   OH226803   6.086   0.986  13.299  0.0428 -0.0571  0.6931
 1771TIP3    H126804   6.082   1.075  13.264 -0.9546 -0.1121  0.6587
 1771TIP3    H226805   6.179   0.968  13.307  0.2577  0.7445  0.0690
 1772TIP3   OH226806   4.006   3.745   4.943 -0.2059  0.2864 -0.3340
 1772TIP3    H126807   3.985   3.780   4.857  0.7226 -0.4233 -0.8558
 1772TIP3    H226808   4.016   3.822   4.999 -3.4624  0.6869 -0.2092
 1773TIP3   OH226809   6.057   5.819  13.281  0.6231  0.0875  0.5061
 1773TIP3    H126810   6.081   5.853  13.195  1.4965  0.1509  0.7655
 1773TIP3    H226811   5.985   5.875  13.310 -0.5087 -0.7006 -0.6950
 1774TIP3   OH226812   0.284   0.723   2.312 -0.1907  0.4936  0.6149
 1774TIP3    H126813   0.284   0.646   2.256 -0.0252  0.0293  1.2576
 1774TIP3    H226814   0.373   0.729   2.347 -0.2686  0.8322  0.7661
 1775TIP3   OH226815   1.025   4.161   6.584 -0.0729  0.0927  0.3431
 1775TIP3    H126816   1.016   4.071   6.617 -0.6249 -0.3653 -1.0114
 1775TIP3    H226817   0.944   4.205   6.609  0.0244  0.0903  0.6576
 1776TIP3   OH226818   1.184   2.238   2.264 -0.7999  0.1330  0.3337
 1776TIP3    H126819   1.117   2.201   2.206 -0.6333  1.2204 -0.5647
 1776TIP3    H226820   1.264   2.193   2.240 -0.5509  1.1976 -0.9205
 1777TIP3   OH226821   2.596   6.713  11.909 -0.3725  0.2626 -0.1433
 1777TIP3    H126822   2.577   6.735  12.000 -0.0393 -1.6565  0.4055
 1777TIP3    H226823   2.526   6.755  11.859 -2.0871 -0.8862  1.2360
 1778TIP3   OH226824   3.976   5.644  16.250  0.2855  0.5579  0.1905
 1778TIP3    H126825   3.896   5.594  16.262  0.2113  0.6380  0.0244
 1778TIP3    H226826   3.969   5.716  16.313  0.8752 -0.2266  1.1766
 1779TIP3   OH226827   4.975   0.964  10.570  0.1153 -0.3561  0.2080
 1779TIP3    H126828   4.886   0.952  10.603  0.0541 -1.4648 -0.3452
 1779TIP3    H226829   4.997   0.881  10.528  1.0001  0.2905 -0.6412
 1780TIP3   OH226830   5.811   4.786  15.988  0.0935 -0.2215 -0.0166
 1780TIP3    H126831   5.841   4.712  15.935 -0.5724  0.5097 -1.4465
 1780TIP3    H226832   5.778   4.849  15.924 -0.3050  0.8748  1.2539
 1781TIP3   OH226833   5.042   1.984   1.209 -0.4750  0.1904  0.4059
 1781TIP3    H126834   4.993   2.049   1.259  0.3788  0.4815  0.8691
 1781TIP3    H226835   4.982   1.957   1.140 -0.7214  1.7209  0.0089
 1782TIP3   OH226836   3.675   1.428   1.798  0.2933  0.5522 -0.2584
 1782TIP3    H126837   3.610   1.429   1.728 -0.6187  2.3374  0.5747
 1782TIP3    H226838   3.753   1.467   1.758  0.3349 -0.0400 -0.7707
 1783TIP3   OH226839   5.923   3.198  14.794  0.5781  0.4516  0.2424
 1783TIP3    H126840   5.934   3.146  14.873  1.2380 -0.4649 -0.4468
 1783TIP3    H226841   5.927   3.289  14.824 -0.1747  0.1141  1.3940
 1784TIP3   OH226842   1.225   1.739   5.655  0.3239  0.1335 -0.2912
 1784TIP3    H126843   1.170   1.796   5.709  1.7130  1.5596 -0.3136
 1784TIP3    H226844   1.189   1.747   5.567 -1.1962 -1.2239  0.1998
 1785TIP3   OH226845   0.563   6.651  13.952 -0.5767 -0.1009  0.0784
 1785TIP3    H126846   0.494   6.632  14.015  0.2913  0.3192  1.1773
 1785TIP3    H226847   0.644   6.634  14.000  0.0896 -0.2239 -1.0789
 1786TIP3   OH226848   2.598   0.706  12.144 -0.0041  0.6455 -0.6494
 1786TIP3    H126849   2.686   0.718  12.108 -0.0336 -0.9460 -1.2912
 1786TIP3    H226850   2.546   0.676  12.070 -0.6879 -0.0891  0.1261
 1787TIP3   OH226851   3.413   5.513   3.194 -0.6240 -0.3112 -0.1747
 1787TIP3    H126852   3.460   5.430   3.207  1.2451  0.2567 -2.7352
 1787TIP3    H226853   3.379   5.536   3.280  2.4815 -1.5965  1.4710
 1788TIP3   OH226854   0.280   5.374   4.762  0.0401 -0.0734  0.8464
 1788TIP3    H126855   0.303   5.338   4.848  0.0988 -0.9814  0.4547
 1788TIP3    H226856   0.205   5.322   4.734  0.0552  0.1892  0.3211
 1789TIP3   OH226857   0.160   6.791  12.048  0.5844 -0.2818 -0.3519
 1789TIP3    H126858   0.215   6.854  12.094 -0.7460  0.1672  0.6642
 1789TIP3    H226859   0.215   6.714  12.037  1.3276  0.0684  0.8788
 1790TIP3   OH226860   6.165   1.171  13.909  0.0815 -0.3837  0.1503
 1790TIP3    H126861   6.157   1.131  13.822  0.7855 -1.8980  0.7471
 1790TIP3    H226862   6.246   1.133  13.944  0.9842  1.9191  0.5994
 1791TIP3   OH226863   0.372   2.165   0.254  0.3426  0.2648  0.3163
 1791TIP3    H126864   0.375   2.166   0.158  0.1303  1.2408  0.3160
 1791TIP3    H226865   0.339   2.252   0.278 -1.2131 -0.5623  1.2158
 1792TIP3   OH226866   6.030   3.001  14.222  0.0917 -0.0232 -0.0558
 1792TIP3    H126867   6.034   3.095  14.207 -0.2032 -0.3117 -2.1094
 1792TIP3    H226868   5.947   2.988  14.268  0.5013  0.8006  0.9277
 1793TIP3   OH226869   5.117   0.162  16.225 -0.4943  0.3382  0.2811
 1793TIP3    H126870   5.037   0.114  16.247 -0.8618  0.7444 -0.1562
 1793TIP3    H226871   5.123   0.156  16.129 -0.8544  1.6470  0.1685
 1794TIP3   OH226872   5.364   3.241  11.903  0.2777 -0.6107  0.1437
 1794TIP3    H126873   5.293   3.304  11.915  0.7164  0.0767 -0.7899
 1794TIP3    H226874   5.444   3.294  11.907  0.5817 -0.7650 -2.5775
 1795TIP3   OH226875   0.251   4.823   0.342  0.0815 -0.0041 -0.1648
 1795TIP3    H126876   0.227   4.916   0.334  0.9529  0.3240  1.0604
 1795TIP3    H226877   0.211   4.783   0.265 -2.3077  0.9734  0.4967
 1796TIP3   OH226878   0.072   2.197  16.709  0.2286 -0.1864 -0.0847
 1796TIP3    H126879   0.007   2.202  16.779 -0.2261  0.3506 -0.5340
 1796TIP3    H226880   0.130   2.272  16.725  1.0218 -0.9309  0.5856
 1797TIP3   OH226881   1.016   1.595   5.884 -0.0522 -0.1340  0.1106
 1797TIP3    H126882   1.065   1.519   5.914  1.3401  0.7662  0.1834
 1797TIP3    H226883   1.025   1.659   5.955 -1.2798  0.0630  0.0945
 1798TIP3   OH226884   2.585   1.371  15.064 -0.1133 -0.1568 -0.0167
 1798TIP3    H126885   2.526   1.440  15.093  0.1532 -1.5009  4.0738
 1798TIP3    H226886   2.671   1.397  15.099  0.7304 -0.6697 -1.6685
 1799TIP3   OH226887   3.845   5.701  14.987  0.0190  0.2640  1.0542
 1799TIP3    H126888   3.765   5.730  15.030 -0.9047 -1.7748  0.7882
 1799TIP3    H226889   3.817   5.630  14.930  1.8681  0.2039  0.1634
 1800TIP3   OH226890   0.262   3.343   6.112  0.2167  0.1636  0.0780
 1800TIP3    H126891   0.282   3.419   6.167  0.2732  1.6496 -1.9577
 1800TIP3    H226892   0.187   3.370   6.059 -1.1706 -1.9915  0.8558
 1801TIP3   OH226893   2.724   3.163   1.089 -0.1982  0.3181  0.0800
 1801TIP3    H126894   2.673   3.150   1.169 -0.9928  1.5336 -0.2074
 1801TIP3    H226895   2.790   3.094   1.091 -2.2611 -1.7302  0.1591
 1802TIP3   OH226896   5.283   5.719   3.620 -0.1912  0.5590 -0.4505
 1802TIP3    H126897   5.188   5.723   3.630 -0.1389  1.8836 -0.4024
 1802TIP3    H226898   5.305   5.628   3.637 -1.2850  0.5472  1.0184
 1803TIP3   OH226899   1.105   4.007   2.828 -0.3355  0.4455 -0.0679
 1803TIP3    H126900   1.066   4.020   2.741 -0.2861  0.0094 -0.1539
 1803TIP3    H226901   1.114   4.096   2.863 -0.9978  0.5791 -0.2233
 1804TIP3   OH226902   6.679   3.845  11.309  0.1300  0.3343  0.7252
 1804TIP3    H126903   6.724   3.783  11.367  0.8583  0.4021  0.2362
 1804TIP3    H226904   6.669   3.798  11.227  1.1815  1.0582  0.1775
 1805TIP3   OH226905   3.417   4.333  11.445  0.2637 -0.3710  0.2206
 1805TIP3    H126906   3.325   4.334  11.471 -0.0358 -0.7517 -0.7931
 1805TIP3    H226907   3.463   4.375  11.518 -0.3824 -2.5154  1.9329
 1806TIP3   OH226908   1.302   3.745   3.057  0.0984 -0.3483 -0.2485
 1806TIP3    H126909   1.289   3.676   3.123  0.0239 -0.0818  0.0145
 1806TIP3    H226910   1.228   3.734   2.997 -0.0674 -0.3195 -0.0507
 1807TIP3   OH226911   5.514   3.810  15.825 -0.4926 -0.3927  0.0845
 1807TIP3    H126912   5.486   3.763  15.904 -1.2954 -1.2690 -0.7046
 1807TIP3    H226913   5.609   3.819  15.835 -0.6989  0.3753  1.6020
 1808TIP3   OH226914   6.271   6.530  13.960 -0.2591 -0.5136 -0.2756
 1808TIP3    H126915   6.238   6.528  14.050 -0.4900 -0.1478 -0.3500
 1808TIP3    H226916   6.335   6.602  13.960 -0.4904 -0.3054 -0.4807
 1809TIP3   OH226917   5.011   5.701   4.452  0.0679  0.5757  0.2672
 1809TIP3    H126918   4.954   5.684   4.527 -1.6625  2.2971 -0.6039
 1809TIP3    H226919   4.951   5.724   4.381  1.7756  0.9164 -1.1081
 1810TIP3   OH226920   4.826   5.265   1.069 -0.0464  0.5701 -0.5875
 1810TIP3    H126921   4.824   5.359   1.049  0.3785  0.3385 -1.7395
 1810TIP3    H226922   4.915   5.250   1.101 -1.3358  1.3626  3.7100
 1811TIP3   OH226923   6.210   4.785  15.993  0.2986 -0.1866  0.7811
 1811TIP3    H126924   6.172   4.838  15.923  0.1498  0.6392  1.4796
 1811TIP3    H226925   6.300   4.767  15.964  0.1926  0.0218  0.3149
 1812TIP3   OH226926   0.126   0.391  12.657 -0.1504  0.7089  0.7257
 1812TIP3    H126927   0.155   0.333  12.728 -1.1359 -0.5665  0.1210
 1812TIP3    H226928   0.196   0.455  12.649  1.4016 -0.9110  0.8581
 1813TIP3   OH226929   0.510   3.116   0.588  0.0445 -0.3069  0.2099
 1813TIP3    H126930   0.433   3.115   0.644  0.1422  1.7227  0.4191
 1813TIP3    H226931   0.479   3.083   0.504 -0.4959 -1.7236  0.9497
 1814TIP3   OH226932   6.459   0.953   5.761  0.5245 -0.0899  0.2027
 1814TIP3    H126933   6.492   0.931   5.848 -1.2756  0.1669  0.9851
 1814TIP3    H226934   6.506   1.033   5.737 -0.0286  0.6972  1.6233
 1815TIP3   OH226935   4.551   3.764  11.437 -0.4734 -0.1751 -0.2103
 1815TIP3    H126936   4.551   3.713  11.356 -0.5707  1.4114 -1.2276
 1815TIP3    H226937   4.476   3.730  11.486  0.1903 -1.8507 -0.3073
 1816TIP3   OH226938   3.927   1.717   4.734 -0.0244  0.5953  0.6070
 1816TIP3    H126939   3.841   1.703   4.694 -0.5635 -1.3859  2.3529
 1816TIP3    H226940   3.918   1.683   4.823  1.6595  3.3246  1.8880
 1817TIP3   OH226941   0.959   3.888   2.350 -0.6052 -0.0507 -0.0228
 1817TIP3    H126942   1.045   3.863   2.385 -0.6884 -0.6477 -0.2495
 1817TIP3    H226943   0.922   3.807   2.315 -1.7261 -0.0183  1.0531
 1818TIP3   OH226944   5.503   2.357  12.015 -0.2382 -0.9103 -0.4127
 1818TIP3    H126945   5.567   2.324  12.078 -1.3463 -1.0649  0.6482
 1818TIP3    H226946   5.456   2.278  11.987 -0.1932 -0.7531 -0.9297
 1819TIP3   OH226947   0.035   6.139   5.786  0.4204  0.1493  0.3408
 1819TIP3    H126948   0.036   6.222   5.737 -1.7373 -0.3193 -0.5759
 1819TIP3    H226949   0.076   6.076   5.726 -0.6714 -0.0660 -0.1886
 1820TIP3   OH226950   3.378   2.171   5.128 -0.1522  0.1727  0.0653
 1820TIP3    H126951   3.407   2.142   5.042  0.6765 -0.1221  0.4463
 1820TIP3    H226952   3.458   2.188   5.176 -0.5908 -0.9702  1.2311
 1821TIP3   OH226953   6.147   4.255   1.641  0.7659  0.3022  0.3947
 1821TIP3    H126954   6.229   4.228   1.682  0.1942 -0.5242  1.0173
 1821TIP3    H226955   6.136   4.193   1.568  0.9570  0.7401 -0.0073
 1822TIP3   OH226956   0.453   2.604   3.002 -0.0337  0.0491  0.3505
 1822TIP3    H126957   0.376   2.550   3.019 -0.7867  0.8984 -0.3012
 1822TIP3    H226958   0.504   2.599   3.083 -0.6358 -0.7343  0.6882
 1823TIP3   OH226959   0.902   6.229  15.411 -0.0204 -0.3640 -0.3978
 1823TIP3    H126960   0.812   6.238  15.441 -0.3095 -0.2678 -1.2726
 1823TIP3    H226961   0.931   6.319  15.395 -0.1556 -0.4615 -1.2167
 1824TIP3   OH226962   2.581   2.412  12.467  0.1868  0.3137  0.0761
 1824TIP3    H126963   2.664   2.456  12.485  0.4282 -0.9134  2.1679
 1824TIP3    H226964   2.553   2.378  12.553 -0.9435 -1.8894 -1.1162
 1825TIP3   OH226965   6.651   1.222  10.366  0.1821  0.1974 -0.5184
 1825TIP3    H126966   6.692   1.152  10.314 -0.2315  0.2339 -0.8907
 1825TIP3    H226967   6.579   1.254  10.312 -0.3975  0.0819  0.1750
 1826TIP3   OH226968   0.601   2.619  14.000  0.5879  0.1268  0.1567
 1826TIP3    H126969   0.558   2.546  13.956  0.6863  0.7830 -1.0358
 1826TIP3    H226970   0.557   2.697  13.966  1.7285  0.7215  0.0179
 1827TIP3   OH226971   0.786   2.112   4.519  0.4566 -0.0160  0.0174
 1827TIP3    H126972   0.808   2.201   4.491 -1.8246  0.5503 -0.0811
 1827TIP3    H226973   0.814   2.056   4.447 -0.1531  0.8652 -0.9096
 1828TIP3   OH226974   5.951   3.375   4.947  0.2132  0.7290 -0.7534
 1828TIP3    H126975   6.019   3.338   4.890  1.7502  1.3283  0.6456
 1828TIP3    H226976   5.967   3.334   5.032 -1.1954  0.8872 -0.4035
 1829TIP3   OH226977   1.850   3.694  13.175  0.7698 -0.4956 -0.0960
 1829TIP3    H126978   1.880   3.613  13.215 -0.4397 -1.3631 -0.9041
 1829TIP3    H226979   1.771   3.718  13.224 -0.3747 -1.2401 -1.5416
 1830TIP3   OH226980   4.893   2.180   5.058  0.1359  0.5643  0.2395
 1830TIP3    H126981   4.883   2.119   4.985  0.1139  0.0776  0.6510
 1830TIP3    H226982   4.945   2.252   5.022  1.4175 -0.3868  0.1523
 1831TIP3   OH226983   4.430   6.246  12.539 -0.0595 -0.4711 -0.3974
 1831TIP3    H126984   4.490   6.320  12.545  0.6033 -0.9432 -1.1165
 1831TIP3    H226985   4.487   6.169  12.539 -0.7756 -1.0448  1.2791
 1832TIP3   OH226986   5.097   0.963  16.688 -0.4517  0.3328 -0.2013
 1832TIP3    H126987   5.024   0.970  16.626  0.0402 -1.1127 -0.9757
 1832TIP3    H226988   5.098   0.871  16.714  0.1663  0.6524  0.9610
 1833TIP3   OH226989   6.216   6.770   4.500  0.6433  0.4191  0.3263
 1833TIP3    H126990   6.302   6.768   4.458  0.7923  1.6188  0.5595
 1833TIP3    H226991   6.191   6.862   4.501 -1.0388 -0.0074 -0.4934
 1834TIP3   OH226992   3.328   4.925   5.881  0.3622  0.3760  0.0520
 1834TIP3    H126993   3.291   4.837   5.890  0.0159  0.6826  1.9498
 1834TIP3    H226994   3.296   4.956   5.796 -0.0438 -1.0841 -0.3441
 1835TIP3   OH226995   1.564   4.727  14.001  0.2146 -0.6256  0.8168
 1835TIP3    H126996   1.548   4.680  13.919  1.5904  0.8372 -0.3101
 1835TIP3    H226997   1.477   4.757  14.028 -0.4376 -2.2874  0.6402
 1836TIP3   OH226998   2.076   3.622   4.875 -0.2431 -0.0214 -0.4405
 1836TIP3    H126999   1.981   3.635   4.884 -0.5793 -2.3176 -0.5227
 1836TIP3    H227000   2.088   3.603   4.782  0.3502  0.5687 -0.4885
 1837TIP3   OH227001   1.369   6.071   5.357  1.0365 -0.0187 -0.7010
 1837TIP3    H127002   1.427   5.995   5.348  1.1841 -0.0221  0.2531
 1837TIP3    H227003   1.281   6.035   5.343  1.2860  0.1106 -2.8549
 1838TIP3   OH227004   0.204   6.380  14.286 -0.1087  0.4751 -0.0250
 1838TIP3    H127005   0.268   6.309  14.276 -1.5153 -0.4483 -2.9459
 1838TIP3    H227006   0.170   6.370  14.375 -0.0023 -2.2879 -0.2661
 1839TIP3   OH227007   6.597   3.883   1.481  0.0422 -0.0259  0.0171
 1839TIP3    H127008   6.617   3.833   1.402 -0.2623 -1.4324  0.8052
 1839TIP3    H227009   6.661   3.954   1.482  0.3998 -0.3192 -1.1974
 1840TIP3   OH227010   6.567   2.328   4.954 -0.1082  0.8031  0.3816
 1840TIP3    H127011   6.534   2.305   4.867  0.5597  0.1217  0.3099
 1840TIP3    H227012   6.658   2.354   4.939 -0.1331  1.1467  0.8104
 1841TIP3   OH227013   4.524   2.630  11.944 -0.4659 -0.0014 -0.0906
 1841TIP3    H127014   4.484   2.592  11.865 -0.8301  0.3280 -0.0625
 1841TIP3    H227015   4.582   2.561  11.976 -1.6692 -0.8174  0.3682
 1842TIP3   OH227016   5.044   1.697   0.390  0.0975 -0.2480 -0.3116
 1842TIP3    H127017   4.965   1.665   0.346  0.1291 -0.2681 -0.3544
 1842TIP3    H227018   5.016   1.777   0.435  0.0809 -0.1904 -0.4243
 1843TIP3   OH227019   2.607   3.002   2.634 -0.4581 -0.7118 -0.4292
 1843TIP3    H127020   2.530   2.950   2.611 -0.1791 -1.1150 -0.4605
 1843TIP3    H227021   2.575   3.064   2.699 -0.6773 -1.2894  0.0248
 1844TIP3   OH227022   4.608   0.652  17.239 -0.1027 -0.0214  0.0816
 1844TIP3    H127023   4.623   0.713  17.167 -0.6223  1.5843  1.3232
 1844TIP3    H227024   4.690   0.604  17.246  0.8819  1.6289  0.1314
 1845TIP3   OH227025   6.627   4.049   5.414 -0.0461  0.3958 -0.5781
 1845TIP3    H127026   6.648   4.036   5.506  0.2235 -0.0524 -0.6989
 1845TIP3    H227027   6.696   4.106   5.381  0.6366 -0.5524 -0.8206
 1846TIP3   OH227028   6.652   4.377  16.611  0.0297  0.3726 -0.3831
 1846TIP3    H127029   6.624   4.286  16.618  2.2078 -0.2063  1.2212
 1846TIP3    H227030   6.639   4.399  16.519  0.0026 -1.7330 -0.9087
 1847TIP3   OH227031   0.514   1.310   4.159 -0.2158  0.0691 -0.1002
 1847TIP3    H127032   0.567   1.305   4.079 -0.2413  2.1434 -0.2914
 1847TIP3    H227033   0.469   1.395   4.152  0.1038  0.4748  2.3091
 1848TIP3   OH227034   4.525   3.539   3.705 -0.4625  0.6008 -0.2124
 1848TIP3    H127035   4.507   3.537   3.799 -0.7551  0.0999 -0.2782
 1848TIP3    H227036   4.439   3.529   3.664 -0.2220 -0.1810 -0.5308
 1849TIP3   OH227037   1.160   2.286  12.323  0.0183 -0.2741 -0.0471
 1849TIP3    H127038   1.095   2.345  12.286 -1.5554 -1.1022  1.3033
 1849TIP3    H227039   1.244   2.324  12.299 -0.9672  1.6211 -0.5790
 1850TIP3   OH227040   1.030   5.708  14.426 -0.3299 -0.7725 -0.6178
 1850TIP3    H127041   1.056   5.683  14.515 -0.8089  0.3236 -0.1585
 1850TIP3    H227042   1.104   5.684  14.371  0.7720  0.3262  0.3567
 1851TIP3   OH227043   5.653   3.566   4.512  0.4241 -0.3507 -0.2187
 1851TIP3    H127044   5.714   3.576   4.586 -0.1275 -0.6988  0.2829
 1851TIP3    H227045   5.637   3.472   4.507  0.0795 -0.2759 -0.4823
 1852TIP3   OH227046   1.555   1.932   2.736  0.2307 -0.0373 -0.2649
 1852TIP3    H127047   1.615   2.002   2.759 -0.5962  1.8413 -3.5037
 1852TIP3    H227048   1.610   1.865   2.696  0.7396 -0.3719  0.9626
 1853TIP3   OH227049   0.410   0.915   5.507  0.1977 -0.0745  0.4623
 1853TIP3    H127050   0.483   0.873   5.551 -0.8509  0.5180  2.8490
 1853TIP3    H227051   0.450   0.963   5.434  1.9815 -0.9745  0.8278
 1854TIP3   OH227052   6.024   3.558  16.490  0.0660 -0.3027 -0.3744
 1854TIP3    H127053   5.963   3.546  16.417 -0.6922  3.1696 -0.4323
 1854TIP3    H227054   5.972   3.541  16.568 -0.1586 -0.3030 -0.5228
 1855TIP3   OH227055   4.395   1.029  11.557  0.6522 -0.6469  0.6520
 1855TIP3    H127056   4.325   0.967  11.578  1.0193 -0.5121  2.3607
 1855TIP3    H227057   4.458   0.979  11.505 -0.3023 -0.9861 -0.1997
 1856TIP3   OH227058   5.081   0.143  15.290  0.6925 -0.4521  0.2452
 1856TIP3    H127059   5.078   0.049  15.275  1.1462 -0.5011  0.4394
 1856TIP3    H227060   5.062   0.154  15.383  1.0932 -0.3912  0.3239
 1857TIP3   OH227061   6.221   2.202  11.032  0.4982  0.4610 -0.0943
 1857TIP3    H127062   6.151   2.194  10.968 -0.3254  0.5824  0.7860
 1857TIP3    H227063   6.275   2.124  11.019 -0.1220  0.0856 -0.3827
 1858TIP3   OH227064   1.842   5.297  13.711 -0.0639 -0.1587 -0.0074
 1858TIP3    H127065   1.771   5.301  13.647 -0.3608 -1.5319  0.2200
 1858TIP3    H227066   1.912   5.247  13.668  1.0723  1.8091 -0.5044
 1859TIP3   OH227067   0.787   5.847  13.843  0.0109  0.0705  0.0336
 1859TIP3    H127068   0.792   5.932  13.801  0.7146 -1.2234 -2.6072
 1859TIP3    H227069   0.703   5.811  13.815 -0.8779  0.4207  2.2006
 1860TIP3   OH227070   5.300   0.623  17.018 -0.1961  0.3503 -0.1480
 1860TIP3    H127071   5.312   0.714  17.047 -0.3295  0.2734  0.1463
 1860TIP3    H227072   5.372   0.609  16.956 -0.7654  0.9756 -0.9612
 1861TIP3   OH227073   3.322   3.467  11.406 -0.3461  0.3418 -0.2871
 1861TIP3    H127074   3.276   3.550  11.391  0.0329  0.5582 -0.2669
 1861TIP3    H227075   3.252   3.404  11.425 -0.5986  0.7965  0.3407
 1862TIP3   OH227076   4.796   1.453   3.664  0.7276 -0.1421  0.2697
 1862TIP3    H127077   4.847   1.487   3.737 -0.9665 -0.9041  1.8651
 1862TIP3    H227078   4.805   1.358   3.670  1.3960 -0.1832 -1.1483
 1863TIP3   OH227079   1.507   2.018   4.792 -0.2894 -0.0636 -0.2462
 1863TIP3    H127080   1.434   2.002   4.733  0.6447 -3.5750 -0.5617
 1863TIP3    H227081   1.574   2.059   4.737 -1.3101  1.4703 -0.3742
 1864TIP3   OH227082   1.822   4.933  12.818 -0.7760 -0.0215 -0.0194
 1864TIP3    H127083   1.820   5.014  12.868  1.0975  0.6540 -1.0035
 1864TIP3    H227084   1.760   4.948  12.746  0.7799  1.1893 -1.1365
 1865TIP3   OH227085   4.612   5.395  13.429 -0.2392  0.0926 -0.5199
 1865TIP3    H127086   4.671   5.320  13.431  0.3182  0.5402 -0.0489
 1865TIP3    H227087   4.647   5.451  13.359 -0.1422  0.3285 -0.2806
 1866TIP3   OH227088   2.373   1.758   1.616  0.2350  0.1870 -0.3914
 1866TIP3    H127089   2.337   1.760   1.528 -1.3223  1.1651  0.2476
 1866TIP3    H227090   2.412   1.845   1.628  1.3068 -0.2752 -0.4519
 1867TIP3   OH227091   2.628   3.650   2.892 -0.6750 -0.5613  0.1888
 1867TIP3    H127092   2.610   3.735   2.854 -0.0566 -0.5228 -0.0159
 1867TIP3    H227093   2.552   3.597   2.869 -1.1241 -0.0335  0.4313
 1868TIP3   OH227094   0.477   1.856  11.698  0.1634  0.5165  0.1226
 1868TIP3    H127095   0.562   1.812  11.706  0.0459  0.0796 -0.9348
 1868TIP3    H227096   0.496   1.948  11.714  1.2488  0.7605 -2.3361
 1869TIP3   OH227097   6.541   4.586   3.949 -0.3437 -0.7031  0.5576
 1869TIP3    H127098   6.569   4.568   3.859 -0.5062 -0.8124  0.5284
 1869TIP3    H227099   6.455   4.545   3.955 -0.3628 -0.6334  0.7421
 1870TIP3   OH227100   2.385   3.033  11.093 -0.2673 -0.3715 -0.0480
 1870TIP3    H127101   2.291   3.024  11.079 -0.1911  0.6954 -1.2545
 1870TIP3    H227102   2.422   2.950  11.062 -0.6905 -0.3418 -0.6332
 1871TIP3   OH227103   0.468   0.288  16.222  0.4914 -0.2404 -0.2768
 1871TIP3    H127104   0.498   0.201  16.198 -0.6244 -0.7360  0.1071
 1871TIP3    H227105   0.427   0.323  16.143  0.0005 -0.4734 -0.1219
 1872TIP3   OH227106   5.278   4.146  11.683 -0.0543 -0.2002 -0.5264
 1872TIP3    H127107   5.367   4.179  11.670  0.1263 -0.4119  0.1463
 1872TIP3    H227108   5.290   4.054  11.708 -0.3429  0.3758  1.8313
 1873TIP3   OH227109   1.317   0.960   2.077  0.4416  0.2355  0.2171
 1873TIP3    H127110   1.372   1.031   2.111  1.4696 -1.4931  2.2627
 1873TIP3    H227111   1.325   0.967   1.982  1.6857  1.9430  0.4236
 1874TIP3   OH227112   4.397   1.650   5.763  0.3093  0.0511 -0.3508
 1874TIP3    H127113   4.349   1.664   5.845 -0.3878 -1.2624 -0.5140
 1874TIP3    H227114   4.485   1.681   5.781 -0.0784  0.6313  0.6049
 1875TIP3   OH227115   0.931   2.110  15.837  0.0234  0.3673 -0.0852
 1875TIP3    H127116   0.957   2.056  15.913  0.8933  1.7506  0.6075
 1875TIP3    H227117   0.849   2.070  15.808  0.2264 -0.8447  0.9234
 1876TIP3   OH227118   5.909   6.148   3.474  0.0733  0.0043  0.2977
 1876TIP3    H127119   5.988   6.158   3.421  0.3689 -0.5307  0.6231
 1876TIP3    H227120   5.917   6.061   3.513 -0.6151 -0.0019  0.4412
 1877TIP3   OH227121   6.584   5.672   4.765 -0.3251  0.2755  0.0476
 1877TIP3    H127122   6.584   5.758   4.723 -1.6061  0.7506  0.9856
 1877TIP3    H227123   6.661   5.628   4.728 -0.0511  1.5521 -0.9724
 1878TIP3   OH227124   1.718   6.123  13.439 -0.5000 -0.5291 -0.6684
 1878TIP3    H127125   1.624   6.104  13.442 -0.6204  0.2132  0.3314
 1878TIP3    H227126   1.724   6.218  13.446  0.2623 -0.4490 -2.2206
 1879TIP3   OH227127   1.056   4.352  16.844  0.1608  0.2787  0.2512
 1879TIP3    H127128   1.066   4.447  16.842  2.5149  0.0750  0.3862
 1879TIP3    H227129   0.976   4.337  16.894 -1.1519  2.2168 -1.1892
 1880TIP3   OH227130   2.504   2.682   2.050  0.1993 -0.2565 -0.0337
 1880TIP3    H127131   2.469   2.689   2.138 -0.3368 -0.0924 -0.2572
 1880TIP3    H227132   2.575   2.619   2.058 -0.2357 -0.7054  0.4049
 1881TIP3   OH227133   1.476   4.241  13.636 -0.2547  0.5905  1.0300
 1881TIP3    H127134   1.535   4.309  13.601  0.2051 -0.0559  0.5248
 1881TIP3    H227135   1.474   4.256  13.730  1.0183  0.3986  1.0943
 1882TIP3   OH227136   1.041   4.864   0.092 -0.4940  0.0493 -0.7961
 1882TIP3    H127137   1.124   4.899   0.125 -1.3190  0.6958  0.6095
 1882TIP3    H227138   0.979   4.936   0.102 -1.1823 -0.3547 -2.0558
 1883TIP3   OH227139   0.744   5.517   5.872  0.1581 -0.3298 -0.2722
 1883TIP3    H127140   0.806   5.588   5.854 -1.5167  0.7745 -1.8999
 1883TIP3    H227141   0.669   5.537   5.817 -0.9814 -2.5496  0.4312
 1884TIP3   OH227142   5.757   6.716   5.798  0.2166  0.1458  0.3172
 1884TIP3    H127143   5.669   6.718   5.834  0.9484  1.6589  2.1067
 1884TIP3    H227144   5.745   6.689   5.707 -1.9736 -0.6510  0.8152
 1885TIP3   OH227145   5.085   0.247  13.644  0.3331 -0.4297 -0.3190
 1885TIP3    H127146   5.149   0.316  13.659 -0.4572  0.6001 -1.4896
 1885TIP3    H227147   5.093   0.227  13.550 -0.3641 -0.9799 -0.2690
 1886TIP3   OH227148   3.551   1.210   4.144  0.2804  0.7033  0.3051
 1886TIP3    H127149   3.524   1.301   4.154  0.2936  0.5926  1.4889
 1886TIP3    H227150   3.642   1.214   4.117 -0.6816  1.0793 -3.1735
 1887TIP3   OH227151   0.152   6.261  16.203 -0.1550  0.1390 -0.3259
 1887TIP3    H127152   0.160   6.194  16.136 -1.5739 -0.5106  0.1396
 1887TIP3    H227153   0.135   6.342  16.154  1.3319  0.1502 -0.8697
 1888TIP3   OH227154   4.912   5.441  16.564 -0.4675  0.0836  0.3610
 1888TIP3    H127155   4.993   5.428  16.514  0.5442 -1.2030  2.2463
 1888TIP3    H227156   4.941   5.442  16.656 -2.6005 -0.4146  1.0658
 1889TIP3   OH227157   4.776   3.302  11.100  0.8669 -0.0202  0.0839
 1889TIP3    H127158   4.867   3.306  11.128  0.8531 -0.4745  0.1877
 1889TIP3    H227159   4.752   3.210  11.106  0.5940  0.0044 -0.5713
 1890TIP3   OH227160   6.440   6.435  16.571 -0.2114  0.2519 -0.2227
 1890TIP3    H127161   6.462   6.341  16.570  2.2956  0.7670  1.8198
 1890TIP3    H227162   6.425   6.456  16.479  0.3648 -1.9031 -0.8624
 1891TIP3   OH227163   2.220   0.390  13.620  0.2635 -0.4043 -0.1159
 1891TIP3    H127164   2.147   0.339  13.655 -0.1444 -0.5667 -1.1782
 1891TIP3    H227165   2.248   0.446  13.692 -0.5127 -0.7874  0.4833
 1892TIP3   OH227166   6.500   1.715  12.183  0.0328 -0.2915 -0.1942
 1892TIP3    H127167   6.579   1.663  12.199  0.6613  1.0283  1.0656
 1892TIP3    H227168   6.531   1.806  12.183 -1.3119  0.1659 -0.7533
 1893TIP3   OH227169   4.503   1.446   4.393 -0.6392  0.0717 -0.0981
 1893TIP3    H127170   4.431   1.494   4.433 -0.0741  0.3031  0.6449
 1893TIP3    H227171   4.571   1.444   4.460  0.1843  0.1621 -0.9201
 1894TIP3   OH227172   1.800   2.804   0.821 -0.2710 -0.1277  0.0689
 1894TIP3    H127173   1.852   2.867   0.770  0.0789 -1.4457 -1.2273
 1894TIP3    H227174   1.840   2.719   0.803 -1.8206 -0.9559  0.3968
 1895TIP3   OH227175   4.505   3.751  11.759 -0.0437  0.6135  0.1791
 1895TIP3    H127176   4.441   3.773  11.691  1.6625 -0.7615 -1.9465
 1895TIP3    H227177   4.560   3.828  11.766 -0.0390  0.6485 -0.2135
 1896TIP3   OH227178   5.544   4.607   2.930 -0.2915 -0.8348  0.1111
 1896TIP3    H127179   5.461   4.652   2.912  0.6059  0.4589 -0.9470
 1896TIP3    H227180   5.568   4.566   2.848  0.1599 -1.1310  0.3865
 1897TIP3   OH227181   3.482   0.201   6.053  0.6567  0.2881 -0.1848
 1897TIP3    H127182   3.551   0.230   6.112  0.3757 -1.2519  0.9182
 1897TIP3    H227183   3.449   0.282   6.013  1.0458  1.3104  1.5327
 1898TIP3   OH227184   2.798   2.398   0.684 -0.4215  0.3089 -0.4343
 1898TIP3    H127185   2.799   2.491   0.661 -1.3110  0.1953 -0.9660
 1898TIP3    H227186   2.765   2.396   0.774  2.8910  0.7438  0.8419
 1899TIP3   OH227187   5.674   4.272   5.607 -0.0827  0.0984  0.4416
 1899TIP3    H127188   5.670   4.246   5.515 -1.7633  0.6310  0.3348
 1899TIP3    H227189   5.727   4.351   5.608  0.0243  0.0295 -0.0684
 1900TIP3   OH227190   3.235   6.092  12.833  0.0858  0.2603  0.0060
 1900TIP3    H127191   3.288   6.136  12.899 -0.7037  0.8344  0.2678
 1900TIP3    H227192   3.275   6.006  12.823  0.6052  0.4139  0.7544
 1901TIP3   OH227193   5.693   0.006   5.284  0.0742  0.8971 -0.6737
 1901TIP3    H127194   5.650   0.030   5.202  0.1241  0.4322 -0.8417
 1901TIP3    H227195   5.777  -0.031   5.257  0.2876  1.1703 -0.3875
 1902TIP3   OH227196   3.547   1.755  14.815 -0.0318 -0.4008  0.1796
 1902TIP3    H127197   3.607   1.830  14.820  0.3071 -0.5225 -1.7165
 1902TIP3    H227198   3.469   1.789  14.772  0.4912 -1.3459 -1.5507
 1903TIP3   OH227199   2.294   3.587  12.905 -0.1946  0.0316  0.4161
 1903TIP3    H127200   2.300   3.503  12.952  1.1533  0.0958  0.3933
 1903TIP3    H227201   2.378   3.594  12.860 -1.6839 -0.3115 -2.5028
 1904TIP3   OH227202   3.657   5.642  15.422  0.0064  0.0629  0.5806
 1904TIP3    H127203   3.723   5.644  15.491 -0.1449 -1.0942  0.7736
 1904TIP3    H227204   3.590   5.705  15.450  0.2151  0.0006  1.2203
 1905TIP3   OH227205   5.541   3.833  16.597  0.4212 -0.0459  0.5059
 1905TIP3    H127206   5.532   3.928  16.586  1.5267  0.3299  2.5477
 1905TIP3    H227207   5.633   3.816  16.578  0.5426 -0.5079  1.5168
 1906TIP3   OH227208   3.212   2.216  16.103 -0.0457 -0.0884 -0.0390
 1906TIP3    H127209   3.245   2.303  16.126  2.0543 -0.4327 -1.6047
 1906TIP3    H227210   3.287   2.157  16.117 -0.5151 -1.1794 -1.8727
 1907TIP3   OH227211   4.206   5.714   5.415  0.0541 -1.0168  0.1180
 1907TIP3    H127212   4.187   5.641   5.356  0.6185 -1.7401  0.7990
 1907TIP3    H227213   4.125   5.764   5.420 -0.6070 -2.0945  0.3143
 1908TIP3   OH227214   2.192   2.031  16.750  0.8149  0.0799  0.2690
 1908TIP3    H127215   2.176   2.125  16.748  2.0386  0.3272  1.6962
 1908TIP3    H227216   2.111   1.993  16.717  0.0568  1.5996  0.3217
 1909TIP3   OH227217   3.015   3.527   1.947 -0.1035  0.5393 -0.3187
 1909TIP3    H127218   3.056   3.494   1.867 -0.5806  0.6777 -0.6142
 1909TIP3    H227219   3.024   3.454   2.009 -2.3589 -0.6639 -1.3744
 1910TIP3   OH227220   6.410   3.371  12.265  0.7244  0.1950 -0.0530
 1910TIP3    H127221   6.387   3.279  12.278 -0.0895  0.5762  1.2270
 1910TIP3    H227222   6.452   3.372  12.179 -2.4993 -0.7880 -1.7349
 1911TIP3   OH227223   4.853   5.385   4.565  0.0252  0.3442  0.1444
 1911TIP3    H127224   4.895   5.347   4.488 -0.0307  1.0254 -0.2340
 1911TIP3    H227225   4.925   5.412   4.622  0.0520 -1.2263  0.8706
 1912TIP3   OH227226   0.353   4.772   3.882  0.4907  0.1316  0.1478
 1912TIP3    H127227   0.296   4.696   3.895 -2.7215  2.1333 -1.4188
 1912TIP3    H227228   0.343   4.824   3.962 -1.1312  1.2160 -0.7341
 1913TIP3   OH227229   6.187   2.850  13.087 -0.4403 -0.3886 -0.4425
 1913TIP3    H127230   6.133   2.771  13.084  0.4281 -1.1296  2.3252
 1913TIP3    H227231   6.126   2.922  13.073 -1.4940 -1.4404 -1.3440
 1914TIP3   OH227232   6.350   0.440  13.494  0.3465 -0.5197  0.4088
 1914TIP3    H127233   6.372   0.530  13.518 -0.5752 -0.0063 -0.6221
 1914TIP3    H227234   6.315   0.402  13.574  0.7327  0.0322  0.8499
 1915TIP3   OH227235   0.405   2.742  16.401 -0.0609 -0.8757 -0.3522
 1915TIP3    H127236   0.315   2.725  16.373  0.0619 -0.8173 -0.7816
 1915TIP3    H227237   0.427   2.826  16.362 -0.3583 -0.1441  1.0406
 1916TIP3   OH227238   4.427   6.517   2.535 -0.3031  0.4564  0.4894
 1916TIP3    H127239   4.369   6.460   2.484 -1.6521  1.5293  0.8042
 1916TIP3    H227240   4.458   6.461   2.606  0.4367 -0.6302 -0.6612
 1917TIP3   OH227241   5.459   3.477  12.300  0.2120 -0.0158 -0.4491
 1917TIP3    H127242   5.367   3.470  12.275  0.5642  0.5124 -1.9687
 1917TIP3    H227243   5.465   3.432  12.384 -1.5021  0.2737 -0.1589
 1918TIP3   OH227244   3.636   5.935   3.099 -0.6112  0.2033 -0.4694
 1918TIP3    H127245   3.711   5.989   3.127  0.9422 -1.7521 -0.7621
 1918TIP3    H227246   3.563   5.965   3.154  0.8741  0.7622  1.2518
 1919TIP3   OH227247   6.595   4.823   1.425 -0.0139  0.2642 -0.2602
 1919TIP3    H127248   6.530   4.787   1.486  0.7090  0.0633  0.3865
 1919TIP3    H227249   6.573   4.916   1.420 -0.6700  0.1047 -0.4384
 1920TIP3   OH227250   0.481   3.180   1.615 -0.2135 -0.1578  0.2862
 1920TIP3    H127251   0.502   3.190   1.523  0.2857 -1.1629  0.2809
 1920TIP3    H227252   0.532   3.248   1.659 -0.5444  0.3949 -0.1909
 1921TIP3   OH227253   1.482   5.420   4.533 -0.2879 -0.1449  0.2434
 1921TIP3    H127254   1.476   5.370   4.615  0.6493  0.4461  0.6858
 1921TIP3    H227255   1.518   5.357   4.470 -2.1252 -0.9463 -0.0331
 1922TIP3   OH227256   5.311   0.443   2.108 -0.2039  0.3096  0.0331
 1922TIP3    H127257   5.374   0.403   2.049 -0.9101  0.1254 -0.6055
 1922TIP3    H227258   5.297   0.530   2.073 -0.9090  0.0691 -0.3017
 1923TIP3   OH227259   0.170   6.062  12.325  0.1462 -0.3079  0.4170
 1923TIP3    H127260   0.185   6.117  12.248 -1.0728  0.9897  1.0914
 1923TIP3    H227261   0.186   6.119  12.400 -0.4516 -1.0549  1.1260
 1924TIP3   OH227262   5.057   6.030   3.696 -0.0736  0.1604  0.3185
 1924TIP3    H127263   5.140   6.077   3.704 -0.0094 -0.0215  0.7126
 1924TIP3    H227264   5.051   6.008   3.603  1.3611 -1.7396  0.6558
 1925TIP3   OH227265   3.845   2.959  11.389 -0.1233 -0.9144 -0.3781
 1925TIP3    H127266   3.913   3.019  11.360  0.1942 -0.0968  1.9103
 1925TIP3    H227267   3.764   2.997  11.356  0.3888 -1.0855 -1.8461
 1926TIP3   OH227268   1.424   2.309  11.165  0.1404  0.3509 -0.0887
 1926TIP3    H127269   1.510   2.328  11.127  0.6261  0.9961  1.2875
 1926TIP3    H227270   1.382   2.251  11.102  0.5746  2.0654 -2.0008
 1927TIP3   OH227271   0.666   6.449   6.036  0.1294 -0.3778  0.1748
 1927TIP3    H127272   0.656   6.459   5.942  1.6123  0.1760  0.0541
 1927TIP3    H227273   0.645   6.535   6.072 -0.2339 -0.5307  0.3260
 1928TIP3   OH227274   1.223   1.787   1.946  0.0344 -0.0440 -0.2113
 1928TIP3    H127275   1.170   1.838   1.885 -0.5941 -1.3444 -0.7705
 1928TIP3    H227276   1.270   1.725   1.891  0.2980 -0.5016  0.5281
 1929TIP3   OH227277   3.141   2.560  12.616  0.0858 -0.5023 -0.2616
 1929TIP3    H127278   3.212   2.526  12.670 -1.2785 -2.6316  0.2674
 1929TIP3    H227279   3.145   2.509  12.535  0.3810  0.7465 -1.0460
 1930TIP3   OH227280   2.793   6.267   1.036  0.2168  0.0777  0.0177
 1930TIP3    H127281   2.831   6.224   0.960  0.0710  0.2058 -0.1269
 1930TIP3    H227282   2.712   6.219   1.053  0.9662 -0.8637  0.9635
 1931TIP3   OH227283   5.224   1.439  13.594  0.6989  1.2502 -0.4524
 1931TIP3    H127284   5.142   1.479  13.624 -0.3598 -1.0745 -0.1658
 1931TIP3    H227285   5.269   1.414  13.675  1.1182  1.3926 -0.6410
 1932TIP3   OH227286   2.519   3.097  14.513 -0.1158  0.0300 -0.1220
 1932TIP3    H127287   2.505   3.177  14.462 -0.7298 -0.4316 -0.6887
 1932TIP3    H227288   2.547   3.032  14.448 -0.3297 -0.4124  0.2268
 1933TIP3   OH227289   6.086   4.913  13.915 -0.0672 -0.3505 -0.3243
 1933TIP3    H127290   6.043   4.952  13.991  0.8226 -1.8517  0.9856
 1933TIP3    H227291   6.116   4.827  13.946  0.2917 -0.9916 -2.3820
 1934TIP3   OH227292   0.567   0.400   2.039  0.3788 -0.2218  0.1298
 1934TIP3    H127293   0.629   0.420   1.970  0.9121  0.6192  0.8467
 1934TIP3    H227294   0.618   0.351   2.104  0.0810 -0.2972  0.3093
 1935TIP3   OH227295   4.914   2.944  10.308 -0.5193 -1.5378 -0.1388
 1935TIP3    H127296   4.938   2.999  10.383 -0.5315 -1.1711 -0.3980
 1935TIP3    H227297   4.839   2.990  10.269  1.3885 -0.0360 -2.1964
 1936TIP3   OH227298   0.498   5.425  12.491  0.0678 -0.2598 -0.3534
 1936TIP3    H127299   0.509   5.422  12.396 -0.2027 -1.3400 -0.3497
 1936TIP3    H227300   0.542   5.506  12.517  2.0374 -1.0536 -1.1245
 1937TIP3   OH227301   3.274   6.163  15.923  0.4839 -0.4949  0.3700
 1937TIP3    H127302   3.308   6.087  15.875 -0.3180  0.6603 -2.1218
 1937TIP3    H227303   3.346   6.225  15.923  0.6371 -0.6681  1.1009
 1938TIP3   OH227304   6.642   6.173  13.970  0.8815 -0.4819 -0.2405
 1938TIP3    H127305   6.643   6.231  14.046  1.1166  1.3422 -1.6065
 1938TIP3    H227306   6.581   6.104  13.994 -0.8232  1.3054  0.7131
 1939TIP3   OH227307   0.095   6.416  15.431 -0.0025 -0.2607  0.1569
 1939TIP3    H127308   0.137   6.405  15.346  1.3066  2.5978  0.3902
 1939TIP3    H227309   0.161   6.392  15.495 -0.8249 -1.9225  0.4102
 1940TIP3   OH227310   4.493   0.413  13.808 -0.2155  0.0584  0.2624
 1940TIP3    H127311   4.453   0.453  13.885  0.4589 -0.9251  1.1385
 1940TIP3    H227312   4.576   0.377  13.840  0.4129  0.2649 -1.0750
 1941TIP3   OH227313   3.389   0.811   0.185  0.5832  0.5240 -0.0754
 1941TIP3    H127314   3.346   0.727   0.165 -0.4959  0.7420  1.2514
 1941TIP3    H227315   3.408   0.807   0.279  0.3987  1.8170  0.0256
 1942TIP3   OH227316   5.906   3.888  13.419  0.0436 -0.5492 -0.2425
 1942TIP3    H127317   5.994   3.926  13.417 -0.6205  1.3251  2.4233
 1942TIP3    H227318   5.859   3.933  13.348  0.2878  1.0897  0.5901
 1943TIP3   OH227319   0.218   4.545   4.584 -0.3333 -0.4379  0.2218
 1943TIP3    H127320   0.208   4.460   4.627  0.2917 -0.9784 -0.6935
 1943TIP3    H227321   0.154   4.601   4.628  0.8869 -0.7329  2.4927
 1944TIP3   OH227322   6.758   6.297   0.936 -0.2966 -0.0127 -0.2970
 1944TIP3    H127323   6.764   6.210   0.977  0.5099 -0.4749 -1.3689
 1944TIP3    H227324   6.836   6.343   0.968  0.2002 -0.2876 -1.1018
 1945TIP3   OH227325   1.846   5.445  16.487  0.0469  0.0215 -0.0958
 1945TIP3    H127326   1.873   5.360  16.453  0.8749 -0.4261  1.6440
 1945TIP3    H227327   1.916   5.505  16.461  0.1751 -0.1156 -0.0628
 1946TIP3   OH227328   2.973   0.380   1.516  0.2330  0.7899 -0.4401
 1946TIP3    H127329   2.880   0.382   1.494  0.5796  1.1843 -1.8987
 1946TIP3    H227330   3.018   0.371   1.432  1.5449  1.5056  0.1655
 1947TIP3   OH227331   5.724   3.856   4.911 -0.0094 -0.1610 -0.1481
 1947TIP3    H127332   5.680   3.781   4.951 -0.8789  0.4470  0.0623
 1947TIP3    H227333   5.810   3.860   4.953  0.0511 -1.0518 -0.1809
 1948TIP3   OH227334   2.252   2.819  11.758  0.0258  0.3997  0.6339
 1948TIP3    H127335   2.171   2.844  11.713  0.2641 -1.5973 -0.9599
 1948TIP3    H227336   2.226   2.810  11.850 -1.5945 -0.3305  0.1180
 1949TIP3   OH227337   3.168   2.116   5.696 -0.2893  0.1909  0.0150
 1949TIP3    H127338   3.209   2.158   5.772  1.5233  2.5384 -2.1263
 1949TIP3    H227339   3.087   2.165   5.682 -0.5157 -0.0992  0.3305
 1950TIP3   OH227340   3.237   2.795   5.849  0.7063 -0.1942 -0.0491
 1950TIP3    H127341   3.200   2.855   5.914  1.7724  1.2819 -0.7705
 1950TIP3    H227342   3.216   2.707   5.882 -0.4443  0.5652  1.2760
 1951TIP3   OH227343   0.744   0.086   5.626 -0.0405 -0.2430 -0.2718
 1951TIP3    H127344   0.764   0.127   5.710 -0.0459 -0.2292 -0.2772
 1951TIP3    H227345   0.767   0.152   5.561  0.2223 -0.3581 -0.2942
 1952TIP3   OH227346   4.948   4.988   4.257 -0.4864  0.0306 -0.1212
 1952TIP3    H127347   4.947   4.892   4.255 -0.2297  0.0120  0.5963
 1952TIP3    H227348   4.939   5.010   4.349  1.8443  0.6812 -0.0296
 1953TIP3   OH227349   1.956   3.719  14.561  0.0368 -0.6421 -0.1138
 1953TIP3    H127350   2.023   3.667  14.606  0.8767 -0.4010 -1.0616
 1953TIP3    H227351   1.884   3.726  14.624  1.6061  0.5941  1.5750
 1954TIP3   OH227352   2.200   2.663   2.564 -0.6520 -0.3562 -0.1155
 1954TIP3    H127353   2.170   2.661   2.474 -0.5890 -4.2118 -0.1117
 1954TIP3    H227354   2.120   2.661   2.617 -0.6686  1.2486 -0.0535
 1955TIP3   OH227355   6.570   3.717  14.168  0.1208  0.0102  0.2797
 1955TIP3    H127356   6.661   3.731  14.197 -0.7293  1.4254  2.3746
 1955TIP3    H227357   6.545   3.633  14.206  0.1969  0.1356  0.6062
 1956TIP3   OH227358   4.376   5.400  13.790  0.2930 -0.5633  0.3334
 1956TIP3    H127359   4.458   5.354  13.809 -1.0009 -2.4711  1.4676
 1956TIP3    H227360   4.327   5.339  13.735 -0.3276  0.6121 -0.4299
 1957TIP3   OH227361   5.859   5.784  15.143 -0.1859  0.7620  0.2618
 1957TIP3    H127362   5.894   5.720  15.205 -1.3588  0.4424  0.6038
 1957TIP3    H227363   5.765   5.788  15.162 -0.4351  1.2229 -0.9760
 1958TIP3   OH227364   6.186   3.845  15.102 -0.0679 -0.1200 -0.3568
 1958TIP3    H127365   6.123   3.912  15.130  0.4866  0.6647 -0.9605
 1958TIP3    H227366   6.205   3.867  15.011  0.5141 -0.7956 -0.4033
 1959TIP3   OH227367   1.178   6.552  15.903 -0.1634  0.0763 -0.1257
 1959TIP3    H127368   1.133   6.572  15.821 -2.0130  0.7638  1.0350
 1959TIP3    H227369   1.164   6.459  15.917  0.8960 -0.2268 -1.0185
 1960TIP3   OH227370   0.828   0.144  12.003  0.1186  0.3318 -0.5248
 1960TIP3    H127371   0.914   0.139  12.043  0.6525 -0.9987 -1.7984
 1960TIP3    H227372   0.799   0.052  11.996 -1.4345  0.7583 -0.0334
 1961TIP3   OH227373   5.356   4.998   2.803 -0.0448  0.4966  0.0294
 1961TIP3    H127374   5.321   4.909   2.800  1.7505 -0.2748  0.8157
 1961TIP3    H227375   5.389   5.014   2.714  0.7478 -0.1207  0.2004
 1962TIP3   OH227376   1.895   0.697   4.836  0.6282 -0.4796  0.1427
 1962TIP3    H127377   1.897   0.744   4.752  1.8457  0.5910  0.7515
 1962TIP3    H227378   1.984   0.704   4.869 -0.5223  1.8823  3.0180
 1963TIP3   OH227379   6.121   6.375   0.124  0.0427  0.5056  0.3381
 1963TIP3    H127380   6.033   6.339   0.126  0.4259 -0.5461 -0.7167
 1963TIP3    H227381   6.153   6.354   0.035  2.1932 -1.2485  1.4620
 1964TIP3   OH227382   4.717   3.284   4.452  0.1678 -0.0287 -0.2414
 1964TIP3    H127383   4.805   3.315   4.429 -0.1815  2.1380  1.2172
 1964TIP3    H227384   4.683   3.351   4.511 -2.9886 -0.1872 -1.8191
 1965TIP3   OH227385   2.415   1.559   4.005  0.3437  0.1359 -0.0433
 1965TIP3    H127386   2.501   1.539   3.967 -0.1442  0.8054 -1.5696
 1965TIP3    H227387   2.433   1.583   4.095  1.8471  0.8788 -0.5175
 1966TIP3   OH227388   2.724   2.408   3.634 -0.2778 -0.6120  0.3039
 1966TIP3    H127389   2.655   2.420   3.569  1.1939  0.9033 -1.0500
 1966TIP3    H227390   2.805   2.416   3.584  0.8854 -0.6589  2.1360
 1967TIP3   OH227391   6.492   4.052   1.150 -0.2843  0.0700  0.0269
 1967TIP3    H127392   6.449   4.025   1.230 -1.2587 -0.4301 -0.6508
 1967TIP3    H227393   6.482   3.978   1.091 -0.2979  0.7302 -0.8194
 1968TIP3   OH227394   3.325   0.408  16.089  0.2860  0.1281  0.3810
 1968TIP3    H127395   3.372   0.406  16.172 -2.5597  0.8574  2.0602
 1968TIP3    H227396   3.348   0.493  16.051  0.0188  0.6471  1.3724
 1969TIP3   OH227397   6.724   4.151  17.109 -0.3115  0.4439  0.7741
 1969TIP3    H127398   6.648   4.175  17.056 -0.6431 -1.7277  0.2043
 1969TIP3    H227399   6.707   4.189  17.195 -1.2650  1.3349  0.1973
 1970TIP3   OH227400   1.364   1.916   4.521  0.1231 -0.0105 -0.5973
 1970TIP3    H127401   1.324   1.830   4.523 -0.2885  0.1718 -0.9165
 1970TIP3    H227402   1.295   1.974   4.490  1.0874  0.0371 -2.7872
 1971TIP3   OH227403   5.665   5.063   3.389  0.5040 -0.2915 -0.0534
 1971TIP3    H127404   5.713   5.116   3.453  0.2291 -0.5872  0.4019
 1971TIP3    H227405   5.732   5.007   3.349  0.0168 -3.3906  3.2398
 1972TIP3   OH227406   0.190   0.227  13.015 -0.2236  0.6248  0.6319
 1972TIP3    H127407   0.115   0.189  13.062 -0.1753  0.4630  0.5806
 1972TIP3    H227408   0.193   0.178  12.932 -0.7009  1.3528  0.1852
 1973TIP3   OH227409   3.847   1.761  15.481  0.2114  0.3373  0.6533
 1973TIP3    H127410   3.792   1.701  15.531  1.0403 -0.9115  0.0941
 1973TIP3    H227411   3.799   1.776  15.399  0.4007 -0.2175  0.4439
 1974TIP3   OH227412   3.252   3.022  13.994  0.4577 -0.5184  0.5985
 1974TIP3    H127413   3.186   3.044  14.060  1.3247 -0.1879  1.3614
 1974TIP3    H227414   3.268   3.105  13.948  1.3004 -0.2960  1.2846
 1975TIP3   OH227415   1.506   2.072  15.008  0.9347  0.2231 -0.2688
 1975TIP3    H127416   1.468   1.992  14.969 -0.2899  0.5785  0.1732
 1975TIP3    H227417   1.596   2.073  14.976  1.4108 -2.1084  0.8669
 1976TIP3   OH227418   1.849   3.846   2.450  0.0067  0.2026  0.8997
 1976TIP3    H127419   1.866   3.932   2.412  1.0921  0.5032  2.0349
 1976TIP3    H227420   1.755   3.847   2.471  0.0118  1.1002  0.8970
 1977TIP3   OH227421   6.567   5.515   6.768 -0.4668 -0.0015  0.7745
 1977TIP3    H127422   6.618   5.440   6.738 -0.3076 -0.4120  2.0352
 1977TIP3    H227423   6.478   5.480   6.781 -0.3896  0.0308  1.3754
 1978TIP3   OH227424   1.424   0.209  15.596 -0.7077 -0.3118 -0.0983
 1978TIP3    H127425   1.349   0.259  15.629 -0.1849  1.0430 -0.9012
 1978TIP3    H227426   1.475   0.273  15.546  0.7268 -1.3393  0.0277
 1979TIP3   OH227427   1.969   3.782   5.450  0.6769  0.8064  0.1502
 1979TIP3    H127428   2.005   3.869   5.468  0.0606  1.0170  0.3806
 1979TIP3    H227429   1.899   3.797   5.386 -1.8016  0.9626  2.7767
 1980TIP3   OH227430   0.477   4.407   1.551  0.6642 -0.7194 -0.2403
 1980TIP3    H127431   0.428   4.366   1.480  0.2548  0.2172 -0.5041
 1980TIP3    H227432   0.418   4.402   1.627  1.0506 -1.6039  0.0084
 1981TIP3   OH227433   1.854   2.612   2.554 -0.4308 -0.5170 -0.4001
 1981TIP3    H127434   1.803   2.554   2.497  0.1521 -0.3617 -1.0948
 1981TIP3    H227435   1.793   2.681   2.580 -1.0461 -1.2780  0.1891
 1982TIP3   OH227436   2.398   0.141  15.278 -0.5671 -0.1982  0.3189
 1982TIP3    H127437   2.390   0.179  15.366 -1.9588  0.8347 -0.2338
 1982TIP3    H227438   2.468   0.193  15.237 -0.3490 -0.2654  0.6011
 1983TIP3   OH227439   0.227   1.253  11.693 -0.7805  0.0766  0.4116
 1983TIP3    H127440   0.151   1.252  11.751 -0.3509  0.1102  0.9737
 1983TIP3    H227441   0.192   1.225  11.608 -1.1371 -1.3710  1.0113
 1984TIP3   OH227442   2.319   2.268   0.891 -0.2806 -0.2852 -0.6813
 1984TIP3    H127443   2.266   2.203   0.845  0.2994 -0.4599 -1.1002
 1984TIP3    H227444   2.301   2.252   0.984 -1.5323  0.1358 -0.8423
 1985TIP3   OH227445   3.508   0.012  14.514 -0.4383  0.1478 -0.2151
 1985TIP3    H127446   3.474   0.064  14.442 -0.7351  0.0424 -0.1542
 1985TIP3    H227447   3.430  -0.027  14.553 -0.3145  0.5434  0.4260
 1986TIP3   OH227448   2.861   5.413  13.085  0.0948  0.0098 -0.6337
 1986TIP3    H127449   2.847   5.321  13.104 -1.4248  0.2820 -0.3384
 1986TIP3    H227450   2.773   5.448  13.067  0.9041  0.8741 -3.1665
 1987TIP3   OH227451   2.032   3.710   2.580  0.2788 -0.1589  0.5653
 1987TIP3    H127452   1.973   3.771   2.534 -0.5099 -2.2559 -1.3197
 1987TIP3    H227453   2.111   3.710   2.527 -1.3710 -4.1569 -2.1808
 1988TIP3   OH227454   5.467   4.331   2.612  0.1199 -0.1761 -0.5784
 1988TIP3    H127455   5.560   4.318   2.631  0.0033  2.3706  2.1385
 1988TIP3    H227456   5.430   4.243   2.616  2.1234 -1.0310  0.0261
 1989TIP3   OH227457   2.592   4.542   1.310  0.3504 -0.1864 -0.1045
 1989TIP3    H127458   2.618   4.466   1.257 -0.9464 -0.7222  0.0077
 1989TIP3    H227459   2.497   4.546   1.301  0.3764  1.2213  0.1893
 1990TIP3   OH227460   1.899   1.012  15.839  0.3897 -0.2617  0.2355
 1990TIP3    H127461   1.804   1.023  15.834  0.4041 -0.0025  0.5072
 1990TIP3    H227462   1.924   1.052  15.922  0.8661  0.5813 -0.3019
 1991TIP3   OH227463   5.867   4.460   6.259 -0.3202  0.1872  0.0243
 1991TIP3    H127464   5.816   4.534   6.227  2.9582  1.5696 -2.1199
 1991TIP3    H227465   5.841   4.387   6.203  0.3098  0.9777 -1.3166
 1992TIP3   OH227466   2.231   3.875   3.801 -0.1605  0.2037  0.0176
 1992TIP3    H127467   2.184   3.807   3.850 -0.9625  1.5760  1.1989
 1992TIP3    H227468   2.173   3.895   3.727 -0.2029  0.0314  0.0027
 1993TIP3   OH227469   6.710   1.034   6.439 -0.3685  0.1405 -0.3260
 1993TIP3    H127470   6.627   1.065   6.475  0.7597  2.3270  0.4721
 1993TIP3    H227471   6.737   1.103   6.378  0.8358 -0.5937 -0.6417
 1994TIP3   OH227472   1.828   1.338  11.820 -0.0582  0.1055  0.0784
 1994TIP3    H127473   1.787   1.342  11.733  2.1217  0.3442 -0.9634
 1994TIP3    H227474   1.890   1.265  11.814 -1.5291 -1.3736  2.1851
 1995TIP3   OH227475   4.862   0.709   1.341 -0.2601  0.8518 -0.4412
 1995TIP3    H127476   4.889   0.752   1.260 -1.6864  2.2783 -0.1927
 1995TIP3    H227477   4.927   0.736   1.406  1.7394 -1.4988 -1.4109
 1996TIP3   OH227478   2.634   0.741   1.702 -0.0372 -0.3731 -0.4736
 1996TIP3    H127479   2.571   0.731   1.631 -0.6046 -1.0216  0.1113
 1996TIP3    H227480   2.607   0.676   1.767  0.4414  0.2504  0.3572
 1997TIP3   OH227481   1.255   0.991   5.188  0.4611 -0.2359 -0.2708
 1997TIP3    H127482   1.167   1.028   5.181  0.1734 -0.5759  1.3383
 1997TIP3    H227483   1.303   1.027   5.113 -1.4927 -1.2793 -2.0753
 1998TIP3   OH227484   2.694   2.177  14.176 -0.3491  0.3632  0.0253
 1998TIP3    H127485   2.775   2.203  14.132  0.5455 -1.3414  0.6199
 1998TIP3    H227486   2.710   2.088  14.206 -2.0574  0.3920  1.1201
 1999TIP3   OH227487   6.081   1.331   5.691 -0.1072  0.5333 -0.9480
 1999TIP3    H127488   5.994   1.296   5.672 -0.5575  2.0461 -1.7951
 1999TIP3    H227489   6.142   1.269   5.652 -0.6963 -1.8238  1.7310
 2000TIP3   OH227490   0.817   0.877  14.795  0.1117  0.0378 -0.3992
 2000TIP3    H127491   0.787   0.807  14.738 -1.3481 -0.7577  1.2885
 2000TIP3    H227492   0.886   0.837  14.848  1.1561  0.6441 -1.3022
 2001TIP3   OH227493   5.508   3.152  15.221 -0.0455 -0.5665  0.3030
 2001TIP3    H127494   5.514   3.220  15.289 -0.2264  2.0723 -2.1875
 2001TIP3    H227495   5.425   3.170  15.177  0.8368 -1.1688 -1.6552
 2002TIP3   OH227496   5.343   2.461  11.362 -0.0979 -0.0304  0.6646
 2002TIP3    H127497   5.387   2.382  11.329  1.6130  0.5386  1.4776
 2002TIP3    H227498   5.279   2.429  11.426 -0.6600 -0.8682 -0.3160
 2003TIP3   OH227499   5.808   1.571   5.830  0.0199 -0.1528 -0.6085
 2003TIP3    H127500   5.898   1.552   5.859  0.5272  1.3759 -1.1382
 2003TIP3    H227501   5.774   1.486   5.802  0.9317 -0.9463  0.5887
 2004TIP3   OH227502   6.222   4.228   5.191 -0.4918 -0.3081  0.4356
 2004TIP3    H127503   6.296   4.210   5.249  0.0297  0.6861  0.1002
 2004TIP3    H227504   6.248   4.190   5.107  0.5827  1.8512 -0.2555
 2005TIP3   OH227505   5.014   2.563  13.215  0.5900 -0.1154  0.1153
 2005TIP3    H127506   5.003   2.482  13.164  0.5974 -0.3209  0.4343
 2005TIP3    H227507   4.949   2.623  13.179  0.7989 -0.1621 -0.3343
 2006TIP3   OH227508   6.692   5.603   3.417  0.8710  0.0951 -0.3761
 2006TIP3    H127509   6.610   5.603   3.367 -0.3773  1.6608  1.5550
 2006TIP3    H227510   6.738   5.525   3.388 -1.7610 -1.3597 -0.8539
 2007TIP3   OH227511   2.497   4.096  11.151 -0.4068 -0.4502 -0.0607
 2007TIP3    H127512   2.551   4.125  11.077 -0.0718  0.4647  0.5341
 2007TIP3    H227513   2.519   4.004  11.162 -2.8608 -1.5133 -3.1847
 2008TIP3   OH227514   4.155   0.915   4.131  0.1056  0.1133  0.8979
 2008TIP3    H127515   4.142   0.984   4.066  0.7096 -2.2920 -1.8390
 2008TIP3    H227516   4.073   0.912   4.179 -1.9927 -0.9477 -2.6018
 2009TIP3   OH227517   5.719   4.454   3.402  0.3447  0.0246 -0.0491
 2009TIP3    H127518   5.682   4.466   3.314 -0.4320  1.6609  0.4673
 2009TIP3    H227519   5.674   4.378   3.437  1.0925 -1.0051 -1.2860
 2010TIP3   OH227520   4.262   0.879   0.448 -0.0347 -0.3556 -0.6229
 2010TIP3    H127521   4.327   0.840   0.389 -1.2642  0.4697 -2.5918
 2010TIP3    H227522   4.204   0.806   0.471  0.9863 -0.8814  0.3463
 2011TIP3   OH227523   4.084   0.675  15.943 -0.2634 -0.0405  0.5079
 2011TIP3    H127524   4.017   0.618  15.981  2.1233 -1.8910  2.0711
 2011TIP3    H227525   4.056   0.764  15.966 -2.4148 -0.7511  0.7067
 2012TIP3   OH227526   1.345   1.841  17.051 -0.4059  0.0244  0.3696
 2012TIP3    H127527   1.313   1.753  17.070 -0.0713 -0.3227 -0.6586
 2012TIP3    H227528   1.267   1.896  17.052 -0.6106 -0.2620  1.0719
 2013TIP3   OH227529   6.745   4.754  13.515 -0.2017  0.6463  0.0126
 2013TIP3    H127530   6.692   4.679  13.541  0.3652  0.2857  0.1402
 2013TIP3    H227531   6.682   4.821  13.490 -0.7253 -0.4834 -1.8470
 2014TIP3   OH227532   1.474   4.569   3.961  0.0063  0.5480 -0.0951
 2014TIP3    H127533   1.519   4.639   4.009  0.2204  1.1735 -1.1999
 2014TIP3    H227534   1.527   4.555   3.883 -0.7928  0.1076 -0.5610
 2015TIP3   OH227535   4.057   3.154   2.697  0.0019  0.4244 -0.5769
 2015TIP3    H127536   4.054   3.133   2.791  0.2018 -0.9592 -0.8792
 2015TIP3    H227537   4.118   3.228   2.691  0.5272  0.0711  0.2987
 2016TIP3   OH227538   0.321   4.842  12.099  0.3792 -0.1441 -0.1480
 2016TIP3    H127539   0.411   4.862  12.074  0.3194 -1.9559 -1.9037
 2016TIP3    H227540   0.267   4.892  12.037  0.2229 -1.6084 -1.2363
 2017TIP3   OH227541   4.134   6.114  13.714  0.5051  0.3498  0.1964
 2017TIP3    H127542   4.225   6.090  13.699  0.5490  1.7073 -1.7850
 2017TIP3    H227543   4.083   6.041  13.679  0.7631  1.0145 -1.6005
 2018TIP3   OH227544   4.868   2.512  14.164  0.3347  0.5503  0.3916
 2018TIP3    H127545   4.860   2.491  14.071  2.6784  0.2934  0.2353
 2018TIP3    H227546   4.847   2.605  14.169 -1.2523  0.2410 -0.1645
 2019TIP3   OH227547   3.986   4.697  13.783 -0.1872 -0.0002  0.0874
 2019TIP3    H127548   3.949   4.623  13.832 -1.2998  1.4333  1.4906
 2019TIP3    H227549   3.918   4.719  13.719  0.9557 -1.3955 -1.6598
 2020TIP3   OH227550   6.315   4.560  15.337 -0.3414 -0.3196 -0.3493
 2020TIP3    H127551   6.293   4.652  15.348 -3.3827 -1.0040 -0.2388
 2020TIP3    H227552   6.298   4.542  15.244 -0.5274 -0.9615 -0.1931
 2021TIP3   OH227553   2.816   5.165  11.558 -0.3046 -0.1326 -0.7136
 2021TIP3    H127554   2.815   5.260  11.570  0.9037 -0.1373 -0.4855
 2021TIP3    H227555   2.845   5.153  11.467  1.9270 -0.3131 -0.0081
 2022TIP3   OH227556   2.383   6.496  10.836  0.2064  0.2078  0.1698
 2022TIP3    H127557   2.433   6.463  10.911  2.0029  0.5602 -0.8554
 2022TIP3    H227558   2.449   6.520  10.772 -1.3667 -4.0716 -3.2789
 2023TIP3   OH227559   1.823   0.027  15.742  0.1904  0.1980 -0.2865
 2023TIP3    H127560   1.767   0.012  15.666  1.4390 -1.1897 -0.9330
 2023TIP3    H227561   1.911   0.005  15.713  0.7210 -0.1254  1.4955
 2024TIP3   OH227562   4.131   2.721   1.928 -0.2426  0.8034  0.1502
 2024TIP3    H127563   4.079   2.702   1.849 -0.5529 -0.3763  0.6211
 2024TIP3    H227564   4.213   2.675   1.914  0.5431  2.3563 -0.4223
 2025TIP3   OH227565   6.754   4.165  12.228 -1.0017 -0.1684 -0.3510
 2025TIP3    H127566   6.676   4.109  12.234 -0.3460 -0.9426  0.9498
 2025TIP3    H227567   6.776   4.164  12.134 -0.9133 -2.2086 -0.3382
 2026TIP3   OH227568   3.188   6.620  16.700 -0.2776  0.0956 -0.3235
 2026TIP3    H127569   3.131   6.644  16.628  1.0397  1.2732 -0.9880
 2026TIP3    H227570   3.253   6.561  16.662  0.4878  0.8062 -0.1380
 2027TIP3   OH227571   5.110   1.596   6.051 -0.1495 -0.3469 -0.0205
 2027TIP3    H127572   5.020   1.566   6.063  0.1533 -1.2655 -0.0406
 2027TIP3    H227573   5.121   1.665   6.117 -1.3143  0.7668 -0.9663
 2028TIP3   OH227574   3.344   2.819  10.543  0.1030  0.0144 -0.1410
 2028TIP3    H127575   3.325   2.908  10.512  0.0172 -0.0314 -0.2198
 2028TIP3    H227576   3.339   2.765  10.464  0.8223  0.0385 -0.2070
 2029TIP3   OH227577   2.614   2.946  14.308 -0.2475 -0.1136  0.1258
 2029TIP3    H127578   2.666   2.879  14.353 -0.3630  0.0632  0.5207
 2029TIP3    H227579   2.572   2.899  14.237  0.5381 -0.2406 -0.2661
 2030TIP3   OH227580   2.933   5.114   3.203  0.7168 -0.2880  0.4161
 2030TIP3    H127581   2.969   5.025   3.202  1.3092 -0.0620 -1.8324
 2030TIP3    H227582   3.008   5.170   3.222  0.4731 -0.1967  1.1469
 2031TIP3   OH227583   5.927   3.344  16.776 -0.0700 -0.0855  0.0824
 2031TIP3    H127584   6.022   3.358  16.784  0.2997 -0.2971 -3.0842
 2031TIP3    H227585   5.919   3.252  16.748 -0.9977  0.6423 -2.1997
 2032TIP3   OH227586   3.962   0.739  15.341  0.0311  0.0257  0.1812
 2032TIP3    H127587   3.952   0.809  15.276 -0.3558  0.6097  0.8633
 2032TIP3    H227588   4.054   0.743  15.366  0.1213 -0.0307 -0.1333
 2033TIP3   OH227589   2.783   3.001  11.485  0.5107 -0.2350 -0.5574
 2033TIP3    H127590   2.785   2.922  11.539 -0.7773 -1.1986 -1.8826
 2033TIP3    H227591   2.856   2.990  11.424  1.2523  0.3103  0.2243
 2034TIP3   OH227592   1.628   1.663   5.718  0.0362 -0.1592  0.3357
 2034TIP3    H127593   1.697   1.603   5.689 -0.1132  0.4870 -1.3865
 2034TIP3    H227594   1.670   1.748   5.722 -0.6406  0.2287 -0.6511
 2035TIP3   OH227595   1.855   3.520  15.256  0.6576  0.6954 -0.0541
 2035TIP3    H127596   1.774   3.529  15.305 -0.7557 -2.0882 -1.7529
 2035TIP3    H227597   1.924   3.524  15.322 -0.9645  1.0175  1.6487
 2036TIP3   OH227598   0.486   2.953  14.660 -0.2966  0.3257  0.1423
 2036TIP3    H127599   0.555   2.950  14.594 -0.5275  1.4107 -0.1545
 2036TIP3    H227600   0.531   2.946  14.744 -0.0474 -1.7370 -0.1293
 2037TIP3   OH227601   0.212   1.861  11.726  0.2928  0.0493 -0.1528
 2037TIP3    H127602   0.302   1.876  11.699 -1.0274  1.8474 -3.9072
 2037TIP3    H227603   0.183   1.945  11.761 -0.7112  0.2129 -1.3705
 2038TIP3   OH227604   4.157   6.608  16.694  0.2885  0.1669 -0.7330
 2038TIP3    H127605   4.152   6.513  16.705 -0.3703  0.3738  1.0580
 2038TIP3    H227606   4.186   6.621  16.604 -1.1869 -1.7114 -1.5108
 2039TIP3   OH227607   5.140   0.395  17.020 -0.2390  0.0686 -0.0228
 2039TIP3    H127608   5.184   0.478  17.004 -0.3593  0.0607 -0.3844
 2039TIP3    H227609   5.130   0.391  17.115  0.9449 -0.1373  0.1025
 2040TIP3   OH227610   6.125   2.315   1.638  0.0319  0.0452  0.0594
 2040TIP3    H127611   6.036   2.338   1.611 -0.0138 -0.9106 -0.6425
 2040TIP3    H227612   6.173   2.305   1.556  0.2286 -1.5747  0.3542
 2041TIP3   OH227613   1.609   6.628   2.594  0.1330 -0.0462  0.2381
 2041TIP3    H127614   1.575   6.700   2.648 -2.0188 -0.7926 -0.0973
 2041TIP3    H227615   1.608   6.552   2.651 -2.2722 -0.8696 -0.8149
 2042TIP3   OH227616   6.600   2.406   5.494 -0.7943 -0.3015  0.2519
 2042TIP3    H127617   6.692   2.432   5.485 -1.2779  1.8112  1.2427
 2042TIP3    H227618   6.550   2.485   5.472 -2.4005 -1.4682 -0.4331
 2043TIP3   OH227619   6.333   6.038  17.170  0.1535  0.7683 -0.0709
 2043TIP3    H127620   6.400   6.042  17.101  0.7265  1.6183  0.5269
 2043TIP3    H227621   6.383   6.023  17.251 -0.2550  2.5138  0.5391
 2044TIP3   OH227622   6.819   5.114  15.885  0.0186  0.8490 -0.4688
 2044TIP3    H127623   6.834   5.063  15.806 -0.1984  2.2101 -1.4200
 2044TIP3    H227624   6.906   5.133  15.919  0.2034  1.9344 -1.5022
 2045TIP3   OH227625   3.193   1.845  15.381  0.5310 -0.0032  0.2037
 2045TIP3    H127626   3.152   1.801  15.455 -0.0294 -2.5082 -1.5560
 2045TIP3    H227627   3.286   1.849  15.403  0.4296 -1.1561  0.8446
 2046TIP3   OH227628   3.565   1.989  15.227  0.3525 -0.8616  0.3283
 2046TIP3    H127629   3.644   2.043  15.236 -0.8217  0.8492  0.4772
 2046TIP3    H227630   3.593   1.902  15.255  1.6661  0.1854  2.4370
 2047TIP3   OH227631   1.498   6.092   4.118  0.0966  0.2350 -0.1040
 2047TIP3    H127632   1.526   6.102   4.027 -0.8057 -0.0839 -0.4162
 2047TIP3    H227633   1.447   6.171   4.136 -0.2682 -0.0117 -0.0703
 2048TIP3   OH227634   0.100   1.150  13.874  0.1637 -0.3590 -0.4107
 2048TIP3    H127635   0.034   1.085  13.851 -1.9745  0.9650  1.6231
 2048TIP3    H227636   0.133   1.182  13.790 -2.3829 -0.4984 -1.5150
 2049TIP3   OH227637   1.321   6.117  15.824 -0.1602 -0.3622 -0.6252
 2049TIP3    H127638   1.384   6.069  15.879  0.0470  3.4622  2.7056
 2049TIP3    H227639   1.375   6.166  15.763 -0.2436 -1.9040 -1.9685
 2050TIP3   OH227640   6.019   3.666   3.646  0.1149 -0.0924  0.2487
 2050TIP3    H127641   6.073   3.690   3.571 -0.5577  0.1616 -0.1613
 2050TIP3    H227642   5.936   3.638   3.607  0.6666 -2.5344  0.7388
 2051TIP3   OH227643   0.273   2.417   3.042 -0.0755 -0.1318 -0.2991
 2051TIP3    H127644   0.315   2.398   3.125 -0.6475  2.0891  0.5261
 2051TIP3    H227645   0.187   2.377   3.048  0.3381 -1.0301 -0.3215
 2052TIP3   OH227646   2.063   3.988  11.358  0.0298  0.2474 -0.0389
 2052TIP3    H127647   2.070   4.038  11.439 -0.1826  0.4665 -0.1539
 2052TIP3    H227648   2.151   3.994  11.319  0.5538 -1.0933  0.8833
 2053TIP3   OH227649   2.725   1.293  11.759 -0.0488  0.1917  0.6048
 2053TIP3    H127650   2.756   1.269  11.847  2.0921  0.3450 -0.0719
 2053TIP3    H227651   2.805   1.299  11.707 -1.3012  0.1414 -1.3611
 2054TIP3   OH227652   3.504   5.457   5.460 -0.1583  0.1121  0.0256
 2054TIP3    H127653   3.562   5.391   5.422 -1.0304  0.3144 -1.7211
 2054TIP3    H227654   3.485   5.517   5.387 -1.5113  0.7878  0.9062
 2055TIP3   OH227655   0.136   6.023  13.456  0.0412 -0.1028 -0.3145
 2055TIP3    H127656   0.046   6.013  13.424 -0.4858  2.2700  0.3701
 2055TIP3    H227657   0.187   5.964  13.401 -1.5709  0.3867 -2.4016
 2056TIP3   OH227658   4.981   5.752   1.545  0.1997 -0.3514  0.4385
 2056TIP3    H127659   5.026   5.696   1.482  0.6458 -0.5001  0.8794
 2056TIP3    H227660   5.028   5.836   1.541  0.0395 -0.2651  0.3554
 2057TIP3   OH227661   1.664   4.249  15.996 -0.0689 -0.5627  0.0633
 2057TIP3    H127662   1.649   4.159  16.024 -0.3249 -0.2564  0.9410
 2057TIP3    H227663   1.598   4.300  16.044  0.2671  0.1260 -0.1947
 2058TIP3   OH227664   5.476   6.113   3.499  0.5819  0.5622  0.0250
 2058TIP3    H127665   5.458   6.203   3.473  1.0594  0.5570 -0.3175
 2058TIP3    H227666   5.473   6.063   3.417 -0.7852  0.0844  0.3459
 2059TIP3   OH227667   0.600   5.413  12.247  0.4330  0.1091  0.2571
 2059TIP3    H127668   0.598   5.420  12.152  0.6406  1.6947  0.3701
 2059TIP3    H227669   0.693   5.403  12.268  0.4817  0.8350  0.3763
 2060TIP3   OH227670   1.811   2.544   0.121 -0.7148 -0.3638  0.0514
 2060TIP3    H127671   1.819   2.639   0.114  1.8378 -0.4709  0.8428
 2060TIP3    H227672   1.804   2.513   0.031 -0.3531  0.4898 -0.2727
 2061TIP3   OH227673   1.559   3.797  10.990 -0.4798 -0.2113 -0.3139
 2061TIP3    H127674   1.619   3.725  11.007 -0.6825 -0.3692 -0.2701
 2061TIP3    H227675   1.611   3.876  11.008 -0.4782 -0.3632  0.3455
 2062TIP3   OH227676   6.348   5.728   2.944  0.1067 -0.1206 -0.1135
 2062TIP3    H127677   6.387   5.672   2.877 -0.1735 -2.0001  1.2425
 2062TIP3    H227678   6.410   5.723   3.017  0.3325  1.7744 -0.1652
 2063TIP3   OH227679   6.641   2.241  14.274  0.0507  0.2847  0.2504
 2063TIP3    H127680   6.614   2.149  14.283  0.4405 -0.0203 -1.4280
 2063TIP3    H227681   6.730   2.236  14.239 -0.4063  1.3026 -1.0994
 2064TIP3   OH227682   2.522   2.921   1.094  0.0923  0.3406  0.5431
 2064TIP3    H127683   2.475   2.886   1.018 -0.8105  1.0907  0.7485
 2064TIP3    H227684   2.600   2.866   1.100 -0.3240 -0.3781 -0.3215
 2065TIP3   OH227685   5.433   2.623  10.824 -0.1851 -0.1599 -0.1499
 2065TIP3    H127686   5.353   2.636  10.773 -1.2103 -0.7812  1.2525
 2065TIP3    H227687   5.427   2.686  10.895  0.2938 -0.5983  0.2845
 2066TIP3   OH227688   1.440   6.196  15.264  0.6867 -0.0870 -0.0455
 2066TIP3    H127689   1.362   6.246  15.240 -0.1288 -1.7698 -0.9562
 2066TIP3    H227690   1.408   6.130  15.325  0.8414 -2.6556 -2.6570
 2067TIP3   OH227691   1.188   0.942   0.710  0.3453  0.5000 -0.2372
 2067TIP3    H127692   1.200   0.864   0.765  0.6495 -1.1696 -2.6151
 2067TIP3    H227693   1.267   0.994   0.725  0.2322  0.2680  1.2122
 2068TIP3   OH227694   5.921   4.930  13.095  0.6996 -0.7224 -0.1507
 2068TIP3    H127695   5.961   4.893  13.174  0.0564 -1.0889  0.0016
 2068TIP3    H227696   5.927   5.024  13.107  1.1634 -0.7747  0.0523
 2069TIP3   OH227697   0.928   0.500   1.439  0.0913 -0.0989  0.3416
 2069TIP3    H127698   0.982   0.430   1.476 -0.3727 -1.3794 -1.3465
 2069TIP3    H227699   0.854   0.455   1.399 -0.7536  1.4462  0.1113
 2070TIP3   OH227700   2.762   6.633  12.907 -0.1409 -0.0896  0.1243
 2070TIP3    H127701   2.697   6.633  12.978  0.2710  1.6605  0.5142
 2070TIP3    H227702   2.712   6.609  12.829 -1.1092  0.5220  0.5508
 2071TIP3   OH227703   4.692   2.283  14.686 -0.6946 -0.4454 -0.2010
 2071TIP3    H127704   4.786   2.302  14.693 -0.6506 -0.8989  0.5841
 2071TIP3    H227705   4.688   2.198  14.643 -0.7515 -0.3610 -0.3617
 2072TIP3   OH227706   0.325   2.151  13.336  0.8846  0.1719 -0.1455
 2072TIP3    H127707   0.238   2.121  13.311  1.1513  0.4898 -1.4440
 2072TIP3    H227708   0.342   2.106  13.419 -0.7749  0.6066  0.4508
 2073TIP3   OH227709   4.975   2.352  14.694 -0.2367 -1.1474 -0.2809
 2073TIP3    H127710   5.028   2.367  14.773 -2.4664 -1.2802  1.2916
 2073TIP3    H227711   4.995   2.261  14.670  0.6188 -1.0434 -0.0049
 2074TIP3   OH227712   6.347   2.491   2.432  0.3421  0.4642  0.6498
 2074TIP3    H127713   6.290   2.566   2.415  2.1823  1.7604  0.0549
 2074TIP3    H227714   6.348   2.483   2.527 -0.8420  0.3930  0.6735
 2075TIP3   OH227715   6.380   5.332   4.025 -0.4596 -0.4168  0.1968
 2075TIP3    H127716   6.476   5.337   4.026 -0.5148  1.0179  0.1445
 2075TIP3    H227717   6.355   5.381   3.947 -1.3077  0.9077  1.2822
 2076TIP3   OH227718   4.844   1.303   5.563  0.1501 -0.3777  0.8779
 2076TIP3    H127719   4.843   1.234   5.497 -1.5519 -0.2664  0.7556
 2076TIP3    H227720   4.814   1.381   5.517  2.7683  0.6489  0.8428
 2077TIP3   OH227721   5.210   2.105  11.718  0.3465  0.2725  0.4879
 2077TIP3    H127722   5.247   2.140  11.799 -0.2896  0.1586  0.8293
 2077TIP3    H227723   5.119   2.085  11.740  0.2666 -0.0750 -0.1601
 2078TIP3   OH227724   0.860   5.342  16.412  0.6129 -0.0210  0.2447
 2078TIP3    H127725   0.857   5.270  16.349  0.9068  0.3185 -0.1557
 2078TIP3    H227726   0.816   5.307  16.490  0.5155 -0.5412 -0.0406
 2079TIP3   OH227727   4.780   5.055  12.585  0.2629 -0.5975 -0.2283
 2079TIP3    H127728   4.778   4.991  12.514 -1.2895 -1.1711  0.3109
 2079TIP3    H227729   4.795   5.003  12.664  0.4681 -0.1297  0.0466
 2080TIP3   OH227730   3.631   0.905   4.095 -0.3942  0.3206  0.1136
 2080TIP3    H127731   3.620   0.995   4.125  1.7215  0.2436  1.2365
 2080TIP3    H227732   3.640   0.912   4.000  1.7461  1.5483  0.3628
 2081TIP3   OH227733   3.348   0.678  16.018  0.0066  0.0358  0.1710
 2081TIP3    H127734   3.396   0.691  15.936 -0.3668 -0.6532 -0.1607
 2081TIP3    H227735   3.314   0.765  16.040 -0.9760 -0.0252 -1.0800
 2082TIP3   OH227736   0.267   5.247  12.953  0.2148 -0.1492 -0.2203
 2082TIP3    H127737   0.324   5.269  12.880 -0.4102  1.6133 -0.2049
 2082TIP3    H227738   0.325   5.249  13.030  0.1901  1.4930 -0.2211
 2083TIP3   OH227739   1.739   4.265  13.331 -0.1339  0.1584 -0.4941
 2083TIP3    H127740   1.671   4.290  13.269 -0.1267 -0.7412 -0.8770
 2083TIP3    H227741   1.741   4.169  13.327  0.1896  0.1131  0.5452
 2084TIP3   OH227742   4.970   4.785  11.612  0.1318  0.1057 -0.3372
 2084TIP3    H127743   4.964   4.834  11.530 -1.1396 -0.2424 -0.4706
 2084TIP3    H227744   5.064   4.780  11.631  0.3792  0.9810 -1.2879
 2085TIP3   OH227745   5.328   1.118  16.612  0.0839  0.2211  0.4734
 2085TIP3    H127746   5.316   1.192  16.552  0.9830  0.6403  0.8053
 2085TIP3    H227747   5.239   1.089  16.632 -0.2740  1.2000  0.3286
 2086TIP3   OH227748   5.916   0.751  16.409 -0.8138  0.0009  0.3721
 2086TIP3    H127749   5.986   0.806  16.374  1.7605 -2.3069  1.6708
 2086TIP3    H227750   5.884   0.799  16.486  0.6590  0.2289  0.8657
 2087TIP3   OH227751   4.436   5.809  13.474 -0.0472 -0.1896  0.0653
 2087TIP3    H127752   4.456   5.718  13.451  0.6572  0.0558 -0.3424
 2087TIP3    H227753   4.388   5.803  13.556 -0.7908 -0.9794 -0.4170
 2088TIP3   OH227754   0.480   2.128  15.393  0.1432  0.0374  0.2685
 2088TIP3    H127755   0.442   2.148  15.307 -0.7250  1.7707  1.0257
 2088TIP3    H227756   0.570   2.160  15.388 -0.0553  0.5876  0.1608
 2089TIP3   OH227757   3.994   5.981   6.134  0.4078  0.2398  0.1726
 2089TIP3    H127758   4.053   5.949   6.203 -0.3439 -1.3275  0.1252
 2089TIP3    H227759   3.982   6.073   6.153  2.1892  0.3836  0.6900
 2090TIP3   OH227760   3.818   0.445   1.205 -0.3953  0.0825 -0.0146
 2090TIP3    H127761   3.802   0.463   1.298  1.6981 -0.0564  0.3819
 2090TIP3    H227762   3.912   0.434   1.198 -0.6465 -1.0739 -1.9687
 2091TIP3   OH227763   1.783   5.237  12.658  0.3525 -0.0042  0.2593
 2091TIP3    H127764   1.811   5.284  12.580  0.5610  0.8019  0.8082
 2091TIP3    H227765   1.698   5.276  12.680 -0.2680 -1.0463 -0.2428
 2092TIP3   OH227766   3.203   5.765  17.115 -0.2435  0.3245  0.5192
 2092TIP3    H127767   3.171   5.855  17.113  0.9718  0.7391 -1.9250
 2092TIP3    H227768   3.205   5.742  17.208  1.3769  3.5263  1.3501
 2093TIP3   OH227769   4.944   6.052   2.677  0.0348 -0.5714  0.0258
 2093TIP3    H127770   5.003   6.113   2.634 -1.3196  2.0023  1.6774
 2093TIP3    H227771   4.903   6.003   2.606  1.1749  0.4327 -1.3395
 2094TIP3   OH227772   5.342   6.350  13.010 -0.1500  0.3125  0.1819
 2094TIP3    H127773   5.268   6.306  13.052  0.5187 -1.1208 -0.1105
 2094TIP3    H227774   5.358   6.427  13.065 -0.5713 -0.4638  1.4266
 2095TIP3   OH227775   0.348   0.477   5.709 -0.3498  0.4989 -0.0585
 2095TIP3    H127776   0.371   0.385   5.718 -0.1373  0.6721  1.2139
 2095TIP3    H227777   0.381   0.501   5.622  0.6323 -0.3177  0.0809
 2096TIP3   OH227778   5.928   5.220  13.132  0.3122 -0.2841 -0.3506
 2096TIP3    H127779   5.933   5.262  13.046  0.5599  0.0099 -0.1931
 2096TIP3    H227780   5.903   5.291  13.192  0.2580 -0.4627 -0.1622
 2097TIP3   OH227781   0.049   3.445  10.384 -0.4221  0.2221 -0.9748
 2097TIP3    H127782   0.109   3.440  10.309 -1.3426 -0.8028 -1.6595
 2097TIP3    H227783  -0.032   3.482  10.348 -0.7240  0.1274 -0.4014
 2098TIP3   OH227784   2.235   5.520  15.966 -0.0148 -0.2571  0.1217
 2098TIP3    H127785   2.318   5.517  16.014  0.0651 -0.3458 -0.0203
 2098TIP3    H227786   2.237   5.604  15.920 -0.3993  0.1268  0.8193
 2099TIP3   OH227787   5.005   0.740   0.845  0.4852 -0.6636 -0.0020
 2099TIP3    H127788   5.058   0.811   0.809 -0.1032 -0.5129 -0.5729
 2099TIP3    H227789   5.032   0.735   0.937  0.4285  0.3885  0.0726
 2100TIP3   OH227790   4.565   5.633  13.765 -0.1980 -0.4851  0.4565
 2100TIP3    H127791   4.585   5.549  13.724  3.4596 -0.0044  1.0775
 2100TIP3    H227792   4.486   5.663  13.720 -1.0389 -3.7942 -0.4169
 2101TIP3   OH227793   0.381   6.143  14.716 -0.1807  0.7603 -0.0926
 2101TIP3    H127794   0.316   6.072  14.723 -1.4469  1.9985  0.9150
 2101TIP3    H227795   0.455   6.102  14.672 -1.0676 -1.0870  0.0532
 2102TIP3   OH227796   2.539   4.787  12.084  0.4110 -0.3902 -0.1544
 2102TIP3    H127797   2.596   4.714  12.061  1.4152 -0.6048  2.7860
 2102TIP3    H227798   2.530   4.782  12.180  0.1304  3.0447  0.0803
 2103TIP3   OH227799   5.394   2.200   6.523 -0.1161 -0.1530 -0.2615
 2103TIP3    H127800   5.430   2.197   6.434 -0.5499  0.7409 -0.4774
 2103TIP3    H227801   5.422   2.118   6.563  0.7067 -0.2292 -0.9832
 2104TIP3   OH227802   0.476   0.329  11.050 -0.3197 -0.0702  0.6598
 2104TIP3    H127803   0.518   0.393  11.107 -1.6046 -0.5861  2.1957
 2104TIP3    H227804   0.519   0.342  10.965  0.7146  1.5634  1.4015
 2105TIP3   OH227805   3.383   6.132  11.421 -0.3589  0.4069 -0.1315
 2105TIP3    H127806   3.301   6.169  11.455 -0.3114  0.0310  0.3901
 2105TIP3    H227807   3.450   6.196  11.445 -0.6902  1.3706 -1.7373
 2106TIP3   OH227808   6.747   5.303  15.116 -0.1821 -0.0341  0.8204
 2106TIP3    H127809   6.727   5.223  15.068  0.0323  0.8982 -0.8950
 2106TIP3    H227810   6.782   5.362  15.049  1.0426  0.9808  2.3256
 2107TIP3   OH227811   3.460   4.910  12.289  0.0642 -0.4432  0.2396
 2107TIP3    H127812   3.371   4.888  12.263  0.0644 -2.1810  1.5958
 2107TIP3    H227813   3.495   4.828  12.324  2.2636  0.1676 -0.4796
 2108TIP3   OH227814   3.303   2.283  11.992  0.6297 -0.2995  0.1776
 2108TIP3    H127815   3.334   2.345  12.058  1.6072  0.1685 -0.6963
 2108TIP3    H227816   3.345   2.201  12.015 -0.3238 -0.5465  1.0851
 2109TIP3   OH227817   4.021   1.965   3.807 -0.0678  0.2406 -0.3700
 2109TIP3    H127818   4.075   1.934   3.735  1.4074 -0.5649  1.0411
 2109TIP3    H227819   3.971   1.888   3.834  2.9603 -0.8623  2.5723
 2110TIP3   OH227820   4.050   5.335   5.465  0.3771 -0.3685 -0.2647
 2110TIP3    H127821   3.956   5.319   5.457  0.7431 -2.7612 -0.1801
 2110TIP3    H227822   4.058   5.397   5.537 -1.1276 -0.3397 -0.1103
 2111TIP3   OH227823   4.759   3.611  13.447 -0.3601 -0.0871 -0.5948
 2111TIP3    H127824   4.751   3.677  13.516 -1.6755  0.6178 -1.3849
 2111TIP3    H227825   4.782   3.530  13.493 -0.9414  0.4300  0.6404
 2112TIP3   OH227826   0.054   1.804   1.702 -0.3406  0.0875  0.8164
 2112TIP3    H127827   0.118   1.733   1.706  0.4601  0.8469  1.6054
 2112TIP3    H227828  -0.031   1.761   1.711 -0.2175 -1.3394 -3.5347
 2113TIP3   OH227829   3.537   0.852   3.290  0.5798 -0.3933 -0.1139
 2113TIP3    H127830   3.609   0.886   3.343  0.2544  0.5491 -0.2703
 2113TIP3    H227831   3.504   0.928   3.242  0.7028 -1.1814 -1.4718
 2114TIP3   OH227832   2.722   0.182   2.941  0.0359  0.3020 -0.3113
 2114TIP3    H127833   2.630   0.181   2.967  0.0448 -1.0341 -0.3104
 2114TIP3    H227834   2.729   0.258   2.883 -1.2760 -0.1033 -1.0260
 2115TIP3   OH227835   0.956   2.379  11.910  0.1491  0.4033  0.2663
 2115TIP3    H127836   0.888   2.410  11.851  0.7735 -0.7172 -1.1102
 2115TIP3    H227837   1.038   2.405  11.867  0.6024  0.8029  1.3577
 2116TIP3   OH227838   4.847   2.530   4.627 -0.6680 -0.5890 -0.4794
 2116TIP3    H127839   4.781   2.499   4.689 -0.0301 -1.0975 -0.0374
 2116TIP3    H227840   4.900   2.592   4.677 -0.3124 -0.8033 -0.5834
 2117TIP3   OH227841   3.631   3.526  13.581 -0.1700 -0.5084 -0.4030
 2117TIP3    H127842   3.622   3.455  13.644  1.8532 -0.1171  0.3700
 2117TIP3    H227843   3.622   3.606  13.633  1.6489 -0.1844 -0.5522
 2118TIP3   OH227844   3.481   3.243  16.139  0.1703 -0.1509  0.5134
 2118TIP3    H127845   3.448   3.217  16.053 -0.7083 -0.0722  0.8260
 2118TIP3    H227846   3.448   3.176  16.199  0.6378 -0.1099  0.8187
 2119TIP3   OH227847   5.064   3.240  11.515  0.7262 -0.2807  0.0659
 2119TIP3    H127848   5.023   3.326  11.527 -1.3315 -1.5663  2.7604
 2119TIP3    H227849   5.158   3.257  11.521  0.3162  1.6572  1.4398
 2120TIP3   OH227850   4.182   6.001  12.417 -0.0978 -0.5083  0.2303
 2120TIP3    H127851   4.121   5.968  12.483  1.4263 -1.2176  1.3091
 2120TIP3    H227852   4.187   5.931  12.351 -1.7442  0.2672 -0.7706
 2121TIP3   OH227853   0.890   4.653  13.778  0.2091  0.4813  0.5526
 2121TIP3    H127854   0.834   4.718  13.819  0.9468  1.1582  0.5215
 2121TIP3    H227855   0.895   4.581  13.840 -1.6299 -0.0971  0.0455
 2122TIP3   OH227856   4.367   5.137   3.698 -0.8071  0.5232  0.2516
 2122TIP3    H127857   4.384   5.106   3.609 -1.7541 -1.8022  0.8340
 2122TIP3    H227858   4.448   5.180   3.724  0.6826 -1.7009 -0.5506
 2123TIP3   OH227859   2.532   3.644  12.770  0.6690 -0.0801  0.2964
 2123TIP3    H127860   2.469   3.701  12.725 -0.8827 -1.0429  1.1835
 2123TIP3    H227861   2.603   3.632  12.708 -1.9275 -2.2893 -2.4117
 2124TIP3   OH227862   5.871   3.256  15.435 -0.2924 -0.1303 -0.2062
 2124TIP3    H127863   5.780   3.286  15.427 -0.3271 -0.3076 -0.4748
 2124TIP3    H227864   5.873   3.209  15.518 -0.6288 -0.7670 -0.5563
 2125TIP3   OH227865   0.411   5.211  16.525  0.0910 -0.0397 -0.2772
 2125TIP3    H127866   0.444   5.253  16.445 -0.0475  0.2527 -0.1782
 2125TIP3    H227867   0.325   5.250  16.540  1.3193  2.0111  1.6331
 2126TIP3   OH227868   1.199   6.080   3.103 -0.6280 -0.3952 -0.1198
 2126TIP3    H127869   1.254   6.089   3.025 -1.2799  0.1528 -0.5215
 2126TIP3    H227870   1.228   5.998   3.143 -0.2788 -0.6833 -0.9354
 2127TIP3   OH227871   2.329   3.741  15.108  1.0399  0.1361  0.2649
 2127TIP3    H127872   2.297   3.819  15.152 -0.2117  0.0882 -0.5280
 2127TIP3    H227873   2.358   3.683  15.178 -0.2199  0.3627  0.9845
 2128TIP3   OH227874   4.579   2.114  13.009 -0.2393 -0.0910 -0.2523
 2128TIP3    H127875   4.610   2.028  13.038  0.3902 -0.2144 -1.2606
 2128TIP3    H227876   4.546   2.099  12.921 -0.1980  0.6871 -0.4017
 2129TIP3   OH227877   1.710   1.266  14.418 -0.2611  0.4325  0.1261
 2129TIP3    H127878   1.714   1.175  14.449 -0.6934  0.2704 -0.2827
 2129TIP3    H227879   1.616   1.287  14.420 -0.3173  0.3524 -1.2564
 2130TIP3   OH227880   3.468   1.678   0.617 -0.2595  0.1493  0.1935
 2130TIP3    H127881   3.496   1.768   0.602  0.1439  0.3218  1.9064
 2130TIP3    H227882   3.405   1.661   0.547 -0.0907  1.6438 -0.3469
 2131TIP3   OH227883   0.652   1.497  13.889 -0.8563 -0.4713 -0.1473
 2131TIP3    H127884   0.647   1.402  13.893  1.6195 -0.7017 -1.5169
 2131TIP3    H227885   0.659   1.517  13.796 -2.0718  1.1193  0.0775
 2132TIP3   OH227886   0.646   5.755   4.756  0.2970 -0.5148  0.9295
 2132TIP3    H127887   0.599   5.687   4.803 -0.7305 -1.7349 -1.7999
 2132TIP3    H227888   0.602   5.836   4.781  0.9983 -0.8968  3.5357
 2133TIP3   OH227889   1.824   4.668   3.144 -0.7570  0.0040  0.0906
 2133TIP3    H127890   1.879   4.647   3.219 -1.2860  0.8624  0.7248
 2133TIP3    H227891   1.835   4.763   3.133 -1.8390  0.1210  0.0058
 2134TIP3   OH227892   5.285   3.430   3.979 -0.5671  0.2326 -0.2295
 2134TIP3    H127893   5.250   3.370   4.045 -1.4779  2.1157  1.0515
 2134TIP3    H227894   5.378   3.437   3.999 -0.5464 -0.4162 -0.1081
 2135TIP3   OH227895   0.596   5.396   1.804 -0.1718 -0.0315 -0.1510
 2135TIP3    H127896   0.569   5.339   1.732  0.6666 -0.6707  0.0174
 2135TIP3    H227897   0.688   5.416   1.784 -0.1528  0.3847  0.3572
 2136TIP3   OH227898   5.823   3.541   3.861 -0.0349  0.0251 -0.2165
 2136TIP3    H127899   5.885   3.468   3.869  0.6702  0.6342  0.0090
 2136TIP3    H227900   5.756   3.510   3.801  0.4747 -0.6660 -0.4329
 2137TIP3   OH227901   6.244   1.454  13.106  0.2458  0.1589  0.0041
 2137TIP3    H127902   6.276   1.482  13.020 -1.2992  2.1810  0.0493
 2137TIP3    H227903   6.322   1.451  13.161  0.9458  1.0124 -0.9205
 2138TIP3   OH227904   5.711   6.068  16.366 -0.1469  0.3015 -0.0564
 2138TIP3    H127905   5.700   6.156  16.402  0.9514  0.2590  0.3948
 2138TIP3    H227906   5.629   6.051  16.318  0.1960  2.0933 -1.2996
 2139TIP3   OH227907   1.054   3.169  16.240 -0.0684  0.0230 -0.2774
 2139TIP3    H127908   0.978   3.141  16.188  0.2477 -0.8668 -0.2718
 2139TIP3    H227909   1.040   3.130  16.326 -1.1575  2.4268  0.6848
 2140TIP3   OH227910   1.966   1.530   1.466  0.3047  0.1782 -0.2469
 2140TIP3    H127911   2.026   1.601   1.442  0.0701 -0.1092 -1.7295
 2140TIP3    H227912   1.943   1.548   1.557 -1.3685  3.1868 -1.1911
 2141TIP3   OH227913   3.915   6.802  11.451 -0.0924 -0.0799  1.0789
 2141TIP3    H127914   3.951   6.768  11.370 -0.8593 -1.6011  1.3667
 2141TIP3    H227915   3.928   6.733  11.515 -3.0328 -0.5141  1.3037
 2142TIP3   OH227916   0.218   6.114  15.632  0.3846  0.2581 -0.1045
 2142TIP3    H127917   0.213   6.163  15.713  0.1005  1.2249 -0.7016
 2142TIP3    H227918   0.234   6.023  15.659  0.2988  0.5795  1.0168
 2143TIP3   OH227919   5.336   2.007   3.691 -0.0661 -0.3707 -0.6498
 2143TIP3    H127920   5.287   1.938   3.646 -0.6108 -0.3030 -0.1712
 2143TIP3    H227921   5.411   2.025   3.634 -1.1692  0.2892 -1.9344
 2144TIP3   OH227922   5.710   6.142   2.920  0.1478  0.0483 -0.5280
 2144TIP3    H127923   5.759   6.087   2.982  0.8203  0.7001 -0.4750
 2144TIP3    H227924   5.619   6.114   2.930  0.3610 -0.4216  0.1608
 2145TIP3   OH227925   6.796   4.065  14.830 -0.1656  0.5794 -0.5534
 2145TIP3    H127926   6.816   4.001  14.762 -0.2744 -0.0199 -0.0359
 2145TIP3    H227927   6.870   4.059  14.891 -0.7279  0.1116  0.0970
 2146TIP3   OH227928   1.579   3.100  11.158  0.2292 -0.2923  0.0836
 2146TIP3    H127929   1.644   3.054  11.105  0.1977 -0.8882  0.5684
 2146TIP3    H227930   1.520   3.032  11.189 -0.5023  0.2208 -0.1672
 2147TIP3   OH227931   0.465   2.203  16.452 -0.3991  0.7311 -0.2510
 2147TIP3    H127932   0.494   2.287  16.489 -0.0790  0.8581 -0.7867
 2147TIP3    H227933   0.411   2.227  16.377 -1.3887  0.4808  0.3662
 2148TIP3   OH227934   5.989   1.038  12.045 -0.2969  0.5666 -0.4193
 2148TIP3    H127935   5.922   0.991  11.995 -1.0931  2.6838 -1.4010
 2148TIP3    H227936   5.963   1.026  12.137  0.1483 -1.7998 -0.5731
 2149TIP3   OH227937   6.546   6.116   3.066 -0.5855 -0.0015 -0.0193
 2149TIP3    H127938   6.579   6.206   3.066  0.2217 -0.2901 -2.1883
 2149TIP3    H227939   6.597   6.071   2.999 -1.8580 -1.7748  0.1664
 2150TIP3   OH227940   0.707   5.013   1.737 -0.5269  0.5166  0.2338
 2150TIP3    H127941   0.628   4.995   1.686 -0.0679  0.8218 -0.5962
 2150TIP3    H227942   0.735   5.100   1.707  0.8470 -0.1407 -0.4097
 2151TIP3   OH227943   4.288   4.627  13.517 -0.3483 -0.4793 -0.5633
 2151TIP3    H127944   4.200   4.614  13.480 -0.0593 -1.6426 -0.8633
 2151TIP3    H227945   4.347   4.611  13.444  0.1650 -1.1711 -0.0016
 2152TIP3   OH227946   1.457   6.119  16.531 -0.4419 -0.3061  0.2022
 2152TIP3    H127947   1.396   6.173  16.582 -0.7471 -0.4583  0.0028
 2152TIP3    H227948   1.407   6.040  16.511  0.3432 -1.1019  1.3472
 2153TIP3   OH227949   4.962   5.293  12.590  0.6440 -0.2390 -0.1379
 2153TIP3    H127950   4.885   5.246  12.621  0.8029  0.5480  1.4955
 2153TIP3    H227951   4.992   5.243  12.514  0.9950 -2.9800  1.7318
 2154TIP3   OH227952   4.341   0.440  16.925 -0.0055  0.3178  0.8972
 2154TIP3    H127953   4.410   0.500  16.898 -0.6495  0.7346  0.1491
 2154TIP3    H227954   4.262   0.495  16.927 -0.4385 -0.3086  1.0567
 2155TIP3   OH227955   0.166   3.283   3.748  0.3840 -0.3112  0.6482
 2155TIP3    H127956   0.153   3.295   3.653  0.1288 -1.6088  0.4975
 2155TIP3    H227957   0.257   3.308   3.764 -0.0901  1.6466  0.3774
 2156TIP3   OH227958   0.812   0.609   4.282  0.0859 -0.5710  0.2492
 2156TIP3    H127959   0.724   0.583   4.310 -0.0199  0.7227  1.1524
 2156TIP3    H227960   0.857   0.634   4.363  0.7375  0.3974 -0.3977
 2157TIP3   OH227961   6.036   5.066  16.530  0.2774  0.4999 -0.7386
 2157TIP3    H127962   6.025   4.999  16.463 -1.0579 -1.4961  1.3768
 2157TIP3    H227963   5.950   5.074  16.571  0.9911  1.8739  0.5633
 2158TIP3   OH227964   6.296   6.301   5.634 -0.2183  0.2683 -0.6083
 2158TIP3    H127965   6.378   6.276   5.675  0.5296  1.3352 -1.4245
 2158TIP3    H227966   6.256   6.363   5.694 -0.5694 -0.4716 -0.0741
 2159TIP3   OH227967   0.254   6.303   5.894 -0.0135 -0.0464  0.0996
 2159TIP3    H127968   0.231   6.395   5.900 -0.9256 -0.3203  0.9269
 2159TIP3    H227969   0.170   6.257   5.896  0.4630 -0.9256  0.4411
 2160TIP3   OH227970   5.990   0.471  13.735 -0.0746  0.2795  0.0376
 2160TIP3    H127971   5.980   0.435  13.647  0.3949 -0.3523  0.2449
 2160TIP3    H227972   5.901   0.472  13.771 -0.1631 -0.1562 -0.1710
 2161TIP3   OH227973   2.541   1.274   5.365 -0.3892 -0.0718 -0.4306
 2161TIP3    H127974   2.470   1.213   5.344 -0.2513 -0.2473 -0.3815
 2161TIP3    H227975   2.564   1.314   5.281  0.4934 -1.1282 -0.6933
 2162TIP3   OH227976   5.497   6.409   2.341  0.4755  0.9044  1.1188
 2162TIP3    H127977   5.460   6.478   2.396 -0.2169  1.0338  0.5042
 2162TIP3    H227978   5.435   6.336   2.348  0.0880  1.1190  0.0891
 2163TIP3   OH227979   2.275   0.622   1.233  0.1449  0.2558  0.4974
 2163TIP3    H127980   2.242   0.660   1.152  2.1408  0.8037 -0.0931
 2163TIP3    H227981   2.265   0.527   1.222  2.2726  0.1892 -1.2810
 2164TIP3   OH227982   6.292   5.832   4.115 -0.1220 -0.0135  0.1853
 2164TIP3    H127983   6.362   5.867   4.060 -0.5792  0.0491 -0.3697
 2164TIP3    H227984   6.267   5.906   4.171 -0.0594  0.1003  0.0645
 2165TIP3   OH227985   1.646   6.277  11.503 -0.2848  0.6294 -0.4519
 2165TIP3    H127986   1.665   6.193  11.544 -2.0518  1.3390  1.9496
 2165TIP3    H227987   1.565   6.263  11.455 -1.3830  1.2703  1.1454
 2166TIP3   OH227988   3.078   6.703   3.186 -0.3211  0.3341  0.0474
 2166TIP3    H127989   3.051   6.698   3.094  2.5281 -2.0374 -0.7319
 2166TIP3    H227990   3.028   6.633   3.229 -1.7841  1.5548  0.3996
 2167TIP3   OH227991   1.714   3.818   5.032 -0.0388  0.3773  0.0800
 2167TIP3    H127992   1.627   3.847   5.003  0.7343  2.0858 -0.5896
 2167TIP3    H227993   1.721   3.850   5.122 -0.7377 -1.1922  0.7089
 2168TIP3   OH227994   2.265   3.680   3.314 -1.0943  0.1754  0.4673
 2168TIP3    H127995   2.319   3.750   3.352 -0.0830  0.6606 -1.7616
 2168TIP3    H227996   2.233   3.631   3.390  2.1216  0.1355  1.8948
 2169TIP3   OH227997   3.446   0.929   6.482  0.5115  0.0445 -0.3578
 2169TIP3    H127998   3.536   0.949   6.507 -0.3058  1.5314  1.5091
 2169TIP3    H227999   3.414   1.010   6.440 -0.4227  0.0609  0.3670
 2170TIP3   OH228000   4.152   1.429  16.787 -0.3866  1.1789 -0.1741
 2170TIP3    H128001   4.205   1.504  16.814  1.4588 -0.6369  1.3758
 2170TIP3    H228002   4.193   1.400  16.705  0.2100  0.6018  0.3213
 2171TIP3   OH228003   5.086   1.882   0.744  0.5580 -0.1932  0.7595
 2171TIP3    H128004   5.110   1.969   0.776 -0.4900  0.6780 -0.7488
 2171TIP3    H228005   5.051   1.837   0.821  2.2456  0.2733  1.8273
 2172TIP3   OH228006   1.801   4.050   3.803  0.3175  0.4421 -0.2656
 2172TIP3    H128007   1.825   4.059   3.711  1.2519  0.4137 -0.0325
 2172TIP3    H228008   1.715   4.091   3.810  0.3288  0.6143 -1.1110
 2173TIP3   OH228009   4.060   2.592  12.673  0.0372 -0.1889  0.2928
 2173TIP3    H128010   4.038   2.570  12.763  1.8351 -2.9066  0.1202
 2173TIP3    H228011   3.980   2.575  12.624 -0.2007 -1.1543  1.0070
 2174TIP3   OH228012   3.646   4.832  13.449  0.0981 -1.1871  0.4808
 2174TIP3    H128013   3.681   4.917  13.421  0.3680 -1.5003 -0.1273
 2174TIP3    H228014   3.689   4.817  13.534  1.9015 -1.8270 -0.5062
 2175TIP3   OH228015   4.983   1.013   3.369 -0.9422  0.8401 -0.4455
 2175TIP3    H128016   5.027   0.997   3.453 -2.5947 -1.1147  0.1063
 2175TIP3    H228017   5.049   0.991   3.303  0.0774  1.4914  0.3376
 2176TIP3   OH228018   0.791   3.713   4.321  0.0082 -0.2682 -0.8749
 2176TIP3    H128019   0.847   3.726   4.244  1.9468  1.3838  0.7756
 2176TIP3    H228020   0.766   3.801   4.348 -0.7428 -0.8367  0.3401
 2177TIP3   OH228021   6.030   5.230   2.034 -0.1008  0.2342  0.0275
 2177TIP3    H128022   5.995   5.291   2.099 -1.2786  0.6217 -0.9629
 2177TIP3    H228023   5.955   5.204   1.982  0.6471 -0.9541 -0.4760
 2178TIP3   OH228024   4.675   0.406  16.438 -0.4177 -0.9672 -0.2636
 2178TIP3    H128025   4.747   0.464  16.462 -2.4961  1.2642  0.7300
 2178TIP3    H228026   4.682   0.332  16.498  0.9417 -0.6981 -0.0843
 2179TIP3   OH228027   2.039   3.010  15.019  0.4599 -0.4882 -0.0036
 2179TIP3    H128028   2.025   2.916  15.008 -0.8795 -0.7120  3.1417
 2179TIP3    H228029   1.951   3.047  15.020  0.9860  0.8415 -1.2851
 2180TIP3   OH228030   0.158   1.302   1.887  0.2242 -0.0872 -0.1121
 2180TIP3    H128031   0.143   1.208   1.885  1.3014 -0.2386 -1.7273
 2180TIP3    H228032   0.136   1.332   1.798 -0.7290  1.2799  0.5640
 2181TIP3   OH228033   1.997   2.527  13.064  0.3562  0.1974  0.2460
 2181TIP3    H128034   1.960   2.488  12.985  1.5155 -0.1577 -0.1259
 2181TIP3    H228035   2.022   2.615  13.037  4.3758 -1.2015 -0.8906
 2182TIP3   OH228036   4.416   2.350  11.466  0.3169  0.5777 -0.0434
 2182TIP3    H128037   4.401   2.343  11.372 -1.2121 -0.7881  0.3004
 2182TIP3    H228038   4.443   2.263  11.494 -3.2881 -0.1177  1.4874
 2183TIP3   OH228039   3.148   5.451  12.978  0.5179  0.1139  0.4468
 2183TIP3    H128040   3.215   5.384  12.987  0.3019  0.0240  1.4177
 2183TIP3    H228041   3.068   5.411  13.011  0.0626  0.3496 -0.3505
 2184TIP3   OH228042   5.713   4.785  14.809  0.5191 -0.1508  0.4106
 2184TIP3    H128043   5.721   4.700  14.852  0.3863 -0.1067  0.5229
 2184TIP3    H228044   5.654   4.769  14.735  1.2476 -0.3674 -0.1317
 2185TIP3   OH228045   4.393   5.984   4.741 -0.6930 -0.1844  0.6271
 2185TIP3    H128046   4.370   5.970   4.649 -1.0545 -1.3373  0.8759
 2185TIP3    H228047   4.335   5.924   4.788  2.2512 -2.5611  1.3444
 2186TIP3   OH228048   2.032   6.290  10.856  0.5491 -0.3284 -0.2997
 2186TIP3    H128049   2.120   6.329  10.851 -0.1738  1.5194  0.8832
 2186TIP3    H228050   1.977   6.347  10.802 -0.4759  0.1711  1.2533
 2187TIP3   OH228051   3.485   6.675  13.784 -0.0990  0.0090  0.4914
 2187TIP3    H128052   3.389   6.669  13.776  0.0821 -1.2044 -1.1499
 2187TIP3    H228053   3.512   6.589  13.815  0.4166  0.5888  1.6876
 2188TIP3   OH228054   2.326   2.892  12.280  0.7237 -0.1037 -0.6692
 2188TIP3    H128055   2.377   2.947  12.220 -1.0641 -0.1653 -2.3018
 2188TIP3    H228056   2.386   2.873  12.352  1.9583  2.4486 -0.9714
 2189TIP3   OH228057   2.055   6.694   0.009  0.4993 -0.7293 -0.0313
 2189TIP3    H128058   2.073   6.605   0.039  1.1606 -0.7976 -0.6101
 2189TIP3    H228059   2.118   6.708  -0.062 -0.5288 -0.2987 -0.8638
 2190TIP3   OH228060   0.854   2.348  15.964 -0.6780 -0.0964  0.0706
 2190TIP3    H128061   0.796   2.376  15.893  0.1601  0.7729 -0.2885
 2190TIP3    H228062   0.895   2.268  15.932 -0.6084  0.0740 -0.2703
 2191TIP3   OH228063   6.400   2.575  16.505 -0.5108  0.4908  0.3066
 2191TIP3    H128064   6.417   2.576  16.600  0.6954 -0.3744  0.1119
 2191TIP3    H228065   6.469   2.629  16.468 -1.2180  1.1537 -0.0618
 2192TIP3   OH228066   0.512   0.212  12.561 -0.4541  0.0226 -0.4087
 2192TIP3    H128067   0.542   0.256  12.481  0.2312 -0.9450 -0.7044
 2192TIP3    H228068   0.489   0.282  12.621  1.2458  0.8066 -0.6390
 2193TIP3   OH228069   2.655   3.227   4.260  0.0486  0.7756 -0.0577
 2193TIP3    H128070   2.572   3.212   4.216 -0.3498 -1.3597  1.3694
 2193TIP3    H228071   2.636   3.211   4.353  2.5030 -1.7796  0.0558
 2194TIP3   OH228072   5.771   3.205   1.325 -0.1285 -0.0573  0.5870
 2194TIP3    H128073   5.701   3.142   1.307 -0.7715  1.0291 -0.8554
 2194TIP3    H228074   5.761   3.271   1.257  2.4278  0.0373  0.2643
 2195TIP3   OH228075   1.420   0.345  16.263 -0.3181  0.2672 -0.1630
 2195TIP3    H128076   1.360   0.332  16.190 -0.1666  2.3664 -0.6933
 2195TIP3    H228077   1.498   0.295  16.240 -1.8808 -2.6355  0.6157
 2196TIP3   OH228078   3.786   3.087   4.370  0.2283  0.3853  0.1970
 2196TIP3    H128079   3.711   3.145   4.380 -0.7396 -1.0896  1.8581
 2196TIP3    H228080   3.810   3.062   4.459  1.4448 -0.7224 -0.4140
 2197TIP3   OH228081   4.834   5.927   2.208  0.2255  0.0863  0.1754
 2197TIP3    H128082   4.856   5.833   2.209  0.2466  0.0793 -0.9856
 2197TIP3    H228083   4.811   5.945   2.117  0.5286  1.2869  0.3393
 2198TIP3   OH228084   3.693   1.560  12.348 -0.0056  0.3353  0.0654
 2198TIP3    H128085   3.653   1.474  12.359  2.3402 -1.2282 -2.8603
 2198TIP3    H228086   3.623   1.614  12.310 -1.0468 -0.6477  0.5358
 2199TIP3   OH228087   5.664   3.538  12.680  0.0394 -0.1034  0.2913
 2199TIP3    H128088   5.735   3.513  12.739  0.6847  0.6655 -0.1358
 2199TIP3    H228089   5.707   3.553  12.596 -0.8650 -1.1489 -0.3680
 2200TIP3   OH228090   4.567   3.149   3.134 -0.2791 -0.6082 -0.1005
 2200TIP3    H128091   4.568   3.200   3.053  0.6072  2.2929  1.6306
 2200TIP3    H228092   4.659   3.138   3.157 -0.5428  0.3681  1.5356
 2201TIP3   OH228093   5.301   1.793   2.089 -0.2157 -0.2059  0.7710
 2201TIP3    H128094   5.394   1.802   2.107 -0.5676  0.5568  2.3359
 2201TIP3    H228095   5.279   1.705   2.120 -0.2140  0.0097  1.4037
 2202TIP3   OH228096   2.964   0.861  12.150  0.4894 -0.1789 -0.1125
 2202TIP3    H128097   2.875   0.892  12.169 -0.2780 -1.3330 -1.8183
 2202TIP3    H228098   3.011   0.874  12.233 -1.3088  0.2279  0.8739
 2203TIP3   OH228099   2.204   2.600   0.751 -0.5423 -0.0224 -0.6791
 2203TIP3    H128100   2.233   2.552   0.674  0.7340  0.3107 -0.4270
 2203TIP3    H228101   2.179   2.686   0.717  2.1540  0.9128 -0.4835
 2204TIP3   OH228102   5.274   5.464   0.640 -0.2560 -0.1492  0.4264
 2204TIP3    H128103   5.180   5.455   0.654 -0.2850 -0.3425  0.1049
 2204TIP3    H228104   5.293   5.555   0.660 -0.1804 -0.5915  2.4915
 2205TIP3   OH228105   0.994   5.675   3.421  0.1203  0.4966  0.0968
 2205TIP3    H128106   1.047   5.696   3.498  2.4017  0.1097 -1.3319
 2205TIP3    H228107   1.057   5.671   3.349 -1.8872  0.1743 -1.6757
 2206TIP3   OH228108   4.764   5.927  12.990 -0.1385 -0.4118 -0.0033
 2206TIP3    H128109   4.710   5.875  12.930 -0.2730  1.0301 -1.1615
 2206TIP3    H228110   4.832   5.867  13.020  0.9051 -0.7351 -2.8795
 2207TIP3   OH228111   5.735   4.541   2.674 -0.2376 -0.1130 -0.5237
 2207TIP3    H128112   5.810   4.599   2.663  0.2062 -0.0930  2.2271
 2207TIP3    H228113   5.770   4.466   2.723 -1.8360 -0.4793  0.0854
 2208TIP3   OH228114   6.000   0.683   2.713 -0.2772  0.1788 -0.7455
 2208TIP3    H128115   6.065   0.618   2.687  0.1375  0.4206 -0.3249
 2208TIP3    H228116   5.915   0.642   2.694 -0.0458 -0.8800  0.4158
 2209TIP3   OH228117   3.563   1.348  12.484  0.4325  0.2206 -0.0413
 2209TIP3    H128118   3.558   1.261  12.444  1.8014  0.0245  0.1716
 2209TIP3    H228119   3.472   1.374  12.496  0.0063 -0.4307 -1.7259
 2210TIP3   OH228120   1.638   4.948   6.245 -0.8967 -0.0322  0.1930
 2210TIP3    H128121   1.581   4.891   6.296 -2.5067  0.9881 -0.4292
 2210TIP3    H228122   1.689   4.996   6.310  0.8468 -2.5011  0.7266
 2211TIP3   OH228123   0.201   2.502  13.888 -0.2060 -0.0955 -0.0971
 2211TIP3    H128124   0.266   2.543  13.831  0.0471 -0.1797  0.1323
 2211TIP3    H228125   0.143   2.573  13.914 -0.9660 -0.2436 -1.3375
 2212TIP3   OH228126   2.143   6.362   3.869  0.1229  0.0797  0.6066
 2212TIP3    H128127   2.089   6.294   3.829 -0.6295  1.4030 -0.6634
 2212TIP3    H228128   2.153   6.428   3.801 -0.0511  1.7532  2.1675
 2213TIP3   OH228129   2.788   5.220   5.613 -0.5922  0.5732 -0.3324
 2213TIP3    H128130   2.723   5.248   5.678  2.0066  0.9833  2.2084
 2213TIP3    H228131   2.779   5.125   5.609 -0.4155  0.4865  1.0554
 2214TIP3   OH228132   5.506   1.477   6.138 -0.2544  0.3658  0.4123
 2214TIP3    H128133   5.447   1.522   6.077 -1.1316  0.1763  1.1154
 2214TIP3    H228134   5.484   1.514   6.224  1.2347  0.9056  0.5746
 2215TIP3   OH228135   0.972   4.759   4.456 -0.1342 -0.1308  0.0089
 2215TIP3    H128136   0.986   4.839   4.406 -1.4814 -0.7394 -1.3757
 2215TIP3    H228137   0.877   4.757   4.472 -0.0909 -1.3716  0.1588
 2216TIP3   OH228138   5.088   0.317   0.288 -0.1433 -0.6091  0.1076
 2216TIP3    H128139   5.007   0.365   0.304  1.0907  2.1291 -1.4536
 2216TIP3    H228140   5.147   0.381   0.249  2.6400 -2.6524  0.7415
 2217TIP3   OH228141   1.817   4.479   3.627  0.2534  0.2535 -0.2208
 2217TIP3    H128142   1.817   4.569   3.595 -0.4641 -0.0268 -1.0148
 2217TIP3    H228143   1.908   4.451   3.618  0.0225  0.1121 -2.2263
 2218TIP3   OH228144   6.445   4.251   5.363  0.0968  0.5045 -0.4714
 2218TIP3    H128145   6.508   4.185   5.392 -0.0660  0.2261 -0.7455
 2218TIP3    H228146   6.441   4.313   5.435  0.4813  0.3774 -0.3373
 2219TIP3   OH228147   0.460   6.121   3.020  0.4629  0.2104  0.2574
 2219TIP3    H128148   0.514   6.196   3.044 -1.4191  2.2293 -1.4940
 2219TIP3    H228149   0.509   6.078   2.950  1.5299 -0.1789  1.2313
 2220TIP3   OH228150   2.591   2.484   0.355  0.1478 -0.4513 -0.1898
 2220TIP3    H128151   2.560   2.523   0.437  0.7005 -0.6778  0.1286
 2220TIP3    H228152   2.583   2.554   0.290 -0.0783 -0.2047  0.1045
 2221TIP3   OH228153   6.406   3.234   1.780 -0.0638 -0.0540 -0.0547
 2221TIP3    H128154   6.468   3.306   1.775  1.4444 -1.1371  2.2398
 2221TIP3    H228155   6.353   3.242   1.701  2.3469  1.4619 -1.5616
 2222TIP3   OH228156   3.379   3.498  12.265  0.1749  0.4860  0.6997
 2222TIP3    H128157   3.437   3.575  12.262  0.4655  0.2474  0.0715
 2222TIP3    H228158   3.438   3.424  12.251 -0.0435  0.1138  1.7542
 2223TIP3   OH228159   0.434   5.036   2.440 -0.3792 -0.3138 -0.3474
 2223TIP3    H128160   0.349   5.017   2.478  0.1854 -1.9390  0.1401
 2223TIP3    H228161   0.416   5.056   2.348 -1.1897 -1.4431 -0.4338
 2224TIP3   OH228162   6.234   0.810  14.538  0.1204  0.1414 -0.2512
 2224TIP3    H128163   6.190   0.811  14.453  3.2466 -1.8980 -2.0103
 2224TIP3    H228164   6.316   0.859  14.522  1.2712 -1.2662  1.2226
 2225TIP3   OH228165   5.164   4.459  15.118  0.5540 -0.1782 -0.1897
 2225TIP3    H128166   5.165   4.545  15.159 -0.1482  1.1666 -2.8987
 2225TIP3    H228167   5.073   4.430  15.124  0.0588  0.8151 -2.2813
 2226TIP3   OH228168   3.316   4.174   5.145 -1.0462  0.3618 -0.6869
 2226TIP3    H128169   3.284   4.159   5.056  0.5651 -2.6152 -0.8532
 2226TIP3    H228170   3.408   4.197   5.134 -1.2744  1.7005  0.1320
 2227TIP3   OH228171   3.596   6.545  15.126  0.2110 -0.4506  0.8159
 2227TIP3    H128172   3.667   6.480  15.115 -1.0883 -1.4442 -2.3653
 2227TIP3    H228173   3.523   6.494  15.160 -0.4132 -0.4499 -0.4765
 2228TIP3   OH228174   3.121   3.824  11.268 -0.2409  0.4662  0.7425
 2228TIP3    H128175   3.098   3.837  11.175  2.3753  2.5658  0.3418
 2228TIP3    H228176   3.216   3.828  11.270 -0.2768  0.8002  3.5992
 2229TIP3   OH228177   3.039   3.188   3.020 -0.1348  0.1386 -0.0511
 2229TIP3    H128178   3.126   3.161   2.990 -0.0256  2.0112 -1.5238
 2229TIP3    H228179   3.010   3.117   3.077  2.1527 -0.7436  0.0624
 2230TIP3   OH228180   1.896   2.225   2.422  0.7238  0.0204  0.4583
 2230TIP3    H128181   1.930   2.183   2.501 -0.2474  0.5628  1.1782
 2230TIP3    H228182   1.828   2.166   2.391  0.8067  0.0211  0.2761
 2231TIP3   OH228183   3.954   1.638   5.651 -0.2221 -0.4685 -0.0198
 2231TIP3    H128184   3.996   1.713   5.610  0.3438 -0.0207  1.3270
 2231TIP3    H228185   3.881   1.675   5.700 -0.3027 -0.8595  0.1654
 2232TIP3   OH228186   3.979   4.904  13.454  0.1412  0.4829  0.0853
 2232TIP3    H128187   3.915   4.974  13.460  0.6428  0.8791  0.9870
 2232TIP3    H228188   4.027   4.907  13.537  0.2372 -0.8632  0.1044
 2233TIP3   OH228189   4.730   0.114   1.149  0.4145  0.0761  0.3614
 2233TIP3    H128190   4.742   0.047   1.082  1.6394  0.7552 -0.1282
 2233TIP3    H228191   4.797   0.180   1.129  0.7364  0.3415  2.1933
 2234TIP3   OH228192   1.300   0.424   1.343 -0.6182  0.0377  0.6004
 2234TIP3    H128193   1.211   0.422   1.379 -1.0666  1.4387 -0.4042
 2234TIP3    H228194   1.347   0.488   1.396 -0.2842 -0.4749  0.9319
 2235TIP3   OH228195   2.366   1.129  16.994 -0.0971  0.2762 -0.1001
 2235TIP3    H128196   2.375   1.201  16.932  1.2383  0.2114  0.0086
 2235TIP3    H228197   2.342   1.054  16.940 -2.5149  0.9914 -0.1039
 2236TIP3   OH228198   3.591   0.643   0.566 -0.4084 -0.0180  0.5494
 2236TIP3    H128199   3.545   0.725   0.585 -0.7739  0.0270 -0.4687
 2236TIP3    H228200   3.630   0.657   0.480  0.1980 -0.6331  0.7206
 2237TIP3   OH228201   1.807   3.956  13.388 -0.2165  0.2688 -0.4147
 2237TIP3    H128202   1.828   3.971  13.295 -2.6999 -1.5267 -1.3421
 2237TIP3    H228203   1.873   3.893  13.417  0.6401  0.9135 -0.9384
 2238TIP3   OH228204   1.139   3.710   4.921  0.1002 -0.8562 -0.2814
 2238TIP3    H128205   1.207   3.756   4.872  0.7900 -0.2984  1.1762
 2238TIP3    H228206   1.151   3.739   5.012 -1.1009 -1.9334  0.2322
 2239TIP3   OH228207   6.529   0.720  12.157  0.0811  0.7314 -0.2809
 2239TIP3    H128208   6.436   0.697  12.166  0.5052 -0.5280  1.0947
 2239TIP3    H228209   6.543   0.724  12.062 -0.8848 -1.2781 -0.5501
 2240TIP3   OH228210   3.526   0.577   2.003  0.2556  0.3217  0.0541
 2240TIP3    H128211   3.529   0.671   1.986  2.4203  0.0062 -1.5226
 2240TIP3    H228212   3.592   0.562   2.071 -0.8780  0.0720  1.1259
 2241TIP3   OH228213   6.650   1.098   0.758 -0.3930  0.5380  0.4570
 2241TIP3    H128214   6.580   1.140   0.708 -0.6814  1.0776  1.3201
 2241TIP3    H228215   6.632   1.004   0.750 -1.2850  0.6816  0.7803
 2242TIP3   OH228216   5.249   3.305   3.388  0.2982 -0.3724 -0.3489
 2242TIP3    H128217   5.281   3.299   3.478 -0.0272 -1.2548 -0.2890
 2242TIP3    H228218   5.161   3.267   3.391 -0.1412  0.5860 -0.8273
 2243TIP3   OH228219   0.142   5.716  14.196 -0.0575  0.2277  0.5048
 2243TIP3    H128220   0.230   5.753  14.210 -0.8041  2.0775  0.4308
 2243TIP3    H228221   0.085   5.766  14.255 -1.1329 -0.6910  0.2570
 2244TIP3   OH228222   0.789   1.642   0.112  0.3344 -0.6870 -0.2275
 2244TIP3    H128223   0.809   1.628   0.205 -1.3241  1.2908  0.4697
 2244TIP3    H228224   0.737   1.566   0.087  0.2715 -0.9323  0.6351
 2245TIP3   OH228225   3.585   3.088  13.919  1.0465  0.0691  0.4264
 2245TIP3    H128226   3.539   3.004  13.913  1.0464  0.0847  0.1858
 2245TIP3    H228227   3.657   3.072  13.980  1.3000 -0.2258  0.0554
 2246TIP3   OH228228   0.131   1.235  16.115 -0.2086  0.2415 -0.1434
 2246TIP3    H128229   0.098   1.267  16.199 -1.3464  1.3258 -0.9870
 2246TIP3    H228230   0.072   1.273  16.050  1.2829  0.2665 -1.5191
 2247TIP3   OH228231   1.465   3.895  16.259 -0.4225  0.0359 -0.2932
 2247TIP3    H128232   1.397   3.918  16.323  0.3221  0.1595  0.4634
 2247TIP3    H228233   1.454   3.801  16.245 -1.4549  0.2523 -1.0172
 2248TIP3   OH228234   6.651   6.755   4.164  0.1918 -0.2235  0.2920
 2248TIP3    H128235   6.654   6.803   4.082  1.6375  0.9685  1.0211
 2248TIP3    H228236   6.737   6.714   4.171 -0.3511 -1.3282  0.6276
 2249TIP3   OH228237   1.637   3.627   5.241 -0.4029 -0.3030 -0.4258
 2249TIP3    H128238   1.645   3.722   5.247 -1.8071 -0.2497  0.9633
 2249TIP3    H228239   1.556   3.613   5.191  0.1589 -0.7839 -1.2184
 2250TIP3   OH228240   6.075   5.570   0.473 -0.1683 -0.3072 -0.6387
 2250TIP3    H128241   6.032   5.633   0.416 -2.1003  0.3373  1.4315
 2250TIP3    H228242   6.164   5.603   0.483 -0.5765  0.9844 -1.2058
 2251TIP3   OH228243   0.501   3.208   5.137 -0.7214  0.1280  0.1732
 2251TIP3    H128244   0.566   3.270   5.105 -2.0581  0.1114 -2.7668
 2251TIP3    H228245   0.429   3.214   5.074 -2.4863 -1.6773  1.9359
 2252TIP3   OH228246   6.207   0.474  12.738 -0.1976  0.2097 -0.2776
 2252TIP3    H128247   6.260   0.516  12.671 -0.1260 -0.3200 -0.5452
 2252TIP3    H228248   6.187   0.388  12.704 -0.0926 -0.0950  0.4145
 2253TIP3   OH228249   4.897   5.751  13.145  0.3332 -0.4666 -0.0226
 2253TIP3    H128250   4.989   5.761  13.122  0.4002 -0.6660  0.1533
 2253TIP3    H228251   4.862   5.690  13.079  0.3341 -0.4140 -0.0719
 2254TIP3   OH228252   6.407   3.621   5.554  0.1837  0.2955  0.3472
 2254TIP3    H128253   6.395   3.707   5.594 -0.2896  1.6985 -2.6752
 2254TIP3    H228254   6.502   3.614   5.540  0.1255  0.6843 -0.2108
 2255TIP3   OH228255   0.369   0.517   6.031 -0.2817  0.1362  0.2225
 2255TIP3    H128256   0.278   0.537   6.010 -0.3300  1.0129  1.2477
 2255TIP3    H228257   0.416   0.599   6.012  0.0903  0.0899  0.9566
 2256TIP3   OH228258   3.942   1.623  12.380 -0.0447  0.1776 -0.8570
 2256TIP3    H128259   3.938   1.715  12.407 -0.2851 -0.0944  0.0321
 2256TIP3    H228260   3.852   1.603  12.354 -0.1954 -0.0789 -0.1444
 2257TIP3   OH228261   3.199   1.706   0.506  0.2278  0.4820 -0.2262
 2257TIP3    H128262   3.130   1.648   0.473  1.2460 -1.3063  0.7034
 2257TIP3    H228263   3.219   1.764   0.433 -1.3948  0.2143 -0.9069
 2258TIP3   OH228264   4.758   2.346   1.095 -0.0695 -0.2993 -0.1933
 2258TIP3    H128265   4.724   2.424   1.139 -1.9258 -0.2050 -1.7396
 2258TIP3    H228266   4.695   2.329   1.024  1.1879 -2.2482 -0.8743
 2259TIP3   OH228267   4.268   0.176  13.951 -0.1754  0.8047  0.3541
 2259TIP3    H128268   4.285   0.199  13.860  3.1132 -3.7825 -0.3618
 2259TIP3    H228269   4.192   0.117  13.946  0.0041  0.5552  0.5769
 2260TIP3   OH228270   4.132   2.975  13.714 -0.0646 -0.4593 -0.0733
 2260TIP3    H128271   4.040   2.961  13.736 -0.2027  2.2599  1.2730
 2260TIP3    H228272   4.171   2.888  13.719 -2.6718 -1.7418 -1.2814
 2261TIP3   OH228273   5.688   5.903  15.665 -0.4894 -0.6424  0.1998
 2261TIP3    H128274   5.625   5.878  15.733 -0.6292  0.9349  0.6613
 2261TIP3    H228275   5.635   5.915  15.586 -0.6861  0.1172  0.4488
 2262TIP3   OH228276   1.291   0.762  14.102  0.4781  0.1424 -0.3309
 2262TIP3    H128277   1.297   0.711  14.022 -1.9084 -0.9549  0.1434
 2262TIP3    H228278   1.366   0.821  14.099  1.1569 -0.7982 -2.7142
 2263TIP3   OH228279   0.121   5.803   4.972 -0.3371 -0.0840 -0.1235
 2263TIP3    H128280   0.060   5.803   4.898 -0.3633  1.9667 -0.1150
 2263TIP3    H228281   0.100   5.882   5.021  1.0165 -0.3888  0.9950
 2264TIP3   OH228282   4.334   6.535   4.018 -0.4103  0.0939 -0.4329
 2264TIP3    H128283   4.368   6.459   3.971 -0.9416 -0.9838  0.9027
 2264TIP3    H228284   4.320   6.600   3.950  1.4775 -0.4679 -1.4008
 2265TIP3   OH228285   3.881   2.638   0.117  0.4380  0.0638 -0.2632
 2265TIP3    H128286   3.848   2.556   0.081 -2.4468  0.2227  1.8900
 2265TIP3    H228287   3.907   2.689   0.039  0.3630 -2.0710 -1.7192
 2266TIP3   OH228288   0.275   5.624  15.330 -0.0725 -0.2618 -0.2415
 2266TIP3    H128289   0.204   5.653  15.388 -0.3526 -1.3263 -0.0494
 2266TIP3    H228290   0.263   5.676  15.250 -1.2100 -0.5894 -0.2927
 2267TIP3   OH228291   6.338   0.333   0.153 -0.4440 -0.0887  0.0243
 2267TIP3    H128292   6.346   0.337   0.058 -1.9879 -1.2525 -0.1798
 2267TIP3    H228293   6.390   0.257   0.178 -0.9529 -0.4621 -0.0290
 2268TIP3   OH228294   4.906   2.654  14.980  0.1559 -0.2126 -0.2508
 2268TIP3    H128295   4.862   2.608  14.908  2.4494 -1.6518 -0.8152
 2268TIP3    H228296   4.970   2.590  15.012 -0.3242  0.6808  2.6076
 2269TIP3   OH228297   5.270   0.044   4.979 -0.9460  1.3776 -0.4124
 2269TIP3    H128298   5.215  -0.033   4.966  0.1773  0.5779 -0.4961
 2269TIP3    H228299   5.230   0.090   5.053 -0.5364 -0.2813  0.8668
 2270TIP3   OH228300   1.309   2.091  16.699 -0.9796 -0.3909 -0.3000
 2270TIP3    H128301   1.256   2.037  16.640 -0.0205  0.2493 -1.7897
 2270TIP3    H228302   1.380   2.035  16.727  0.1406  0.1178 -2.0182
 2271TIP3   OH228303   0.590   3.298   1.341 -0.6459  0.2811  0.3672
 2271TIP3    H128304   0.543   3.339   1.268 -3.3672 -2.1358  0.7005
 2271TIP3    H228305   0.636   3.224   1.301 -0.7118 -0.0047  0.8230
 2272TIP3   OH228306   3.705   3.654   2.495 -0.5342  0.5198  0.3688
 2272TIP3    H128307   3.645   3.596   2.541 -0.8841  0.9152  0.4038
 2272TIP3    H228308   3.656   3.735   2.481 -0.5741  0.2574 -1.0630
 2273TIP3   OH228309   4.076   6.138   3.717  0.2375  0.1774 -0.1554
 2273TIP3    H128310   4.149   6.136   3.654 -0.4831  1.2890 -1.0558
 2273TIP3    H228311   4.117   6.159   3.801  0.9667  0.7380 -0.6473
 2274TIP3   OH228312   4.838   1.172   3.733 -0.3820 -0.2713 -0.3306
 2274TIP3    H128313   4.773   1.129   3.677 -0.3670 -1.0801  0.2722
 2274TIP3    H228314   4.821   1.139   3.821  0.1319  0.3640  0.0185
 2275TIP3   OH228315   2.408   3.838   5.828 -0.0858  0.1218 -0.1788
 2275TIP3    H128316   2.338   3.843   5.763 -0.6578 -0.8712  0.3614
 2275TIP3    H228317   2.473   3.779   5.789 -0.4476 -0.5064  0.1660
 2276TIP3   OH228318   3.518   4.205   2.033  0.1694 -0.1470  0.5204
 2276TIP3    H128319   3.462   4.172   1.963 -0.3727  0.5249  0.6211
 2276TIP3    H228320   3.603   4.164   2.019  0.5381  1.2548 -1.5209
 2277TIP3   OH228321   6.561   5.641   1.962  0.0407 -0.2414 -0.1771
 2277TIP3    H128322   6.655   5.655   1.976 -0.1013  1.2767 -0.6091
 2277TIP3    H228323   6.556   5.557   1.917  1.2941  0.1828 -1.1414
 2278TIP3   OH228324   3.130   0.644  17.160 -0.6748 -0.4744  0.1748
 2278TIP3    H128325   3.077   0.662  17.237  0.2711  0.6205  0.5768
 2278TIP3    H228326   3.173   0.727  17.140  1.1324 -1.4192  0.0401
 2279TIP3   OH228327   4.019   2.489   0.689 -0.5930 -0.0265  0.1545
 2279TIP3    H128328   4.086   2.534   0.741 -0.8541 -1.1684  1.4775
 2279TIP3    H228329   4.066   2.415   0.649 -0.7265  0.0319 -0.1139
 2280TIP3   OH228330   0.250   2.688   6.172  0.2283 -0.2965  0.0821
 2280TIP3    H128331   0.243   2.614   6.233 -0.3240 -1.9506 -1.9329
 2280TIP3    H228332   0.320   2.742   6.207  0.3439 -1.5547  1.8343
 2281TIP3   OH228333   4.900   3.291   2.731  0.0340 -0.0215  0.0210
 2281TIP3    H128334   4.839   3.322   2.798 -0.5234 -0.5500 -0.2400
 2281TIP3    H228335   4.918   3.368   2.677 -0.1176  0.2187  0.3092
 2282TIP3   OH228336   2.900   2.801  14.133 -0.3612  0.0124 -0.1494
 2282TIP3    H128337   2.910   2.738  14.204 -1.3762  0.3397  0.3102
 2282TIP3    H228338   2.929   2.884  14.171 -0.7542  0.1587 -0.1671
 2283TIP3   OH228339   4.151   6.718   3.041 -0.6960 -0.0502 -0.1911
 2283TIP3    H128340   4.235   6.676   3.059 -0.8112 -0.5384 -0.7820
 2283TIP3    H228341   4.166   6.770   2.962  0.3008  3.5138  2.2006
 2284TIP3   OH228342   2.702   2.759   0.299  0.0670  0.1823 -0.1172
 2284TIP3    H128343   2.689   2.758   0.204  0.8823  0.3049 -0.2326
 2284TIP3    H228344   2.776   2.699   0.314 -1.3570 -1.4447  0.6412
 2285TIP3   OH228345   4.167   4.947  15.490  0.4914  0.3763 -0.4152
 2285TIP3    H128346   4.257   4.943  15.523  0.5726 -1.3636 -0.8419
 2285TIP3    H228347   4.176   4.941  15.395 -0.0928  0.0407 -0.4481
 2286TIP3   OH228348   4.510   3.068   4.979 -0.9380  0.9524 -0.2158
 2286TIP3    H128349   4.498   3.138   4.915  0.1783  0.9821 -0.4089
 2286TIP3    H228350   4.586   3.095   5.030 -0.5188 -0.0954 -0.2681
 2287TIP3   OH228351   0.884   2.065   0.006 -0.3467 -0.1172 -0.4360
 2287TIP3    H128352   0.949   2.008  -0.036  0.6923  0.9874 -0.3346
 2287TIP3    H228353   0.874   2.139  -0.053  1.7349  1.8663  1.5903
 2288TIP3   OH228354   2.666   6.030  16.248 -0.3718  0.2205  0.2060
 2288TIP3    H128355   2.610   6.004  16.321  0.9096  0.5853  1.3218
 2288TIP3    H228356   2.750   6.053  16.288  0.9029 -1.2624 -1.5572
 2289TIP3   OH228357   5.675   0.028  12.952  0.0315  0.7222 -0.0289
 2289TIP3    H128358   5.748  -0.004  13.005  1.4112  1.6754 -1.2854
 2289TIP3    H228359   5.645   0.106  12.998  1.6556  1.9286 -0.9393
 2290TIP3   OH228360   1.773   6.158   5.843 -0.0885 -0.7256 -0.0020
 2290TIP3    H128361   1.836   6.208   5.791 -0.5827  0.8198  0.8437
 2290TIP3    H228362   1.693   6.157   5.789  0.6064 -2.5718 -1.0156
 2291TIP3   OH228363   3.428   1.908   4.212 -0.0812 -0.3037  0.3630
 2291TIP3    H128364   3.433   2.004   4.212  1.6604 -0.3763  1.2776
 2291TIP3    H228365   3.342   1.889   4.175 -0.3430  1.6083 -0.0800
 2292TIP3   OH228366   2.941   3.155   4.148 -0.1472  0.0699  0.7436
 2292TIP3    H128367   2.933   3.199   4.064  0.0516 -0.5603  0.3955
 2292TIP3    H228368   2.860   3.176   4.194  0.3021  1.4832  0.9004
 2293TIP3   OH228369   2.168   0.932   7.037 -0.4437 -0.0060 -0.2524
 2293TIP3    H128370   2.098   0.867   7.025 -1.3990  1.1257 -1.0045
 2293TIP3    H228371   2.204   0.913   7.123 -2.5878  0.2064  0.7345
 2294TIP3   OH228372   2.282   4.063  14.557  0.1222 -0.0634  0.0207
 2294TIP3    H128373   2.206   4.116  14.580 -0.5309 -1.0113  0.0829
 2294TIP3    H228374   2.319   4.037  14.641  1.3130  1.5127 -0.0044
 2295TIP3   OH228375   6.534   2.690   0.146  0.1608 -0.6997  0.9634
 2295TIP3    H128376   6.566   2.640   0.071 -1.2845  0.0592 -0.1923
 2295TIP3    H228377   6.571   2.646   0.222  2.0504 -1.1992 -0.2051
 2296TIP3   OH228378   1.222   1.827  11.602 -0.0687  0.3180 -0.0564
 2296TIP3    H128379   1.190   1.742  11.571 -2.7970  0.7198  1.4541
 2296TIP3    H228380   1.184   1.891  11.541  2.3457  0.4748 -1.4618
 2297TIP3   OH228381   5.442   2.633   2.516 -0.3545  0.0225 -0.1354
 2297TIP3    H128382   5.367   2.575   2.502  0.2428 -0.7282 -0.2603
 2297TIP3    H228383   5.502   2.612   2.444  1.0009 -1.0361  1.2862
 2298TIP3   OH228384   1.157   1.558  11.564 -0.0954  0.2132  0.1543
 2298TIP3    H128385   1.185   1.500  11.634 -1.2190 -0.4441  0.0664
 2298TIP3    H228386   1.147   1.501  11.488 -0.4034  0.6548 -0.1380
 2299TIP3   OH228387   5.930   5.396  12.562 -0.4029  0.1504  0.4839
 2299TIP3    H128388   5.940   5.301  12.563 -1.2514  0.0606  0.3885
 2299TIP3    H228389   6.005   5.428  12.612  0.4563 -0.5130 -0.3667
 2300TIP3   OH228390   4.361   6.033  11.538 -0.7042 -0.1808  0.3228
 2300TIP3    H128391   4.315   6.018  11.621 -0.3057 -0.6921  0.4512
 2300TIP3    H228392   4.393   6.123  11.545 -0.0051 -0.4790  1.0564
 2301TIP3   OH228393   0.226   1.767   0.330 -0.1239 -0.4445  0.3699
 2301TIP3    H128394   0.165   1.705   0.371  1.1376 -0.0449  2.9978
 2301TIP3    H228395   0.206   1.851   0.371 -0.4104  0.4930 -1.6292
 2302TIP3   OH228396   6.764   3.249   1.583 -0.0018  0.5531  0.6287
 2302TIP3    H128397   6.694   3.299   1.626  0.4523  0.5427  1.3774
 2302TIP3    H228398   6.844   3.279   1.625  0.3480 -0.2299  0.5176
 2303TIP3   OH228399   0.483   5.898  11.522  0.4041  0.4019 -0.5201
 2303TIP3    H128400   0.439   5.861  11.445  0.0881  0.0120 -0.1565
 2303TIP3    H228401   0.424   5.878  11.595  0.4767  1.1824 -0.2461
 2304TIP3   OH228402   6.406   0.711  16.384  0.2136 -0.0934  0.1065
 2304TIP3    H128403   6.348   0.636  16.372  1.5637 -1.0667 -0.5063
 2304TIP3    H228404   6.370   0.757  16.459 -0.4886 -1.5046  0.6630
 2305TIP3   OH228405   2.188   5.794   2.183 -0.4796 -0.0473  0.4142
 2305TIP3    H128406   2.218   5.864   2.126 -1.2145 -0.1057 -0.0548
 2305TIP3    H228407   2.097   5.816   2.202 -1.2480 -1.7025 -1.0836
 2306TIP3   OH228408   0.309   1.399  12.227 -0.4128  0.0215 -0.6284
 2306TIP3    H128409   0.348   1.478  12.263  0.1945 -0.4864 -0.1517
 2306TIP3    H228410   0.353   1.327  12.273 -3.0026 -0.5523  1.0690
 2307TIP3   OH228411   3.620   1.637  14.499  0.3618  0.2351  0.2070
 2307TIP3    H128412   3.543   1.694  14.503  0.1564 -0.0332  0.0555
 2307TIP3    H228413   3.590   1.553  14.532  0.3715 -0.1113 -0.6638
 2308TIP3   OH228414   4.757   6.798  12.664  0.5273 -0.6092 -0.1029
 2308TIP3    H128415   4.837   6.834  12.703  0.8237 -1.6726  0.2713
 2308TIP3    H228416   4.686   6.829  12.721  0.7514 -0.4025  0.0643
 2309TIP3   OH228417   2.886   2.059   4.590  0.1267 -0.3726 -0.0085
 2309TIP3    H128418   2.948   2.069   4.662 -1.1513  1.0351  0.9055
 2309TIP3    H228419   2.830   1.985   4.615  1.4161 -1.6700 -0.8513
 2310TIP3   OH228420   0.681   4.536   5.652 -0.6230  0.2413  0.1230
 2310TIP3    H128421   0.667   4.543   5.558  0.7866  0.8723 -0.0501
 2310TIP3    H228422   0.680   4.626   5.684  0.5220  0.1423  0.4628
 2311TIP3   OH228423   1.249   2.862  12.167 -0.3904  0.0612  0.3340
 2311TIP3    H128424   1.330   2.905  12.139 -0.7048  0.1612 -0.4351
 2311TIP3    H228425   1.239   2.788  12.106 -0.9605  0.1452  0.3197
 2312TIP3   OH228426   3.194   4.065   3.608 -0.2222 -0.0996  0.4240
 2312TIP3    H128427   3.229   4.021   3.530 -0.7387 -1.0284  0.7100
 2312TIP3    H228428   3.136   4.132   3.572 -1.8260 -1.6639 -0.0011
 2313TIP3   OH228429   4.810   4.294   2.965  0.0920 -0.9352 -0.3037
 2313TIP3    H128430   4.785   4.264   3.053 -1.2071  0.3148 -0.2213
 2313TIP3    H228431   4.763   4.377   2.954 -1.0275 -1.8430 -2.7927
 2314TIP3   OH228432   3.451   2.738   6.303  0.1043  0.5561 -0.1148
 2314TIP3    H128433   3.441   2.796   6.378 -1.2975 -0.8370  0.8132
 2314TIP3    H228434   3.496   2.661   6.338  1.3860  0.7807 -1.1982
 2315TIP3   OH228435   5.982   2.983  16.280 -0.1121  0.7023  0.2472
 2315TIP3    H128436   5.961   3.044  16.210 -0.0009 -1.3129 -1.5678
 2315TIP3    H228437   6.077   2.991  16.291 -0.0710  0.7218 -0.1138
 2316TIP3   OH228438   5.749   4.730  13.953 -0.1176  0.5190 -0.3166
 2316TIP3    H128439   5.728   4.650  14.000 -2.6864  1.2540 -0.1310
 2316TIP3    H228440   5.824   4.766  14.000 -0.4156 -0.5860  1.0391
 2317TIP3   OH228441   6.742   2.369   4.270  0.2696 -0.2022  0.0369
 2317TIP3    H128442   6.680   2.358   4.342 -0.2492 -1.0998 -0.5321
 2317TIP3    H228443   6.739   2.462   4.249  0.1822  0.0029  0.9653
 2318TIP3   OH228444   4.448   1.864  14.469 -0.1520  0.2022 -0.4710
 2318TIP3    H128445   4.382   1.840  14.403  0.2402 -1.0429 -0.4194
 2318TIP3    H228446   4.412   1.831  14.552  1.3849 -2.1914 -0.7089
 2319TIP3   OH228447   4.861   3.792  13.183  0.2039 -0.0051  0.2735
 2319TIP3    H128448   4.801   3.806  13.256 -1.7316  0.9836 -1.4623
 2319TIP3    H228449   4.827   3.714  13.139  1.0954 -0.3208  0.1274
 2320TIP3   OH228450   3.692   6.008   5.440 -0.2015  0.5015  0.1943
 2320TIP3    H128451   3.669   6.091   5.397 -1.9830  0.9273  1.8891
 2320TIP3    H228452   3.608   5.967   5.460  0.6159 -0.5140  1.6638
 2321TIP3   OH228453   1.713   2.408  13.254  0.6615 -0.3702 -0.1325
 2321TIP3    H128454   1.751   2.415  13.342 -1.4813  1.0704  0.7314
 2321TIP3    H228455   1.726   2.494  13.215  0.3359 -0.5630 -0.6777
 2322TIP3   OH228456   6.063   0.191   4.537 -0.3266  0.6250 -0.1919
 2322TIP3    H128457   5.992   0.210   4.475 -0.8282  1.1294  0.5298
 2322TIP3    H228458   6.022   0.198   4.623 -0.3363 -2.8304  0.1840
 2323TIP3   OH228459   1.061   3.658   0.519  0.8674 -0.0684 -0.5158
 2323TIP3    H128460   0.977   3.635   0.481  0.2413 -1.0374  1.3940
 2323TIP3    H228461   1.072   3.751   0.498 -0.2759 -0.1423 -1.4944
 2324TIP3   OH228462   0.437   3.217  13.614 -0.2422  0.0670  0.5712
 2324TIP3    H128463   0.404   3.179  13.533 -0.5287  0.9126  0.2804
 2324TIP3    H228464   0.361   3.263  13.651  0.2700  0.9486  0.5496
 2325TIP3   OH228465   6.693   3.605   0.996 -0.0886  0.0194 -0.6043
 2325TIP3    H128466   6.786   3.582   1.002  0.0186  0.8293  1.1694
 2325TIP3    H228467   6.647   3.529   1.032  0.1789  1.7283  3.5575
 2326TIP3   OH228468   6.419   6.062  13.189 -0.0875 -0.5714  0.3717
 2326TIP3    H128469   6.447   5.978  13.151  2.6703  0.4425  0.0753
 2326TIP3    H228470   6.501   6.107  13.211 -1.5090  2.3637 -0.1206
 2327TIP3   OH228471   0.367   1.033   2.451 -0.3901 -0.9590 -0.4094
 2327TIP3    H128472   0.283   0.988   2.446 -0.4272 -0.7155 -2.1414
 2327TIP3    H228473   0.375   1.079   2.368  1.5092 -1.0504 -0.2999
 2328TIP3   OH228474   1.578   6.783  13.296  0.1101  0.2787 -0.3182
 2328TIP3    H128475   1.638   6.853  13.268 -0.1817  0.8706  0.5163
 2328TIP3    H228476   1.496   6.803  13.252  0.2707 -0.0325 -0.7617
 2329TIP3   OH228477   4.694   0.720  15.724  0.3130 -0.0576 -0.5049
 2329TIP3    H128478   4.659   0.792  15.672 -1.0298  0.0058  0.4583
 2329TIP3    H228479   4.747   0.669  15.662 -0.4428  0.5740 -1.6854
 2330TIP3   OH228480   1.028   3.544  10.655  0.4670  0.0286  0.1861
 2330TIP3    H128481   1.072   3.527  10.572  0.2339 -1.1976  0.3075
 2330TIP3    H228482   1.084   3.503  10.721  0.2601  0.3453  0.5610
 2331TIP3   OH228483   2.520   6.785  17.269 -0.5100 -0.0461  0.2577
 2331TIP3    H128484   2.508   6.857  17.206  0.1534 -1.1061 -1.0964
 2331TIP3    H228485   2.432   6.748  17.280 -0.9813  1.3404  1.4538
 2332TIP3   OH228486   4.968   4.066   0.577 -0.0155  0.3846 -0.3334
 2332TIP3    H128487   4.989   4.017   0.657  0.5378  0.5727 -0.3680
 2332TIP3    H228488   4.874   4.082   0.583 -0.1945 -0.6399 -0.2910
 2333TIP3   OH228489   0.428   1.756  14.490 -0.0208 -0.0826 -0.1853
 2333TIP3    H128490   0.517   1.733  14.515 -0.0502  1.1190  1.0771
 2333TIP3    H228491   0.439   1.817  14.416  0.2034  0.1209  0.0161
 2334TIP3   OH228492   0.518   6.173   1.359 -0.1847 -0.3482  0.2547
 2334TIP3    H128493   0.528   6.267   1.342  0.0675  0.0023  2.2318
 2334TIP3    H228494   0.464   6.142   1.287 -0.1508  1.2900 -0.5140
 2335TIP3   OH228495   2.010   4.742  11.028  0.6907 -0.3014 -0.5401
 2335TIP3    H128496   1.928   4.738  10.979  0.4912 -0.4985 -0.1914
 2335TIP3    H228497   2.057   4.662  11.004  1.2481  0.3216 -1.5530
 2336TIP3   OH228498   0.040   3.366  11.441  0.4001  0.3612  0.5456
 2336TIP3    H128499   0.122   3.337  11.399  1.0259  1.0082  1.3078
 2336TIP3    H228500  -0.017   3.290  11.436  1.0995 -0.1460  0.1258
 2337TIP3   OH228501   4.667   5.989   6.388 -0.0628 -0.1152  0.1596
 2337TIP3    H128502   4.738   5.934   6.422  0.5102  0.0449 -0.7451
 2337TIP3    H228503   4.712   6.053   6.333 -1.0476 -1.0298 -1.7533
 2338TIP3   OH228504   0.003   6.068   0.640 -0.6612 -0.8337 -0.0882
 2338TIP3    H128505   0.056   6.105   0.710 -1.6791  1.1979 -0.3551
 2338TIP3    H228506   0.067   6.035   0.576  0.2609 -1.0320  0.9229
 2339TIP3   OH228507   6.452   1.658   0.305  0.0226 -0.0620 -0.2340
 2339TIP3    H128508   6.540   1.691   0.289 -0.5553  1.2458 -0.7946
 2339TIP3    H228509   6.417   1.715   0.373 -1.3739  1.2043 -1.9739
 2340TIP3   OH228510   4.050   4.817   1.616  0.2373 -0.2562 -0.5340
 2340TIP3    H128511   4.139   4.849   1.599 -0.2239  0.5222 -1.5458
 2340TIP3    H228512   3.996   4.896   1.617 -0.5971 -0.8154 -0.8850
 2341TIP3   OH228513   4.611   4.151  10.929 -0.1646 -0.3929 -0.3759
 2341TIP3    H128514   4.646   4.137  10.841  0.5348  0.9105 -0.3053
 2341TIP3    H228515   4.520   4.177  10.915 -0.5952 -1.9405 -0.6255
 2342TIP3   OH228516   0.574   0.944   3.291 -0.3215 -0.5674 -0.5339
 2342TIP3    H128517   0.566   0.849   3.278 -2.5880 -0.1185 -2.8064
 2342TIP3    H228518   0.584   0.979   3.203 -1.1556  1.4579  0.1536
 2343TIP3   OH228519   3.334   6.529   1.780  0.1194  0.7405 -0.1246
 2343TIP3    H128520   3.362   6.561   1.694 -0.1467 -0.4147 -0.6572
 2343TIP3    H228521   3.415   6.507   1.826  0.2476  0.9531 -0.2510
 2344TIP3   OH228522   0.115   5.780  12.720 -0.0603 -0.0218 -0.5216
 2344TIP3    H128523   0.197   5.753  12.679  1.1368  0.4181  1.5156
 2344TIP3    H228524   0.114   5.732  12.803 -2.6258 -1.2238 -1.2059
 2345TIP3   OH228525   2.423   2.406  17.157 -0.5506 -0.1114 -0.0831
 2345TIP3    H128526   2.361   2.447  17.098  0.2903 -0.0661 -0.9502
 2345TIP3    H228527   2.497   2.467  17.161  0.2221 -0.9983 -0.4903
 2346TIP3   OH228528   0.575   3.249   3.746 -0.3299  0.3275  0.0515
 2346TIP3    H128529   0.516   3.176   3.764  0.6138 -0.2093  1.0495
 2346TIP3    H228530   0.525   3.308   3.690 -2.1734  0.4408  1.7988
 2347TIP3   OH228531   3.283   0.537  16.714 -0.8128 -0.1916  0.6483
 2347TIP3    H128532   3.225   0.504  16.646 -2.7250  0.2282  2.0349
 2347TIP3    H228533   3.258   0.629  16.724  0.3735  0.0971  0.9816
 2348TIP3   OH228534   5.881   1.723  16.355  0.7671  0.1692  0.3536
 2348TIP3    H128535   5.938   1.709  16.430  0.1719  1.7752  1.1254
 2348TIP3    H228536   5.793   1.730  16.392  0.3613  0.0853 -0.5781
 2349TIP3   OH228537   5.427   1.788  12.471  0.1449  0.3539  0.3732
 2349TIP3    H128538   5.522   1.782  12.471  0.2561  1.6214 -2.0159
 2349TIP3    H228539   5.408   1.871  12.516  0.1378 -0.0587  1.1425
 2350TIP3   OH228540   1.563   2.966   2.879  0.3406 -0.0059 -0.6631
 2350TIP3    H128541   1.533   2.990   2.967  1.0663 -0.7614 -0.1917
 2350TIP3    H228542   1.499   2.902   2.848  1.6436 -1.9175  0.5020
 2351TIP3   OH228543   5.462   4.113  13.343 -0.0335  0.5467 -0.7426
 2351TIP3    H128544   5.513   4.179  13.298  1.1212  0.2124  0.0497
 2351TIP3    H228545   5.415   4.067  13.274  1.8610 -0.0886 -1.6332
 2352TIP3   OH228546   3.047   4.500  13.056 -0.9298 -0.4109  0.0082
 2352TIP3    H128547   2.964   4.504  13.009 -1.1705 -2.3872  0.2237
 2352TIP3    H228548   3.024   4.461  13.141  0.0250  0.1207  0.5163
 2353TIP3   OH228549   5.365   3.975  10.840  0.1341  0.2503 -0.0978
 2353TIP3    H128550   5.369   4.068  10.819  0.8648  0.4831  1.0597
 2353TIP3    H228551   5.273   3.952  10.831  0.1693  0.7234 -1.9116
 2354TIP3   OH228552   0.921   4.660   5.112 -0.5974  0.0571 -0.4172
 2354TIP3    H128553   0.848   4.618   5.066 -0.7523  0.3542 -0.4429
 2354TIP3    H228554   0.946   4.598   5.180 -1.7904  0.5589  0.5031
 2355TIP3   OH228555   2.438   1.977  12.606 -0.0211  0.1900  0.2276
 2355TIP3    H128556   2.463   1.899  12.557 -0.0560  0.5702 -0.4110
 2355TIP3    H228557   2.498   1.980  12.680 -2.0940 -2.1986  2.0729
 2356TIP3   OH228558   0.581   3.904  15.547 -0.1358  1.0649  0.0877
 2356TIP3    H128559   0.548   3.830  15.598 -0.8799  0.6542 -0.9765
 2356TIP3    H228560   0.507   3.964  15.540  0.4326  1.8788  0.8514
 2357TIP3   OH228561   4.939   6.144   4.258 -0.0312  0.3879 -0.1782
 2357TIP3    H128562   4.921   6.208   4.326  2.0434 -0.2207  1.0034
 2357TIP3    H228563   4.862   6.146   4.201 -1.1728  1.9225  1.3830
 2358TIP3   OH228564   3.771   1.250   6.116  0.2139 -0.1503  0.1791
 2358TIP3    H128565   3.694   1.237   6.171  0.1942 -0.5137  0.0674
 2358TIP3    H228566   3.838   1.195   6.156 -0.2193 -1.5773 -1.0086
 2359TIP3   OH228567   0.875   1.308  11.678 -0.8426 -0.3733  0.3820
 2359TIP3    H128568   0.843   1.397  11.668  0.3943  0.2010  1.3520
 2359TIP3    H228569   0.913   1.286  11.593  0.5691  0.7482  0.7053
 2360TIP3   OH228570   5.626   2.361  12.617 -0.1330 -0.0976 -0.5102
 2360TIP3    H128571   5.658   2.334  12.703  1.7563  0.1833 -1.1205
 2360TIP3    H228572   5.629   2.281  12.564  0.5464  0.1639 -0.8635
 2361TIP3   OH228573   6.632   6.521  13.497 -0.0311  0.1440  0.5061
 2361TIP3    H128574   6.645   6.606  13.539 -2.2815  0.7296  0.1181
 2361TIP3    H228575   6.611   6.462  13.570  0.7486  0.0880  0.6909
 2362TIP3   OH228576   4.343   6.043   0.507  0.0969 -0.0344  0.7200
 2362TIP3    H128577   4.294   6.115   0.547  1.4151  1.2508  0.0436
 2362TIP3    H228578   4.343   6.063   0.414  0.1285 -1.1419  0.4747
 2363TIP3   OH228579   1.866   5.134   4.359  0.3542  0.4421  0.0439
 2363TIP3    H128580   1.862   5.086   4.442 -0.2657  0.8168  0.2374
 2363TIP3    H228581   1.958   5.130   4.333  0.8018  1.4469  1.4250
 2364TIP3   OH228582   2.477   5.360  11.951  0.0804  0.6176 -0.0190
 2364TIP3    H128583   2.426   5.346  12.030  0.6337 -2.1854 -0.1141
 2364TIP3    H228584   2.413   5.354  11.880  0.2293 -1.1973 -0.0265
 2365TIP3   OH228585   6.389   4.067  12.790 -0.6630  0.1725 -0.0639
 2365TIP3    H128586   6.440   4.072  12.709  3.0489 -0.9071  2.0870
 2365TIP3    H228587   6.373   4.159  12.814  2.0061  0.5999  0.2125
 2366TIP3   OH228588   4.691   5.366  11.276 -0.1258 -0.4122  0.2659
 2366TIP3    H128589   4.653   5.451  11.298 -0.9787  0.2406 -3.4465
 2366TIP3    H228590   4.778   5.367  11.317 -0.0726  2.3138  0.1771
 2367TIP3   OH228591   3.673   2.236   2.920 -0.2717  0.6542 -0.5170
 2367TIP3    H128592   3.764   2.220   2.897  0.0304  1.6007  0.0267
 2367TIP3    H228593   3.626   2.233   2.837  0.0827 -0.9375 -0.6783
 2368TIP3   OH228594   2.764   1.039  12.246  0.4698  0.0617 -0.4879
 2368TIP3    H128595   2.681   1.064  12.206  0.1124  1.4279  1.0266
 2368TIP3    H228596   2.759   1.075  12.335  3.0364  0.9190 -0.6517
 2369TIP3   OH228597   1.590   1.460  11.908 -0.2804  0.1611  0.3004
 2369TIP3    H128598   1.606   1.548  11.941  0.3103  0.0180  0.4022
 2369TIP3    H228599   1.677   1.420  11.903 -0.6387 -0.7618  1.2209
 2370TIP3   OH228600   1.969   4.006   2.900 -0.1417  0.2794  0.3980
 2370TIP3    H128601   1.894   3.950   2.880  1.0130 -2.0505  2.3714
 2370TIP3    H228602   2.045   3.958   2.868  0.7118  1.5895  0.4334
 2371TIP3   OH228603   4.041   4.574   2.103  0.7396  0.2251  0.5870
 2371TIP3    H128604   3.987   4.526   2.166  2.9032 -2.5517  0.4352
 2371TIP3    H228605   4.126   4.583   2.147  1.8190 -0.4323 -1.3196
 2372TIP3   OH228606   4.663   4.419   5.048 -0.1298 -0.1615 -0.2478
 2372TIP3    H128607   4.739   4.378   5.088 -0.0813 -0.3807 -0.5656
 2372TIP3    H228608   4.653   4.503   5.094  0.4802  0.0008 -0.4151
 2373TIP3   OH228609   5.319   2.929   4.650 -0.3197 -0.6129 -0.3495
 2373TIP3    H128610   5.249   2.975   4.696  0.4972  0.8790 -0.5586
 2373TIP3    H228611   5.369   2.999   4.606  0.5858 -1.7545 -1.1656
 2374TIP3   OH228612   0.671   0.763  10.878  1.0700 -0.0547  0.0168
 2374TIP3    H128613   0.730   0.838  10.882  0.0193  0.7502  0.8680
 2374TIP3    H228614   0.630   0.760  10.965  0.7501 -1.3207 -0.1636
 2375TIP3   OH228615   1.512   1.533  14.661 -0.1987  0.2104  0.1866
 2375TIP3    H128616   1.449   1.601  14.685 -0.7437 -0.8449  1.8550
 2375TIP3    H228617   1.596   1.567  14.691 -0.3740  0.4567  0.3994
 2376TIP3   OH228618   0.640   2.652  16.985  0.0438 -0.2410  0.4369
 2376TIP3    H128619   0.701   2.722  16.963 -1.0205  0.3429 -0.7923
 2376TIP3    H228620   0.684   2.572  16.956  0.4309  0.1236  0.0047
 2377TIP3   OH228621   6.694   0.888  13.353 -0.1926  0.0320  0.2385
 2377TIP3    H128622   6.636   0.836  13.298  0.4621 -0.5642  0.1082
 2377TIP3    H228623   6.637   0.920  13.424 -1.0751  0.9511 -0.8616
 2378TIP3   OH228624   6.242   6.287  17.160  0.1881 -0.6076 -0.1151
 2378TIP3    H128625   6.315   6.343  17.133  0.2563 -1.1826 -1.1501
 2378TIP3    H228626   6.281   6.200  17.170 -0.6910 -1.3059 -2.4623
 2379TIP3   OH228627   0.324   2.178   4.471  0.5443  0.4960 -0.0843
 2379TIP3    H128628   0.237   2.138   4.472 -0.2474  2.1640  0.1545
 2379TIP3    H228629   0.341   2.202   4.562  1.0419  0.6152 -0.2087
 2380TIP3   OH228630   4.413   6.509   4.879 -0.3457  0.3787 -0.7118
 2380TIP3    H128631   4.382   6.546   4.796 -0.5896  1.5696 -0.1017
 2380TIP3    H228632   4.353   6.544   4.945 -0.4130 -0.9080 -0.0782
 2381TIP3   OH228633   0.686   3.274   6.395 -0.0892 -0.0448  0.2822
 2381TIP3    H128634   0.771   3.240   6.367  0.1392 -1.7290  2.8420
 2381TIP3    H228635   0.624   3.206   6.371 -0.4479  0.3359  0.1360
 2382TIP3   OH228636   4.648   5.985  11.344  0.7840 -0.6319 -0.5421
 2382TIP3    H128637   4.676   5.900  11.378 -0.5150 -1.4045 -1.3663
 2382TIP3    H228638   4.574   5.965  11.287  0.5384  1.0471 -0.8401
 2383TIP3   OH228639   0.425   3.261   4.725 -0.6434  0.2828  0.0395
 2383TIP3    H128640   0.517   3.284   4.717  0.0091 -1.6997  1.5062
 2383TIP3    H228641   0.387   3.332   4.778 -0.0649  1.3054 -0.8970
 2384TIP3   OH228642   6.621   4.885  11.426 -0.0092 -0.5889 -0.2327
 2384TIP3    H128643   6.673   4.960  11.397  0.5136 -0.9778 -0.3045
 2384TIP3    H228644   6.685   4.814  11.437 -0.5829 -1.1955 -0.7529
 2385TIP3   OH228645   5.508   0.296   3.117  0.7921  0.5522  0.3879
 2385TIP3    H128646   5.440   0.314   3.182  0.3137 -1.1138  0.3737
 2385TIP3    H228647   5.476   0.335   3.036  0.2009  0.4313  0.5597
 2386TIP3   OH228648   0.138   5.033  12.409  0.3677 -0.0030  0.0988
 2386TIP3    H128649   0.130   4.942  12.378  1.4242  0.0964 -0.4831
 2386TIP3    H228650   0.146   5.084  12.328  0.5193  0.5358  0.4587
 2387TIP3   OH228651   4.975   3.496  13.067 -0.3716 -0.2569  0.6795
 2387TIP3    H128652   4.960   3.447  12.987  1.5736  2.5792 -1.5112
 2387TIP3    H228653   4.893   3.541  13.084  0.1302  1.5718 -1.5217
 2388TIP3   OH228654   2.459   5.608  14.021 -1.0046  0.1141 -0.0220
 2388TIP3    H128655   2.451   5.516  14.047 -0.3927 -0.0697 -0.4626
 2388TIP3    H228656   2.392   5.620  13.954 -1.0193 -0.0401 -0.0350
 2389TIP3   OH228657   3.223   3.955   3.339 -0.0895 -0.1214 -0.0128
 2389TIP3    H128658   3.135   3.989   3.320 -0.0788 -1.0449 -1.8042
 2389TIP3    H228659   3.254   3.922   3.256  1.9476  0.1002  0.6411
 2390TIP3   OH228660   0.069   4.317  16.409 -0.0554  0.5007  0.1442
 2390TIP3    H128661  -0.001   4.373  16.376 -0.5010 -0.5626 -0.7653
 2390TIP3    H228662   0.142   4.334  16.349 -0.0551  0.4184  0.1216
 2391TIP3   OH228663   0.858   1.557   2.740  0.5853 -0.4129 -0.1638
 2391TIP3    H128664   0.838   1.644   2.775 -1.0708 -0.1947 -1.5699
 2391TIP3    H228665   0.831   1.496   2.808 -1.8685  0.0371 -0.6987
 2392TIP3   OH228666   2.215   2.565  12.870 -0.3723 -0.2710  0.0754
 2392TIP3    H128667   2.187   2.631  12.807  1.4182  1.2267  0.8103
 2392TIP3    H228668   2.286   2.607  12.919 -0.2294 -2.2019  1.5799
 2393TIP3   OH228669   0.224   3.769   5.917  0.0829  0.6936 -0.3797
 2393TIP3    H128670   0.203   3.748   6.008  0.9557 -0.1467 -0.3618
 2393TIP3    H228671   0.255   3.859   5.919  2.1626 -0.0002  0.5155
 2394TIP3   OH228672   3.809   6.662   5.812  0.0903 -0.4670 -0.0002
 2394TIP3    H128673   3.759   6.744   5.815  0.1808 -0.3851 -0.7023
 2394TIP3    H228674   3.881   6.675   5.874 -0.1552 -0.1910  0.2313
 2395TIP3   OH228675   0.206   6.581  11.627  0.0473  0.2854  0.5201
 2395TIP3    H128676   0.217   6.676  11.625  1.0333  0.1662 -0.6632
 2395TIP3    H228677   0.282   6.548  11.580 -0.5205 -1.0725  0.5411
 2396TIP3   OH228678   6.484   4.462  13.891  0.4185  0.4837 -0.0357
 2396TIP3    H128679   6.579   4.472  13.893  0.3762  0.8703  0.1718
 2396TIP3    H228680   6.450   4.548  13.918  0.0190  0.0862  0.7422
 2397TIP3   OH228681   1.754   2.445  14.206  0.3781  0.1945  0.6113
 2397TIP3    H128682   1.836   2.445  14.254  0.6336  0.2906  0.1776
 2397TIP3    H228683   1.760   2.521  14.148  0.1378 -0.0070  0.3190
 2398TIP3   OH228684   1.808   0.581   1.648 -0.1482 -0.1922 -0.0014
 2398TIP3    H128685   1.757   0.580   1.567 -1.7934  0.4719  0.9968
 2398TIP3    H228686   1.746   0.554   1.715  0.4045  2.1114  1.4670
 2399TIP3   OH228687   3.100   4.150  14.897 -0.5323 -0.2484  0.3632
 2399TIP3    H128688   3.071   4.076  14.950 -1.2836  2.1794  3.5031
 2399TIP3    H228689   3.182   4.178  14.938  0.2091  0.1343 -1.3419
 2400TIP3   OH228690   3.932   4.980  11.273  0.6053 -0.3635  0.6684
 2400TIP3    H128691   3.900   4.896  11.241 -1.8561  0.7803  0.0386
 2400TIP3    H228692   3.874   5.044  11.235  1.6912  1.5604  2.1540
 2401TIP3   OH228693   0.850   6.120   5.602  0.4385  0.2978  0.6052
 2401TIP3    H128694   0.778   6.134   5.541  0.7628 -0.1445  0.1259
 2401TIP3    H228695   0.924   6.167   5.564  0.5571  0.2869  0.8200
 2402TIP3   OH228696   1.748   5.134   5.794  0.3491  0.4519  1.1752
 2402TIP3    H128697   1.683   5.064   5.794  0.5966  0.2217  0.3478
 2402TIP3    H228698   1.810   5.109   5.863  1.4231 -1.0591 -0.3312
 2403TIP3   OH228699   3.897   2.299  13.777 -1.0586 -0.4161 -0.4215
 2403TIP3    H128700   3.946   2.250  13.843 -3.6761 -1.3950  0.8685
 2403TIP3    H228701   3.962   2.322  13.711  1.6714  0.6329  2.5024
 2404TIP3   OH228702   3.929   4.149   0.648 -0.2300  0.5795 -0.2923
 2404TIP3    H128703   3.990   4.076   0.656 -2.4592 -1.1203  1.9409
 2404TIP3    H228704   3.913   4.177   0.739 -1.3366  2.1985 -0.9645
 2405TIP3   OH228705   3.754   6.045   0.944 -0.4227  0.3218  0.3829
 2405TIP3    H128706   3.835   6.036   0.994 -0.0464  2.0817  0.1385
 2405TIP3    H228707   3.684   6.038   1.010 -0.0924 -1.1987  0.5914
 2406TIP3   OH228708   6.451   5.713   2.191 -0.0384 -0.1963  0.4402
 2406TIP3    H128709   6.415   5.779   2.132  0.3763  1.0908  1.5988
 2406TIP3    H228710   6.512   5.663   2.137  0.3442  0.9738 -0.2093
 2407TIP3   OH228711   6.352   5.740   4.452  0.0271  0.0351  0.1530
 2407TIP3    H128712   6.286   5.680   4.487 -1.1266  0.1706 -1.7181
 2407TIP3    H228713   6.376   5.702   4.368  0.8950  1.0380 -0.0575
 2408TIP3   OH228714   6.064   1.132  16.077 -0.3488 -0.2007  0.4049
 2408TIP3    H128715   6.013   1.114  16.156  0.2411 -0.8169  0.6536
 2408TIP3    H228716   6.034   1.218  16.048 -3.6928 -1.7834 -1.1126
 2409TIP3   OH228717   4.043   0.942  14.568 -0.4225  0.6551  0.7572
 2409TIP3    H128718   3.995   0.872  14.524  1.0211 -0.0742  0.2767
 2409TIP3    H228719   3.980   1.013  14.579 -0.7365  0.9933 -2.7695
 2410TIP3   OH228720   5.383   5.943   0.985  0.6751  0.3010 -0.1116
 2410TIP3    H128721   5.369   5.881   1.057  0.0021 -0.8078 -1.1851
 2410TIP3    H228722   5.334   5.906   0.912  0.3543  2.0527 -0.8032
 2411TIP3   OH228723   6.246   6.410  11.710 -0.1443 -0.2501  0.2365
 2411TIP3    H128724   6.247   6.448  11.623 -1.3401 -1.4042 -0.2968
 2411TIP3    H228725   6.339   6.395  11.731  0.0618 -1.8311 -1.6832
 2412TIP3   OH228726   4.217   1.294  11.097 -0.1737  0.5557 -0.0793
 2412TIP3    H128727   4.192   1.369  11.042  0.7791  0.1790 -1.0423
 2412TIP3    H228728   4.222   1.220  11.036  3.4846  0.6580  0.0137
 2413TIP3   OH228729   0.328   5.648  11.390 -0.1358 -0.2686  0.9420
 2413TIP3    H128730   0.379   5.703  11.331 -0.7101  0.0459  0.7304
 2413TIP3    H228731   0.370   5.562  11.387  0.2870 -0.0494  0.6584
 2414TIP3   OH228732   5.566   1.501  15.979 -0.0843  0.6138  0.1574
 2414TIP3    H128733   5.608   1.456  15.906  1.1406  1.0642  0.5754
 2414TIP3    H228734   5.503   1.560  15.938  0.2174  0.4810 -0.5062
 2415TIP3   OH228735   2.667   1.833   0.116 -0.0283  0.2726 -0.4348
 2415TIP3    H128736   2.650   1.886   0.194  1.1614 -0.1773  0.1389
 2415TIP3    H228737   2.605   1.866   0.051  1.0458  2.7661 -0.2733
 2416TIP3   OH228738   1.258   5.334   3.976 -0.5959 -0.1857  0.9404
 2416TIP3    H128739   1.202   5.259   3.997 -1.3638 -0.3639 -1.5965
 2416TIP3    H228740   1.199   5.409   3.979 -0.0830  0.1839  2.2553
 2417TIP3   OH228741   0.575   0.684   4.703 -0.1899  0.0411 -0.0918
 2417TIP3    H128742   0.556   0.772   4.671  0.1998  0.5849  1.1452
 2417TIP3    H228743   0.637   0.648   4.640  1.0008  1.3041  0.3338
 2418TIP3   OH228744   4.222   6.580  13.480 -0.3851 -0.2260  0.2245
 2418TIP3    H128745   4.269   6.537  13.551 -2.0621  0.0415  1.5205
 2418TIP3    H228746   4.285   6.582  13.407  2.0833  1.3947  2.3208
 2419TIP3   OH228747   2.252   4.131   2.817  0.3371  0.3064  0.0176
 2419TIP3    H128748   2.211   4.187   2.751  1.5027  1.1767  0.0180
 2419TIP3    H228749   2.241   4.042   2.783 -1.8895  0.4725  0.2156
 2420TIP3   OH228750   4.246   2.554   3.956 -0.1001 -0.2845  0.5620
 2420TIP3    H128751   4.330   2.535   3.915 -0.6432 -4.1769  0.9976
 2420TIP3    H228752   4.194   2.596   3.886  1.3219 -0.2585 -0.5021
 2421TIP3   OH228753   0.014   3.040   3.017  0.1270 -0.6357  0.3170
 2421TIP3    H128754   0.056   2.979   2.956  0.3310 -2.3155  2.0669
 2421TIP3    H228755   0.005   3.122   2.968  3.9768 -0.6969 -0.6519
 2422TIP3   OH228756   5.222   0.479  16.605  0.0581  0.1896 -0.6976
 2422TIP3    H128757   5.233   0.390  16.573  2.4080 -0.0777  0.7343
 2422TIP3    H228758   5.278   0.532  16.547  1.1017  0.2781  0.3807
 2423TIP3   OH228759   4.988   0.011  15.950  0.6176 -0.3808  0.4585
 2423TIP3    H128760   4.906   0.050  15.981  0.8573  0.2038  0.3649
 2423TIP3    H228761   4.961  -0.057  15.889  0.2577  1.5310 -1.5687
 2424TIP3   OH228762   5.142   3.103  16.808  0.0361  0.3481  0.4114
 2424TIP3    H128763   5.146   3.181  16.752  1.4132  0.8828  1.2280
 2424TIP3    H228764   5.121   3.138  16.895  0.2233 -0.2443  0.6919
 2425TIP3   OH228765   1.584   5.428   0.416 -0.8276  0.2224  0.0997
 2425TIP3    H128766   1.600   5.348   0.466  0.9955  0.0647 -0.7444
 2425TIP3    H228767   1.514   5.404   0.355  1.5159 -1.5347 -1.9968
 2426TIP3   OH228768   2.130   0.691  13.040 -0.3209 -0.3354 -0.2898
 2426TIP3    H128769   2.176   0.686  12.956 -0.2928 -1.8641 -0.1877
 2426TIP3    H228770   2.194   0.729  13.100  0.2864 -1.0132 -0.5134
 2427TIP3   OH228771   3.710   4.711   3.087 -0.1799 -0.1945  0.9085
 2427TIP3    H128772   3.755   4.633   3.056  0.9718 -0.3536  2.9378
 2427TIP3    H228773   3.682   4.690   3.176 -0.6731  1.3737  1.1490
 2428TIP3   OH228774   0.297   5.052   4.364 -0.3879 -0.0209 -0.2813
 2428TIP3    H128775   0.209   5.060   4.400  0.3195  0.8657  1.2743
 2428TIP3    H228776   0.353   5.037   4.440  0.8528 -0.2185 -1.2245
 2429TIP3   OH228777   2.059   5.502  13.479  0.3161 -0.1235 -0.0827
 2429TIP3    H128778   2.117   5.508  13.403  0.1746  1.3265 -0.0937
 2429TIP3    H228779   2.083   5.578  13.533 -0.5213 -0.3799  0.6554
 2430TIP3   OH228780   2.786   2.805   3.036  0.2344  0.4151  0.0152
 2430TIP3    H128781   2.823   2.779   3.120  1.7688 -0.2712 -0.8414
 2430TIP3    H228782   2.788   2.900   3.036  1.3868  0.3965  0.2744
 2431TIP3   OH228783   3.366   4.039   1.854 -0.3554  0.1848 -0.3349
 2431TIP3    H128784   3.276   4.068   1.837 -0.1431  1.7796  1.1230
 2431TIP3    H228785   3.356   3.966   1.914 -0.6633  0.7328  0.2906
 2432TIP3   OH228786   6.144   3.221   3.709 -0.0270  0.2292 -0.2674
 2432TIP3    H128787   6.169   3.304   3.749 -0.6263 -0.0678  0.7375
 2432TIP3    H228788   6.215   3.161   3.730 -0.4287  0.0248  0.5167
 2433TIP3   OH228789   1.031   6.527   3.770  0.0495 -0.0550  0.0401
 2433TIP3    H128790   1.014   6.528   3.676  1.0737 -0.1325 -0.1525
 2433TIP3    H228791   1.050   6.618   3.792 -1.9406  0.2682  0.5144
 2434TIP3   OH228792   5.381   5.066  13.416 -0.0512 -0.7491 -0.3653
 2434TIP3    H128793   5.360   4.977  13.446 -1.6579 -0.0117  0.7784
 2434TIP3    H228794   5.394   5.115  13.497 -0.3388  0.3346 -0.9721
 2435TIP3   OH228795   6.487   5.726  14.267 -0.3221  0.1614 -0.0953
 2435TIP3    H128796   6.558   5.679  14.222  0.8447  1.5532  0.2451
 2435TIP3    H228797   6.499   5.705  14.359 -1.6861 -1.3167 -0.2175
 2436TIP3   OH228798   0.911   0.560  15.578 -0.2558 -0.0201 -0.1125
 2436TIP3    H128799   0.859   0.632  15.544 -0.8600 -0.4384 -0.0831
 2436TIP3    H228800   0.978   0.546  15.511  0.4208  1.1606  0.3130
 2437TIP3   OH228801   6.777   4.732   5.790 -0.6705 -0.3367 -0.9098
 2437TIP3    H128802   6.698   4.786   5.785 -1.2355 -1.0425  0.3921
 2437TIP3    H228803   6.848   4.795   5.801 -1.3463  0.1653  0.7709
 2438TIP3   OH228804   4.949   1.254   1.804  0.4359 -0.0521 -0.0984
 2438TIP3    H128805   5.020   1.271   1.742  0.3539 -0.3668 -0.2804
 2438TIP3    H228806   4.877   1.220   1.750 -0.3234  1.5309 -0.0965
 2439TIP3   OH228807   1.896   5.855  14.457 -0.1290  0.3263  0.2082
 2439TIP3    H128808   1.895   5.934  14.510 -2.0559  0.6331 -0.2597
 2439TIP3    H228809   1.968   5.868  14.395 -1.1290  2.2112 -0.5901
 2440TIP3   OH228810   0.734   2.500   3.656 -0.5780 -0.2893 -0.1013
 2440TIP3    H128811   0.812   2.455   3.690 -0.7876 -1.2638 -0.8804
 2440TIP3    H228812   0.754   2.514   3.564 -1.0278  0.1268 -0.1337
 2441TIP3   OH228813   3.620   2.543   3.825 -0.2362 -0.0064 -0.0953
 2441TIP3    H128814   3.624   2.636   3.847  1.3300 -0.2025  0.5115
 2441TIP3    H228815   3.711   2.517   3.813 -0.7771 -0.9074 -2.7096
 2442TIP3   OH228816   1.934   4.356  16.944 -0.5780 -0.4072 -0.1665
 2442TIP3    H128817   1.853   4.366  16.993 -0.9267  0.8172 -0.9640
 2442TIP3    H228818   1.907   4.345  16.853  0.1437  0.0648 -0.4448
 2443TIP3   OH228819   6.706   1.607  11.656 -0.9569 -0.1566 -0.4065
 2443TIP3    H128820   6.648   1.635  11.585  0.8244 -0.4468 -2.0181
 2443TIP3    H228821   6.752   1.531  11.621  0.6472  0.2760  0.7109
 2444TIP3   OH228822   0.534   6.279  14.075 -0.3816  0.8562 -0.0686
 2444TIP3    H128823   0.496   6.236  14.152 -0.5060 -0.1116 -0.6534
 2444TIP3    H228824   0.607   6.331  14.110 -0.0974 -0.0002  0.6478
 2445TIP3   OH228825   2.755   4.760   1.234 -0.5129 -0.3538  0.1945
 2445TIP3    H128826   2.850   4.749   1.238 -0.5692 -0.9438 -0.0750
 2445TIP3    H228827   2.720   4.690   1.289 -0.7146  1.2815  2.2082
 2446TIP3   OH228828   3.070   5.478  15.315 -0.2289  0.2149 -0.7071
 2446TIP3    H128829   2.999   5.511  15.371  0.5905  0.1408  0.3977
 2446TIP3    H228830   3.099   5.555  15.265 -1.6263  0.0653 -1.7753
 2447TIP3   OH228831   5.775   0.473  14.961  0.4512  0.0263  0.2319
 2447TIP3    H128832   5.834   0.493  15.033 -0.6212  0.3111  1.0359
 2447TIP3    H228833   5.698   0.529  14.976  0.8088  1.1335 -1.8915
 2448TIP3   OH228834   4.159   6.329   1.874 -0.1812  0.0945  0.5293
 2448TIP3    H128835   4.239   6.315   1.923 -0.1242 -0.9107  0.1518
 2448TIP3    H228836   4.088   6.311   1.936 -0.1111 -0.7023  0.3743
 2449TIP3   OH228837   1.399   6.160  12.620  0.5022 -0.0327  0.3487
 2449TIP3    H128838   1.338   6.172  12.692 -0.6036  0.8489 -0.7348
 2449TIP3    H228839   1.434   6.247  12.603 -0.1189 -0.0343 -0.9519
 2450TIP3   OH228840   5.201   5.939   3.479 -0.4994  0.2585 -0.1687
 2450TIP3    H128841   5.120   5.894   3.454 -1.1638  0.5465  1.3798
 2450TIP3    H228842   5.239   5.884   3.548  0.7912 -0.0341 -1.1117
 2451TIP3   OH228843   2.525   0.049   0.522 -0.0717  0.1390 -0.2467
 2451TIP3    H128844   2.570  -0.014   0.578 -0.6372 -0.5025 -0.5019
 2451TIP3    H228845   2.593   0.112   0.497  0.8115 -1.0779 -1.0080
 2452TIP3   OH228846   4.550   3.237  16.135 -0.5530 -0.5071  0.4400
 2452TIP3    H128847   4.558   3.236  16.231  1.5962 -2.6253  0.2792
 2452TIP3    H228848   4.514   3.152  16.114  0.6736 -0.7397 -0.7560
 2453TIP3   OH228849   6.792   2.404   3.016 -0.2011 -0.2975 -0.1410
 2453TIP3    H128850   6.778   2.309   3.025  0.0936 -0.1219  2.4609
 2453TIP3    H228851   6.715   2.444   3.054  0.0401  0.5372 -0.5161
 2454TIP3   OH228852   5.441   0.263   4.661 -0.4645 -0.2097 -0.2339
 2454TIP3    H128853   5.386   0.208   4.717  1.2453 -2.8397 -1.0777
 2454TIP3    H228854   5.392   0.270   4.579  0.4243 -2.5964 -1.0037
 2455TIP3   OH228855   4.612   2.175  13.472 -0.6426 -0.0343 -0.1650
 2455TIP3    H128856   4.657   2.248  13.515  0.5023 -1.5105  1.1872
 2455TIP3    H228857   4.622   2.193  13.378  0.8192  0.8380  0.1415
 2456TIP3   OH228858   2.674   4.752  16.739 -0.3052 -0.4560  0.1381
 2456TIP3    H128859   2.673   4.786  16.649 -0.8854  0.1071  0.3452
 2456TIP3    H228860   2.677   4.831  16.793 -0.1232 -0.7936  0.6148
 2457TIP3   OH228861   5.249   4.737   0.701  0.9660  0.2138  0.7077
 2457TIP3    H128862   5.272   4.773   0.787  0.3180  1.2043  0.4741
 2457TIP3    H228863   5.241   4.814   0.645 -1.3136 -0.2106  0.4049
 2458TIP3   OH228864   4.287   2.779   4.153 -0.6873  0.6366 -0.0218
 2458TIP3    H128865   4.215   2.781   4.215 -0.8504  2.1795 -0.2413
 2458TIP3    H228866   4.277   2.696   4.106 -2.3871  0.9048 -0.1342
 2459TIP3   OH228867   3.825   3.208  10.181  0.2127 -0.0936  0.3051
 2459TIP3    H128868   3.765   3.174  10.247  0.7947 -2.6106 -0.4110
 2459TIP3    H228869   3.878   3.273  10.228 -0.0832 -1.0769  2.0365
 2460TIP3   OH228870   4.721   2.890  13.619 -0.0201 -0.3240 -0.7581
 2460TIP3    H128871   4.736   2.886  13.713 -0.3864 -2.4447 -0.7580
 2460TIP3    H228872   4.642   2.944  13.609  0.0738 -0.0154  0.1389
 2461TIP3   OH228873   2.426   0.551  14.771  0.1011 -0.2224 -0.7190
 2461TIP3    H128874   2.492   0.483  14.788 -0.2666 -0.3674  0.1481
 2461TIP3    H228875   2.466   0.606  14.704  0.2364 -1.5306 -1.7299
 2462TIP3   OH228876   2.003   5.034   4.835  0.3142  0.4478  0.0187
 2462TIP3    H128877   1.995   5.125   4.805 -0.8406  0.7074  1.0726
 2462TIP3    H228878   2.008   5.041   4.931  1.8405 -0.5089  0.0275
 2463TIP3   OH228879   6.052   5.160  14.090  0.7847 -0.2512 -0.0750
 2463TIP3    H128880   6.046   5.248  14.126  0.9582 -0.8199  1.3967
 2463TIP3    H228881   6.133   5.125  14.127  0.6649 -1.0548 -0.5625
 2464TIP3   OH228882   4.442   2.730   2.239 -0.4917  0.7972  0.3716
 2464TIP3    H128883   4.349   2.745   2.255 -1.1539 -0.7634 -1.8070
 2464TIP3    H228884   4.474   2.814   2.206 -1.6620  0.7072 -1.0539
 2465TIP3   OH228885   5.188   2.994   2.892 -0.6223 -0.0557  0.1526
 2465TIP3    H128886   5.153   2.918   2.845 -1.2177  0.6261 -0.5240
 2465TIP3    H228887   5.145   2.992   2.977 -0.6126 -0.4835  0.1510
 2466TIP3   OH228888   2.796   4.507   0.690 -0.0826  0.3641 -0.3603
 2466TIP3    H128889   2.823   4.559   0.614  1.3807 -1.3325 -1.0452
 2466TIP3    H228890   2.877   4.492   0.739 -0.6945 -0.2394  0.4732
 2467TIP3   OH228891   1.086   0.066   5.139  0.0629 -0.3750  0.4165
 2467TIP3    H128892   1.161   0.010   5.160  0.2426  0.1612  1.2352
 2467TIP3    H228893   1.028   0.058   5.214 -1.2534 -1.6676 -0.7136
 2468TIP3   OH228894   0.885   4.932   5.847  1.2433 -0.3899  0.1811
 2468TIP3    H128895   0.950   4.866   5.822 -0.3537 -1.1406 -2.0877
 2468TIP3    H228896   0.818   4.882   5.894  2.1488  0.3629  2.3868
 2469TIP3   OH228897   4.350   6.288   1.655 -0.0068  0.0129  0.2399
 2469TIP3    H128898   4.289   6.307   1.727 -1.9024 -1.2863 -0.9456
 2469TIP3    H228899   4.426   6.342   1.673 -2.2065  3.0641  0.8670
 2470TIP3   OH228900   0.700   0.534   1.586 -0.3943  0.0937  0.3088
 2470TIP3    H128901   0.658   0.468   1.531 -1.3863  1.0730 -0.1318
 2470TIP3    H228902   0.785   0.551   1.545 -1.3777  1.2589 -1.2785
 2471TIP3   OH228903   3.612   6.774  15.276  0.0223 -0.1810  0.3127
 2471TIP3    H128904   3.650   6.732  15.354  1.7561  0.0326 -0.3934
 2471TIP3    H228905   3.639   6.718  15.203 -1.1238 -0.0692 -0.2042
 2472TIP3   OH228906   3.066   5.564   0.164  0.2495  0.7229  0.2528
 2472TIP3    H128907   2.982   5.547   0.206 -0.2670  2.2130 -0.1426
 2472TIP3    H228908   3.129   5.567   0.236 -0.0431 -0.2742  0.5606
 2473TIP3   OH228909   4.359   3.497  11.880  0.7853  0.4539 -0.4311
 2473TIP3    H128910   4.373   3.580  11.833 -0.4696  1.0437  0.1973
 2473TIP3    H228911   4.310   3.443  11.817  0.9922  0.4507 -0.5898
 2474TIP3   OH228912   0.918   3.884  13.986 -0.3165  0.5162  0.1235
 2474TIP3    H128913   0.978   3.910  14.056 -0.2155  3.1066 -0.8381
 2474TIP3    H228914   0.975   3.868  13.911 -0.6487  0.9199 -0.2212
 2475TIP3   OH228915   5.837   5.897   2.207  0.6636  0.2294  0.3759
 2475TIP3    H128916   5.845   5.833   2.278 -0.2374 -0.9330 -0.5368
 2475TIP3    H228917   5.882   5.975   2.239 -0.7475  0.1289  2.6790
 2476TIP3   OH228918   2.976   4.821   6.006 -0.2322  0.3373 -0.2882
 2476TIP3    H128919   3.068   4.830   5.981 -0.0932  0.3598  0.2238
 2476TIP3    H228920   2.929   4.879   5.947  0.1008  0.4532 -0.4413
 2477TIP3   OH228921   4.681   4.784   0.993 -0.4068  0.1994 -0.1092
 2477TIP3    H128922   4.704   4.721   0.925 -0.2963  1.1452 -0.9498
 2477TIP3    H228923   4.764   4.823   1.019 -0.7331  1.6268 -1.1916
 2478TIP3   OH228924   1.082   2.416   2.719  0.0821  0.2218 -0.2634
 2478TIP3    H128925   1.003   2.470   2.719 -0.4888 -0.6099  0.0898
 2478TIP3    H228926   1.057   2.337   2.670  0.8342  0.1642 -0.5616
 2479TIP3   OH228927   3.072   4.799  15.912 -0.3669 -0.5323 -0.3147
 2479TIP3    H128928   3.166   4.781  15.908 -0.4729 -1.2015  0.0275
 2479TIP3    H228929   3.049   4.781  16.003 -1.0656 -1.6352 -0.7012
 2480TIP3   OH228930   2.890   0.891   5.690  0.2016 -0.5350  0.7336
 2480TIP3    H128931   2.982   0.909   5.671 -0.0275  1.4108  1.3766
 2480TIP3    H228932   2.858   0.847   5.611  1.3045  0.0845 -0.0810
 2481TIP3   OH228933   6.468   2.016  13.388  0.3916  0.2183 -0.2909
 2481TIP3    H128934   6.445   1.967  13.309 -1.8061  0.2609  0.2985
 2481TIP3    H228935   6.560   1.996  13.402  0.6178 -0.4067 -2.4246
 2482TIP3   OH228936   3.578   3.746  12.815 -0.1465  0.4083  0.6395
 2482TIP3    H128937   3.662   3.756  12.860  0.8745 -0.8800 -0.9600
 2482TIP3    H228938   3.568   3.826  12.765  0.4361  0.2881  0.3282
 2483TIP3   OH228939   2.761   5.007   3.371  0.2165  0.1716  0.3129
 2483TIP3    H128940   2.810   5.061   3.309  0.5303 -1.8886 -1.3324
 2483TIP3    H228941   2.686   5.061   3.396 -1.1034  0.3288 -3.5680
 2484TIP3   OH228942   6.332   2.275  15.342 -0.3745 -0.1580  0.0676
 2484TIP3    H128943   6.338   2.357  15.392  1.2183 -0.3816  0.2536
 2484TIP3    H228944   6.315   2.208  15.408 -0.3052 -0.1747  0.0677
 2485TIP3   OH228945   1.443   6.438  16.387 -0.1740 -0.0022 -0.0896
 2485TIP3    H128946   1.348   6.433  16.375 -0.6059  0.1563  2.9573
 2485TIP3    H228947   1.474   6.349  16.371 -0.5052  0.3966 -3.2956
 2486TIP3   OH228948   6.664   1.550   0.983  0.0194  0.2957 -0.0777
 2486TIP3    H128949   6.693   1.582   0.897 -3.8820 -0.8953 -1.9888
 2486TIP3    H228950   6.691   1.459   0.985 -0.8925 -0.0037 -0.6168
 2487TIP3   OH228951   0.435   0.619  12.246 -0.1091 -0.1407 -0.5157
 2487TIP3    H128952   0.414   0.650  12.158 -0.9534 -2.0161 -1.0014
 2487TIP3    H228953   0.520   0.657  12.266 -0.4042  1.1708 -1.7147
 2488TIP3   OH228954   2.029   0.249   5.788 -0.3539 -0.2772  0.2007
 2488TIP3    H128955   2.021   0.176   5.850 -2.1472  0.4050  0.8195
 2488TIP3    H228956   2.070   0.210   5.711 -0.2590 -1.6906  0.9414
 2489TIP3   OH228957   1.923   4.268  14.857 -0.4163 -0.2166 -0.3868
 2489TIP3    H128958   1.890   4.225  14.936  1.0345  1.1015  0.9854
 2489TIP3    H228959   1.858   4.337  14.839  1.5252  2.5029  2.4228
 2490TIP3   OH228960   5.955   1.154   3.837 -0.0783  0.1921  0.3428
 2490TIP3    H128961   5.919   1.142   3.925 -0.0381  2.0596  0.6221
 2490TIP3    H228962   6.049   1.139   3.848 -0.2747 -1.1540  0.2940
 2491TIP3   OH228963   1.694   4.772  16.105  0.2302 -0.0607  0.2766
 2491TIP3    H128964   1.652   4.759  16.190 -0.9092 -0.2630 -0.3049
 2491TIP3    H228965   1.734   4.859  16.112 -0.8431  0.4197  0.6261
 2492TIP3   OH228966   2.851   2.662   5.515  0.0334 -0.1308 -0.0234
 2492TIP3    H128967   2.778   2.719   5.491 -1.0030 -0.9693  1.1088
 2492TIP3    H228968   2.909   2.717   5.567  0.4739  0.6845 -1.3759
 2493TIP3   OH228969   3.286   3.053  10.787 -0.0697 -0.0590 -0.4852
 2493TIP3    H128970   3.254   2.969  10.819  1.1042 -0.6428 -0.8261
 2493TIP3    H228971   3.273   3.049  10.692  0.1022  0.0870 -0.5170
 2494TIP3   OH228972   5.717   5.170  11.969 -0.0936  0.2113 -0.3030
 2494TIP3    H128973   5.704   5.228  11.894 -0.8732  0.9549  0.3952
 2494TIP3    H228974   5.787   5.210  12.020 -0.5931  0.5194  0.1493
 2495TIP3   OH228975   6.716   4.388  11.414 -0.2979  0.0876  0.2203
 2495TIP3    H128976   6.810   4.402  11.421 -0.3617  0.1907  0.9095
 2495TIP3    H228977   6.707   4.302  11.372  0.0971  1.1740 -2.1744
 2496TIP3   OH228978   3.572   0.245  11.996 -0.5592  0.1182  0.6417
 2496TIP3    H128979   3.545   0.319  12.051 -0.9830  0.9881 -0.7174
 2496TIP3    H228980   3.585   0.173  12.058 -0.1669  1.3214  1.9785
 2497TIP3   OH228981   0.759   1.299   1.023  0.2604  0.0730 -0.5996
 2497TIP3    H128982   0.724   1.210   1.025 -2.1845  0.9938  2.0304
 2497TIP3    H228983   0.726   1.337   0.942 -0.2421 -0.8296 -0.8210
 2498TIP3   OH228984   0.497   5.183   0.430 -0.1755 -0.0619  0.1409
 2498TIP3    H128985   0.543   5.102   0.451 -0.6222 -0.8538 -1.8174
 2498TIP3    H228986   0.563   5.238   0.387 -0.2959 -0.0607 -0.0471
 2499TIP3   OH228987   0.700   1.970   1.654  0.0603  0.6156 -0.3290
 2499TIP3    H128988   0.706   1.887   1.702 -0.5352  0.1265 -1.1069
 2499TIP3    H228989   0.786   1.979   1.612 -0.5143 -0.5382 -1.7778
 2500TIP3   OH228990   5.183   3.754  15.628 -0.0513 -0.1273  0.1133
 2500TIP3    H128991   5.150   3.680  15.576 -0.4922 -0.1577  0.4333
 2500TIP3    H228992   5.189   3.826  15.566 -0.1553 -0.2789 -0.0747
 2501TIP3   OH228993   2.858   1.231  11.971  0.9930  0.6145 -0.0495
 2501TIP3    H128994   2.905   1.240  12.053 -0.5162 -0.0105  0.9123
 2501TIP3    H228995   2.854   1.136  11.956  0.7977  0.7016 -0.5697
 2502TIP3   OH228996   4.050   0.275   4.624  0.1385 -0.6743  0.3458
 2502TIP3    H128997   4.039   0.188   4.585 -1.4058 -0.3330 -0.0260
 2502TIP3    H228998   3.970   0.288   4.675  0.8710  0.0648  1.3093
 2503TIP3   OH228999   2.051   6.798   5.231  0.3683  0.3990 -0.4750
 2503TIP3    H129000   1.976   6.857   5.235 -0.4993 -0.7756  1.2617
 2503TIP3    H229001   2.097   6.813   5.314  1.4135  0.2655 -1.0228
 2504TIP3   OH229002   1.070   1.473   4.510  0.5170  0.0148 -0.9572
 2504TIP3    H129003   1.083   1.385   4.544 -1.1567  0.0356 -0.2075
 2504TIP3    H229004   0.982   1.497   4.539  0.1198  1.1109 -2.9494
 2505TIP3   OH229005   4.630   1.661   3.061 -0.2660  0.3636  0.7538
 2505TIP3    H129006   4.703   1.599   3.064 -1.8297 -1.5382  0.4004
 2505TIP3    H229007   4.590   1.656   3.148 -1.4902 -0.4743  0.1506
 2506TIP3   OH229008   2.039   3.420   1.435  0.4835 -0.5903  0.2610
 2506TIP3    H129009   2.088   3.500   1.455  1.3902 -1.4638  1.6011
 2506TIP3    H229010   2.066   3.397   1.346 -0.6423  1.1949 -0.5854
 2507TIP3   OH229011   2.974   0.330  14.078 -0.2930 -0.3607 -0.4578
 2507TIP3    H129012   2.937   0.396  14.019  0.0011 -1.1095 -1.5090
 2507TIP3    H229013   3.010   0.380  14.151  0.5550  0.7148 -1.5870
 2508TIP3   OH229014   1.239   1.697  13.739 -0.7054 -0.4649  0.0057
 2508TIP3    H129015   1.169   1.701  13.673 -0.2976  0.4753 -0.3793
 2508TIP3    H229016   1.288   1.617  13.717 -0.9555 -0.4980 -0.4365
 2509TIP3   OH229017   6.224   2.279   6.600  0.2557 -0.3241  0.2668
 2509TIP3    H129018   6.240   2.189   6.628 -0.9598 -0.8048 -0.5733
 2509TIP3    H229019   6.268   2.333   6.667 -0.5688 -1.5013  1.7742
 2510TIP3   OH229020   4.684   3.805  13.659  0.0806 -0.0241  0.0496
 2510TIP3    H129021   4.636   3.752  13.722  0.1739 -0.3298 -0.1337
 2510TIP3    H229022   4.776   3.782  13.673  0.2458  1.1398  0.9285
 2511TIP3   OH229023   5.534   6.432  14.268  0.4912  0.3138 -0.0298
 2511TIP3    H129024   5.507   6.378  14.194  2.2885 -1.1005  0.2916
 2511TIP3    H229025   5.528   6.373  14.344  0.4951  1.1764  0.6494
 2512TIP3   OH229026   4.385   3.383   1.533  0.3431 -0.3363  0.5854
 2512TIP3    H129027   4.351   3.472   1.528 -0.5591 -0.6566  1.0602
 2512TIP3    H229028   4.308   3.327   1.526  1.0146 -1.1127 -0.8669
 2513TIP3   OH229029   1.715   3.486   4.982  0.1941  0.4235  0.0435
 2513TIP3    H129030   1.753   3.561   5.029  0.1066  0.1087  0.6277
 2513TIP3    H229031   1.662   3.442   5.048  1.2369 -0.8659  0.0366
 2514TIP3   OH229032   3.425   6.395  14.816  0.1789  0.1134  0.7000
 2514TIP3    H129033   3.420   6.485  14.850 -0.3207 -0.3950  1.9878
 2514TIP3    H229034   3.339   6.380  14.778 -0.5523 -0.6568  2.6280
 2515TIP3   OH229035   4.761   6.103  12.542 -0.0654 -0.1336 -0.1547
 2515TIP3    H129036   4.829   6.106  12.609 -0.5188  2.4512  0.2498
 2515TIP3    H229037   4.777   6.021  12.495  1.6816 -0.8492  1.6192
 2516TIP3   OH229038   2.960   5.254  13.734 -0.4510 -0.2411  0.0334
 2516TIP3    H129039   2.933   5.200  13.808  1.9070  0.7473  1.6808
 2516TIP3    H229040   2.923   5.211  13.658 -1.9725 -1.9287  1.6824
 2517TIP3   OH229041   0.619   4.188   4.474 -0.0660  0.4934 -0.4579
 2517TIP3    H129042   0.630   4.282   4.460 -1.1326  0.3682 -2.2308
 2517TIP3    H229043   0.646   4.148   4.392  1.5075 -0.8544  0.6894
 2518TIP3   OH229044   1.239   5.155  16.742  0.7474  0.1317 -0.0244
 2518TIP3    H129045   1.191   5.197  16.814 -0.8957 -1.5657 -0.0975
 2518TIP3    H229046   1.262   5.069  16.775  1.0804 -0.1941 -1.0852
 2519TIP3   OH229047   5.172   4.483  14.437 -0.2350 -0.6489 -0.7245
 2519TIP3    H129048   5.094   4.537  14.449  1.4305  1.5868  0.3615
 2519TIP3    H229049   5.231   4.509  14.508  2.7310 -0.0630 -3.2557
 2520TIP3   OH229050   3.513   4.961   2.176  0.2577  0.2834  0.0529
 2520TIP3    H129051   3.512   5.032   2.240  0.4065  0.2086  0.1397
 2520TIP3    H229052   3.603   4.960   2.143 -0.4072  1.8548 -1.8726
 2521TIP3   OH229053   5.978   6.153  11.830 -0.1250  0.2935  0.4385
 2521TIP3    H129054   5.923   6.208  11.774 -0.9801 -1.5005 -0.5472
 2521TIP3    H229055   5.932   6.151  11.914 -0.7055  0.1524  0.1226
 2522TIP3   OH229056   5.504   1.055   3.348 -0.8071 -0.0776  0.0187
 2522TIP3    H129057   5.560   0.990   3.306 -0.2653  0.4215 -0.0359
 2522TIP3    H229058   5.515   1.040   3.442 -0.9870 -0.3207  0.0009
 2523TIP3   OH229059   1.710   0.737  14.104 -0.2061 -0.0266 -0.0973
 2523TIP3    H129060   1.804   0.751  14.106 -0.0966 -0.5110 -1.3622
 2523TIP3    H229061   1.688   0.732  14.011 -1.3264 -0.8972  0.1946
 2524TIP3   OH229062   2.566   0.804  16.214  0.3121  0.1257  0.1218
 2524TIP3    H129063   2.530   0.862  16.147  0.1016 -0.1643 -0.0142
 2524TIP3    H229064   2.641   0.853  16.250  0.6177  0.1516 -0.5396
 2525TIP3   OH229065   2.432   1.745   2.575 -0.4438 -0.2142  0.1241
 2525TIP3    H129066   2.400   1.789   2.654 -0.4984 -0.6156  0.3254
 2525TIP3    H229067   2.353   1.717   2.529 -0.3956 -0.5334  0.2389
 2526TIP3   OH229068   6.535   0.461   2.160 -0.5889  0.2156  0.5573
 2526TIP3    H129069   6.538   0.554   2.137 -0.1774  0.4552  1.5223
 2526TIP3    H229070   6.476   0.422   2.097  0.0142  0.9592 -0.4762
 2527TIP3   OH229071   4.300   4.340   6.142  0.4783 -0.3618 -0.1123
 2527TIP3    H129072   4.343   4.340   6.227  0.2554  2.1332  0.0311
 2527TIP3    H229073   4.207   4.328   6.161  0.2764  1.4447  0.1103
 2528TIP3   OH229074   6.187   0.691   4.768 -0.2201 -0.2395  0.3675
 2528TIP3    H129075   6.211   0.668   4.678  0.9633 -1.8292  1.0573
 2528TIP3    H229076   6.111   0.748   4.759 -1.3122 -1.9304 -1.5644
 2529TIP3   OH229077   6.737   1.039  12.888 -0.5262  0.4873 -0.2083
 2529TIP3    H129078   6.679   0.975  12.847 -0.0422  1.5295 -2.6162
 2529TIP3    H229079   6.824   1.001  12.880 -0.4635  0.5413  0.1959
 2530TIP3   OH229080   1.153   6.438  16.339 -0.1190  0.3936 -0.0745
 2530TIP3    H129081   1.102   6.419  16.417  0.0157  1.0410  0.1716
 2530TIP3    H229082   1.174   6.352  16.303 -0.9659  0.1121  0.0908
 2531TIP3   OH229083   2.521   2.859  11.341  0.0308  0.5444 -0.0645
 2531TIP3    H129084   2.543   2.771  11.372  0.4879  0.3407 -0.9308
 2531TIP3    H229085   2.426   2.859  11.335 -0.0034  0.2995  0.5033
 2532TIP3   OH229086   0.299   6.746  10.628 -0.4679  0.0040 -0.3442
 2532TIP3    H129087   0.371   6.808  10.623 -0.4903  0.0789  0.2310
 2532TIP3    H229088   0.222   6.799  10.648 -0.7953 -0.0006 -1.5572
 2533TIP3   OH229089   2.470   4.553  15.925  0.3567  0.3764 -0.1179
 2533TIP3    H129090   2.544   4.521  15.873  0.2382 -2.1006  1.1953
 2533TIP3    H229091   2.393   4.521  15.878  0.2528 -2.2257  1.7222
 2534TIP3   OH229092   4.599   0.258   0.688  0.1068 -0.4604  0.5498
 2534TIP3    H129093   4.600   0.353   0.678 -0.5676 -0.4017  1.0121
 2534TIP3    H229094   4.663   0.226   0.624  0.0502  0.2757  0.1224
 2535TIP3   OH229095   3.060   6.668  12.456  0.6621  0.2150 -0.4261
 2535TIP3    H129096   3.020   6.712  12.531 -0.4347 -2.3351  0.5637
 2535TIP3    H229097   3.007   6.695  12.381 -0.6759 -0.2683  0.3332
 2536TIP3   OH229098   0.718   1.027  10.629 -0.5720  0.1527  0.2657
 2536TIP3    H129099   0.799   0.996  10.669 -0.5535  0.7598  0.7051
 2536TIP3    H229100   0.660   1.045  10.703 -1.5568 -1.4967 -0.0842
 2537TIP3   OH229101   4.451   0.862   2.301  0.3291 -0.0267  0.3053
 2537TIP3    H129102   4.384   0.908   2.250  0.4150  0.1403  0.3431
 2537TIP3    H229103   4.528   0.860   2.244  0.1967 -0.4995  0.1367
 2538TIP3   OH229104   6.510   4.192   6.083 -0.3967  0.2516  0.5473
 2538TIP3    H129105   6.579   4.126   6.078  0.9543  1.5783  1.5798
 2538TIP3    H229106   6.534   4.258   6.018 -0.1288  1.2450  1.6549
 2539TIP3   OH229107   5.134   2.148   5.616 -0.3257 -0.1665 -0.2804
 2539TIP3    H129108   5.152   2.171   5.707  1.0044  0.6764 -0.7405
 2539TIP3    H229109   5.041   2.167   5.604 -0.3670  0.2804  0.7397
 2540TIP3   OH229110   4.331   2.124   1.050 -0.1252  0.0250 -0.2383
 2540TIP3    H129111   4.273   2.109   1.124  2.4393 -1.3016  1.6007
 2540TIP3    H229112   4.278   2.172   0.986 -2.6166  0.5214  2.1329
 2541TIP3   OH229113   4.448   2.469   2.154  0.5155 -0.2495 -0.0513
 2541TIP3    H129114   4.454   2.562   2.175 -1.2425 -0.0183 -0.4594
 2541TIP3    H229115   4.533   2.433   2.180  1.3396  1.5201 -0.2013
 2542TIP3   OH229116   2.082   5.078  11.721 -0.1035  0.3149  0.3855
 2542TIP3    H129117   2.155   5.034  11.764  0.8009 -0.0003 -1.3839
 2542TIP3    H229118   2.032   5.006  11.681  0.4299  0.7231 -1.0790
 2543TIP3   OH229119   4.193   1.446  14.118 -0.1006 -0.1457  0.3029
 2543TIP3    H129120   4.109   1.489  14.133  0.0398  0.1151  0.3494
 2543TIP3    H229121   4.250   1.480  14.187 -0.4481 -1.6978  1.3928
 2544TIP3   OH229122   0.491   4.601   2.532  0.1716 -0.2591 -0.1629
 2544TIP3    H129123   0.465   4.585   2.623 -0.1441  1.0347 -0.0106
 2544TIP3    H229124   0.411   4.631   2.489  0.7049  0.7915 -0.4437
 2545TIP3   OH229125   2.468   4.897   6.243 -0.8455  0.0407  0.3914
 2545TIP3    H129126   2.537   4.908   6.308 -0.1912 -0.2228 -0.2518
 2545TIP3    H229127   2.514   4.897   6.159 -1.3666 -2.3038  0.0725
 2546TIP3   OH229128   0.727   5.952  16.604  0.0822  0.4068  0.5969
 2546TIP3    H129129   0.744   5.981  16.515  1.7530  0.8681  1.0404
 2546TIP3    H229130   0.802   5.897  16.626 -0.7922 -0.4885  1.3785
 2547TIP3   OH229131   4.751   5.012  11.865 -0.0326  0.6357 -0.4816
 2547TIP3    H129132   4.703   5.084  11.906  0.6584  0.7552  0.1213
 2547TIP3    H229133   4.706   4.999  11.781 -0.6644  1.2281 -0.2457
 2548TIP3   OH229134   4.971   2.063  13.278 -0.6633 -0.1451 -0.7787
 2548TIP3    H129135   4.892   2.108  13.249 -0.8333  1.3245  1.7449
 2548TIP3    H229136   4.944   2.012  13.354  0.4180 -1.1175 -1.0325
 2549TIP3   OH229137   1.401   2.474  14.222  0.4782  0.1692 -0.1425
 2549TIP3    H129138   1.313   2.496  14.192  0.1210  0.2071  0.9229
 2549TIP3    H229139   1.456   2.542  14.184  0.3207 -0.8735 -2.2894
 2550TIP3   OH229140   0.363   2.753   5.688  0.1492  0.0664 -0.2164
 2550TIP3    H129141   0.446   2.720   5.654 -0.4016 -0.8364 -0.7148
 2550TIP3    H229142   0.298   2.729   5.621 -0.6237  0.0834  0.5154
 2551TIP3   OH229143   0.722   3.261  16.049 -0.4614 -0.0145  0.2503
 2551TIP3    H129144   0.744   3.207  16.124 -1.5685 -1.4370 -0.4323
 2551TIP3    H229145   0.645   3.219  16.011  0.9101 -0.1287 -2.4998
 2552TIP3   OH229146   2.752   3.339  10.964 -0.4780  0.2453  0.3338
 2552TIP3    H129147   2.666   3.299  10.977 -0.2511 -0.1525  0.6229
 2552TIP3    H229148   2.776   3.375  11.050  0.3770 -1.1029  0.6724
 2553TIP3   OH229149   5.654   2.191   4.527 -0.0895 -0.5436 -0.1076
 2553TIP3    H129150   5.677   2.281   4.504 -1.1065 -0.5936 -1.3981
 2553TIP3    H229151   5.718   2.166   4.594  0.1603  1.1510  0.3022
 2554TIP3   OH229152   3.388   1.001   6.116 -0.5323  0.3139 -0.7235
 2554TIP3    H129153   3.392   1.068   6.184  0.4420  0.8278 -1.2615
 2554TIP3    H229154   3.396   1.050   6.034  0.0462 -0.4484 -1.1290
 2555TIP3   OH229155   3.033   1.968   4.806 -0.5716 -0.1960 -0.2536
 2555TIP3    H129156   3.060   1.888   4.761 -0.0533  0.2284 -0.7076
 2555TIP3    H229157   2.949   1.946   4.845  0.4499 -1.5703  1.2506
 2556TIP3   OH229158   3.188   3.281  11.999 -0.0758  0.2712 -0.2485
 2556TIP3    H129159   3.133   3.226  11.944 -0.7175  0.4487  0.2138
 2556TIP3    H229160   3.244   3.220  12.046 -0.6911  0.0290  0.1610
 2557TIP3   OH229161   1.770   1.120   3.855  0.5108 -0.0247 -0.4891
 2557TIP3    H129162   1.792   1.092   3.766  1.5434 -2.4202  0.4816
 2557TIP3    H229163   1.843   1.178   3.880 -0.0959  1.1555 -1.4021
 2558TIP3   OH229164   0.478   3.268   4.226  0.0944  0.1344  0.4616
 2558TIP3    H129165   0.531   3.298   4.152  1.1909  1.5455  1.7556
 2558TIP3    H229166   0.394   3.243   4.188  0.8565  0.2283 -1.3222
 2559TIP3   OH229167   5.333   1.837  11.639  0.0964 -0.0302 -0.3691
 2559TIP3    H129168   5.268   1.814  11.574 -0.2681  2.6813 -1.0290
 2559TIP3    H229169   5.283   1.858  11.718  0.2610  0.6551 -0.4445
 2560TIP3   OH229170   0.832   5.209  12.014  0.6311 -0.2037  0.0445
 2560TIP3    H129171   0.859   5.147  12.081 -0.8069  0.5515  1.3732
 2560TIP3    H229172   0.791   5.155  11.946  1.8742 -0.9496 -0.1177
 2561TIP3   OH229173   1.021   2.964   5.149  0.1596 -0.7213 -0.1183
 2561TIP3    H129174   1.056   3.033   5.092 -0.9859 -0.0179  0.0157
 2561TIP3    H229175   0.932   2.992   5.169 -0.4692 -2.4256 -0.3744
 2562TIP3   OH229176   5.599   3.363   3.681  0.6138 -0.1548 -0.9623
 2562TIP3    H129177   5.533   3.417   3.726 -0.5465 -2.5457  0.3224
 2562TIP3    H229178   5.580   3.376   3.588 -0.0953  1.0814 -0.6679
 2563TIP3   OH229179   6.465   3.637   2.911 -0.1234  0.2863  0.5617
 2563TIP3    H129180   6.491   3.727   2.927 -0.9732  0.6406 -0.0377
 2563TIP3    H229181   6.488   3.591   2.992  0.0285  1.0965  0.9847
 2564TIP3   OH229182   4.169   1.192  16.319  0.2283 -0.1129 -0.3218
 2564TIP3    H129183   4.133   1.227  16.238 -0.7821 -0.7039 -0.1395
 2564TIP3    H229184   4.155   1.097  16.313 -2.4547  0.0708  1.7525
 2565TIP3   OH229185   3.447   4.733   6.227  0.0751  0.2002 -0.1371
 2565TIP3    H129186   3.518   4.766   6.282  0.4122 -0.4962 -0.1505
 2565TIP3    H229187   3.480   4.651   6.190  0.2085  1.1224 -2.1461
 2566TIP3   OH229188   0.024   3.388  12.076 -0.3471 -0.5489 -0.1279
 2566TIP3    H129189  -0.029   3.350  12.005  0.9376  0.0581 -1.4493
 2566TIP3    H229190  -0.025   3.370  12.155 -1.9208 -1.0953 -1.2032
 2567TIP3   OH229191   4.453   5.213   5.898  0.2987 -0.3228  0.3231
 2567TIP3    H129192   4.463   5.304   5.924 -0.9318  0.3572 -1.5338
 2567TIP3    H229193   4.462   5.164   5.980 -1.4722  1.6383  1.7578
 2568TIP3   OH229194   2.843   0.997  16.608 -0.4725 -0.4309 -0.2629
 2568TIP3    H129195   2.858   1.085  16.574  0.0117 -1.5826 -3.1928
 2568TIP3    H229196   2.842   1.007  16.703  2.2012  2.3020 -0.4641
 2569TIP3   OH229197   4.333   0.370   6.096  0.5509 -0.3865 -0.4763
 2569TIP3    H129198   4.363   0.455   6.128  2.0807 -0.5082 -1.5435
 2569TIP3    H229199   4.320   0.383   6.002  0.3272 -1.1969 -0.5574
 2570TIP3   OH229200   3.995   0.542   0.198 -0.4010  0.2444 -0.0287
 2570TIP3    H129201   4.008   0.565   0.106 -0.8730  1.6730  0.2580
 2570TIP3    H229202   4.046   0.462   0.210  0.2651  0.4675 -1.3426
 2571TIP3   OH229203   5.174   0.334   5.688 -0.2488 -0.8849  0.3350
 2571TIP3    H129204   5.098   0.295   5.645  0.3161  0.5223 -2.0548
 2571TIP3    H229205   5.243   0.268   5.679 -0.5898 -1.2820  0.5946
 2572TIP3   OH229206   4.577   4.632  16.593 -0.6638  0.0466 -0.0383
 2572TIP3    H129207   4.652   4.652  16.649 -0.1452  1.4280 -1.1835
 2572TIP3    H229208   4.545   4.718  16.564 -1.6438 -0.5964 -0.9122
 2573TIP3   OH229209   4.651   4.284   3.205 -0.7898 -0.0882  0.5545
 2573TIP3    H129210   4.616   4.368   3.235 -1.5119 -0.2274  0.1241
 2573TIP3    H229211   4.730   4.270   3.257 -1.3669  0.2498  1.5181
 2574TIP3   OH229212   2.897   3.404  10.557 -0.2266  0.4406  0.0649
 2574TIP3    H129213   2.939   3.438  10.478 -0.1686 -0.0213 -0.1061
 2574TIP3    H229214   2.921   3.311  10.559 -1.7157  0.0265 -0.3592
 2575TIP3   OH229215   0.564   0.977   3.775  0.0948  0.0196 -0.3708
 2575TIP3    H129216   0.525   0.958   3.860  1.7533  0.1266  0.4456
 2575TIP3    H229217   0.611   0.896   3.752 -0.2898  0.0149 -1.1503
 2576TIP3   OH229218   6.777   6.527  11.567 -0.0524  0.2420  0.5230
 2576TIP3    H129219   6.870   6.547  11.557 -0.0894  1.5460  2.4712
 2576TIP3    H229220   6.736   6.612  11.580 -1.3554 -0.4337  0.8457
 2577TIP3   OH229221   0.875   3.463   3.892  0.4410 -0.1424  0.0061
 2577TIP3    H129222   0.849   3.555   3.888  0.2551 -0.2071 -0.3000
 2577TIP3    H229223   0.861   3.430   3.803 -0.7510 -0.8084  0.4426
 2578TIP3   OH229224   6.174   4.584  12.170  0.0495 -0.5868  0.3223
 2578TIP3    H129225   6.123   4.649  12.219  0.6335 -0.6588  1.0201
 2578TIP3    H229226   6.258   4.579  12.215 -0.0517 -1.9532  0.3695
 2579TIP3   OH229227   6.282   2.722  13.362  0.6273 -0.0271  0.4592
 2579TIP3    H129228   6.355   2.677  13.318  0.9257  1.6817 -0.8325
 2579TIP3    H229229   6.324   2.791  13.413 -0.1667  1.8199 -1.3396
 2580TIP3   OH229230   4.887   2.507  11.517  0.3516 -0.4125  0.4918
 2580TIP3    H129231   4.837   2.568  11.570 -2.2135  0.6197 -2.9161
 2580TIP3    H229232   4.839   2.425  11.521  0.4243 -0.4725  0.2006
 2581TIP3   OH229233   1.504   2.838   4.705 -0.3660 -0.3012 -0.1045
 2581TIP3    H129234   1.599   2.848   4.701 -0.4572  0.3661 -0.6113
 2581TIP3    H229235   1.491   2.758   4.756  0.3920  1.3875  2.7993
 2582TIP3   OH229236   6.662   0.629   2.996 -0.2848  0.3261 -0.4349
 2582TIP3    H129237   6.624   0.681   2.926 -0.7376 -2.2616 -2.1969
 2582TIP3    H229238   6.588   0.584   3.036  0.3506 -1.0006 -0.7098
 2583TIP3   OH229239   5.946   1.984   4.443  0.4335 -0.0504 -0.0015
 2583TIP3    H129240   5.974   1.928   4.515 -1.9319  0.6411  1.5155
 2583TIP3    H229241   5.850   1.985   4.449  0.2770  1.4159 -2.1034
 2584TIP3   OH229242   3.750   5.969   6.277 -0.3714 -0.2891  0.0885
 2584TIP3    H129243   3.819   5.982   6.212 -0.0231  1.1111  0.7133
 2584TIP3    H229244   3.673   5.946   6.225 -0.0648  0.6591 -0.8185
 2585TIP3   OH229245   2.900   4.249   3.552  0.5640  0.0206 -0.1588
 2585TIP3    H129246   2.808   4.226   3.536  0.9148 -0.3530 -1.7229
 2585TIP3    H229247   2.906   4.342   3.528  0.5350  0.1226  0.2234
 2586TIP3   OH229248   4.308   0.590  16.528 -0.1167  0.2814 -0.6482
 2586TIP3    H129249   4.377   0.562  16.589  0.7274  1.3671 -1.0858
 2586TIP3    H229250   4.235   0.613  16.585  0.2158  0.0572 -0.1172
 2587TIP3   OH229251   1.388   2.719   5.600 -0.1310  0.0346 -0.0032
 2587TIP3    H129252   1.305   2.766   5.592 -0.5424 -0.7204 -0.2760
 2587TIP3    H229253   1.362   2.630   5.624  0.6408 -0.0211  0.6374
 2588TIP3   OH229254   5.366   0.158  16.774 -0.6984  0.1402  0.3221
 2588TIP3    H129255   5.413   0.155  16.690 -1.9354 -1.2105 -0.3486
 2588TIP3    H229256   5.273   0.150  16.749 -1.1086  0.2449  1.7938
 2589TIP3   OH229257   6.536   4.673   3.433 -0.4563 -0.1261 -0.0175
 2589TIP3    H129258   6.501   4.589   3.406 -2.7431  0.4464  1.0192
 2589TIP3    H229259   6.578   4.708   3.355 -2.3684 -0.7956 -1.3889
 2590TIP3   OH229260   1.154   1.291   0.710  0.8128  0.4626  0.1671
 2590TIP3    H129261   1.195   1.212   0.677  0.0895  0.6755 -1.2778
 2590TIP3    H229262   1.105   1.263   0.787  1.4320 -0.2918  0.2832
 2591TIP3   OH229263   0.332   1.326  15.116 -0.0621  0.1828 -0.3085
 2591TIP3    H129264   0.412   1.347  15.162  0.7557  1.3514 -2.1927
 2591TIP3    H229265   0.357   1.322  15.023 -1.8244 -1.1436 -0.7736
 2592TIP3   OH229266   6.067   4.907  13.601  0.2478 -0.2208  0.3733
 2592TIP3    H129267   6.118   4.986  13.615 -0.0719  0.1360 -0.4772
 2592TIP3    H229268   6.110   4.841  13.655  0.2974  0.6137  1.3798
 2593TIP3   OH229269   3.039   5.679   2.868  0.1242  0.0959 -0.3070
 2593TIP3    H129270   3.070   5.710   2.783 -0.3953  1.3908 -0.0365
 2593TIP3    H229271   3.075   5.742   2.931 -0.7041  0.0037  0.2744
 2594TIP3   OH229272   0.678   0.019  15.546 -0.0158 -0.6845  0.5155
 2594TIP3    H129273   0.615   0.087  15.572  0.5560  0.4175 -0.9128
 2594TIP3    H229274   0.751   0.029  15.606 -0.3189 -0.6367  0.8797
 2595TIP3   OH229275   1.085   5.244   4.249 -0.1789  0.1791 -0.2206
 2595TIP3    H129276   1.003   5.279   4.214 -0.2415  0.2108 -0.0457
 2595TIP3    H229277   1.141   5.320   4.261  0.2785  0.0370 -1.3716
 2596TIP3   OH229278   4.936   5.533   2.015  0.2387  0.3804  0.2993
 2596TIP3    H129279   4.989   5.609   2.039 -0.5824  1.7591 -2.1386
 2596TIP3    H229280   4.891   5.558   1.935  0.4207 -2.9185 -0.9417
 2597TIP3   OH229281   2.915   0.041   0.240 -0.0164  0.2394  0.4882
 2597TIP3    H129282   2.998   0.002   0.212  0.8902  2.9408 -0.6984
 2597TIP3    H229283   2.850   0.001   0.181  0.8758  0.4344 -0.6463
 2598TIP3   OH229284   4.667   0.858  12.168 -0.1914 -0.6634 -0.0343
 2598TIP3    H129285   4.749   0.904  12.187 -0.3168  0.9565 -3.0624
 2598TIP3    H229286   4.612   0.873  12.245  1.1032  1.1883  0.5592
 2599TIP3   OH229287   2.931   5.875   5.194  0.5100 -0.7726 -0.3678
 2599TIP3    H129288   2.845   5.832   5.202 -0.6227  1.5107  0.3289
 2599TIP3    H229289   2.937   5.900   5.102 -0.4975  0.8185 -0.0304
 2600TIP3   OH229290   0.590   2.401   2.307  0.0112 -0.3866 -0.1303
 2600TIP3    H129291   0.625   2.475   2.357 -0.1240 -0.3414 -0.1030
 2600TIP3    H229292   0.616   2.324   2.357 -1.1160 -0.2828  0.6127
 2601TIP3   OH229293   0.278   6.365  15.237  0.4351  0.3725  0.3721
 2601TIP3    H129294   0.337   6.435  15.207  2.1278 -2.0630 -2.2903
 2601TIP3    H229295   0.321   6.329  15.314  0.5383  0.9951  0.6104
 2602TIP3   OH229296   3.654   4.406  16.847  0.0931  0.9694 -0.3266
 2602TIP3    H129297   3.696   4.490  16.865  0.1857  1.4452 -2.5746
 2602TIP3    H229298   3.726   4.344  16.837  0.0244  0.5925  1.3449
 2603TIP3   OH229299   2.675   1.966   4.277 -0.5039 -0.1208 -0.0034
 2603TIP3    H129300   2.630   1.963   4.192 -1.4496  1.7529  0.4049
 2603TIP3    H229301   2.733   2.042   4.270 -0.1392 -0.3200  0.8208
 2604TIP3   OH229302   1.926   0.778  16.023 -0.7330 -0.4246  0.3937
 2604TIP3    H129303   1.939   0.850  15.962 -0.2414 -2.5633 -2.1428
 2604TIP3    H229304   1.926   0.819  16.110  1.2485  2.3602 -0.8535
 2605TIP3   OH229305   6.754   1.012  14.361  0.0898 -0.0407 -0.6479
 2605TIP3    H129306   6.728   1.072  14.291  2.0612  0.9444 -0.5713
 2605TIP3    H229307   6.798   0.940  14.316 -1.5318 -1.0610 -0.6667
 2606TIP3   OH229308   5.934   2.278  11.088  0.1352 -1.1521  0.1250
 2606TIP3    H129309   5.839   2.271  11.079 -0.2371  2.0244  1.0603
 2606TIP3    H229310   5.961   2.336  11.017  1.1302 -0.6157  0.9298
 2607TIP3   OH229311   3.632   5.357  14.128  0.0315  0.2832 -0.6534
 2607TIP3    H129312   3.651   5.424  14.063 -1.5783  2.2096  0.8031
 2607TIP3    H229313   3.553   5.313  14.095  0.1322  0.1999 -0.7844
 2608TIP3   OH229314   0.350   4.864  16.029  0.3275  0.4482  0.0839
 2608TIP3    H129315   0.370   4.822  15.945 -0.8880  0.7225 -0.3627
 2608TIP3    H229316   0.382   4.802  16.095  0.8447 -0.0039 -0.5771
 2609TIP3   OH229317   3.788   3.753  13.004 -0.3965  0.2096 -0.4337
 2609TIP3    H129318   3.872   3.786  12.973 -0.0748 -1.4792 -1.4221
 2609TIP3    H229319   3.802   3.737  13.098  0.7842 -1.2859 -0.8558
 2610TIP3   OH229320   2.851   3.231   1.758  0.1468 -0.1960 -0.1628
 2610TIP3    H129321   2.779   3.262   1.813  0.3183  0.2261 -0.1730
 2610TIP3    H229322   2.809   3.204   1.676 -0.0412 -0.2783 -0.0386
 2611TIP3   OH229323   4.701   0.819   6.659 -0.0060 -0.1701  0.1393
 2611TIP3    H129324   4.653   0.896   6.630 -1.9927 -0.8854  1.4014
 2611TIP3    H229325   4.767   0.853   6.720  0.0846  0.6742 -0.4272
 2612TIP3   OH229326   5.010   5.057  11.936 -0.8087  0.1730 -0.2318
 2612TIP3    H129327   4.923   5.026  11.911  0.2781 -1.9555 -1.6131
 2612TIP3    H229328   5.036   5.000  12.008 -0.9960  1.5298  0.9138
 2613TIP3   OH229329   1.651   1.948   1.850 -0.0926  0.2251 -0.0966
 2613TIP3    H129330   1.613   1.871   1.807 -0.0759  0.4733 -0.5553
 2613TIP3    H229331   1.576   1.995   1.887 -0.1488  0.2597 -0.2567
 2614TIP3   OH229332   6.791   5.185   4.030 -0.1491 -0.1863 -0.1671
 2614TIP3    H129333   6.773   5.123   4.101 -0.4903  0.9946  0.7956
 2614TIP3    H229334   6.797   5.131   3.952 -1.3010 -1.3472  0.5264
 2615TIP3   OH229335   5.343   3.244  10.620  0.9129  0.2991 -0.4682
 2615TIP3    H129336   5.345   3.201  10.535 -2.1790 -0.6732 -0.1207
 2615TIP3    H229337   5.388   3.184  10.679 -0.1381 -0.7386 -0.7180
 2616TIP3   OH229338   4.736   0.570   2.258 -0.1040 -0.2242 -0.4626
 2616TIP3    H129339   4.751   0.551   2.165  0.3291 -1.2097 -0.1974
 2616TIP3    H229340   4.644   0.551   2.272 -0.4740  1.1205 -0.9680
 2617TIP3   OH229341   3.612   4.716   5.437 -0.5854  0.1019  0.4801
 2617TIP3    H129342   3.692   4.711   5.384 -1.5214  0.3064 -0.9747
 2617TIP3    H229343   3.541   4.723   5.373 -1.9211 -1.7360  1.7068
 2618TIP3   OH229344   0.334   3.287   4.470  0.1186  0.4507  0.3127
 2618TIP3    H129345   0.380   3.277   4.386 -1.0413 -1.5626 -0.1352
 2618TIP3    H229346   0.395   3.254   4.535 -0.3731 -1.5371 -0.1980
 2619TIP3   OH229347   3.175   2.077  12.977 -0.5007 -0.4754  0.2838
 2619TIP3    H129348   3.121   2.103  12.902 -0.1635  0.1859  0.2639
 2619TIP3    H229349   3.185   1.982  12.967 -1.9419 -0.6641  0.4844
 2620TIP3   OH229350   6.119   2.295   3.620 -0.0762  0.1469 -0.2717
 2620TIP3    H129351   6.077   2.297   3.534 -0.1820  0.5237 -0.2085
 2620TIP3    H229352   6.105   2.206   3.652  2.6725 -0.9968 -2.0168
 2621TIP3   OH229353   5.995   2.825  11.664  0.9722  0.3782  0.4396
 2621TIP3    H129354   6.036   2.753  11.710  0.8536  0.1171  0.1394
 2621TIP3    H229355   5.935   2.783  11.602  1.7097  0.6946 -0.5009
 2622TIP3   OH229356   3.988   6.017   4.024 -0.3808  0.1280 -0.0926
 2622TIP3    H129357   4.025   6.105   4.014  0.0742  0.2235  2.0473
 2622TIP3    H229358   3.919   6.013   3.958  1.2749  1.1380 -1.9454
 2623TIP3   OH229359   3.895   2.722  12.397  0.6817  0.8428 -0.2537
 2623TIP3    H129360   3.860   2.799  12.352  0.1451  2.2125  2.4004
 2623TIP3    H229361   3.964   2.690  12.339  0.0485  2.5583 -2.0239
 2624TIP3   OH229362   1.441   1.190  15.400 -0.7184 -0.3643  0.1759
 2624TIP3    H129363   1.506   1.238  15.451 -2.3139  4.5298 -2.1219
 2624TIP3    H229364   1.491   1.152  15.327 -0.0285  1.4252 -0.3156
 2625TIP3   OH229365   6.299   1.182   0.925 -0.6819 -0.1609 -0.4723
 2625TIP3    H129366   6.347   1.256   0.889 -0.7193 -0.0889 -0.3744
 2625TIP3    H229367   6.337   1.168   1.012  1.3922 -2.1591 -1.6330
 2626TIP3   OH229368   4.336   0.072   1.990 -0.3649  0.3178  0.0988
 2626TIP3    H129369   4.420   0.036   1.962 -0.7445  0.5489 -1.4008
 2626TIP3    H229370   4.331   0.157   1.946 -1.9478 -0.2676 -0.8999
 2627TIP3   OH229371   1.252   2.390  11.393  0.0941 -0.4621  0.4767
 2627TIP3    H129372   1.213   2.478  11.390  0.4152 -0.2620  1.7934
 2627TIP3    H229373   1.220   2.347  11.314 -0.1162  0.8254 -0.1526
 2628TIP3   OH229374   5.521   2.388  16.452 -0.3133  0.2271  0.0827
 2628TIP3    H129375   5.460   2.448  16.409 -0.5736 -0.9662 -1.2586
 2628TIP3    H229376   5.607   2.417  16.424 -0.3221  1.0541  0.8676
 2629TIP3   OH229377   4.606   0.143   3.590  0.1679 -0.0588 -0.3257
 2629TIP3    H129378   4.568   0.131   3.503 -0.5930 -1.5138  0.1949
 2629TIP3    H229379   4.531   0.142   3.649  0.7840 -0.2681  0.4624
 2630TIP3   OH229380   6.171   2.320   3.103  0.1940 -0.4594  0.0106
 2630TIP3    H129381   6.129   2.403   3.122  1.9143  0.0684  1.7416
 2630TIP3    H229382   6.243   2.342   3.044  0.7901 -0.6513  0.6444
 2631TIP3   OH229383   5.904   2.429   0.085  0.3107 -0.1073  0.2286
 2631TIP3    H129384   5.927   2.341   0.057  1.0494  0.0012  0.4786
 2631TIP3    H229385   5.975   2.484   0.053 -0.1296  0.3928  0.1015
 2632TIP3   OH229386   1.966   5.152  13.320  0.0112 -0.3231 -0.5490
 2632TIP3    H129387   1.987   5.068  13.279 -3.5212 -0.8157 -1.5878
 2632TIP3    H229388   1.956   5.213  13.246  0.1248  0.4126  0.0329
 2633TIP3   OH229389   3.602   0.904   2.287 -0.1563  0.2867  0.3335
 2633TIP3    H129390   3.631   0.949   2.367 -0.1664  1.6594 -0.4102
 2633TIP3    H229391   3.532   0.846   2.316  0.6040 -0.0715  1.5020
 2634TIP3   OH229392   4.006   5.684  12.755  0.1777  0.0585  0.0648
 2634TIP3    H129393   3.958   5.677  12.837  1.6648 -0.9250  0.8548
 2634TIP3    H229394   4.091   5.721  12.779  0.2754  0.6796 -1.1665
 2635TIP3   OH229395   4.644   1.356  16.173  0.1799  0.2834 -0.1485
 2635TIP3    H129396   4.688   1.333  16.091 -0.1262 -2.6453  0.4341
 2635TIP3    H229397   4.600   1.275  16.199  2.0438  0.4771  3.9845
 2636TIP3   OH229398   4.900   2.202  11.358  0.2858 -0.0466  0.7893
 2636TIP3    H129399   4.821   2.192  11.304  1.2292 -2.3169 -0.2363
 2636TIP3    H229400   4.866   2.204  11.448 -1.0325  0.2183  0.3061
 2637TIP3   OH229401   1.377   1.575   6.111  0.3725 -0.2211 -0.4505
 2637TIP3    H129402   1.324   1.500   6.084  1.2121 -1.0259  0.1285
 2637TIP3    H229403   1.335   1.650   6.068 -1.2602 -0.8371  0.0389
 2638TIP3   OH229404   3.078   4.811   2.047  0.0882 -0.2149 -0.6166
 2638TIP3    H129405   3.140   4.861   1.994  0.4236  0.4707  0.4257
 2638TIP3    H229406   3.056   4.868   2.120 -0.8002 -0.9482 -0.2904
 2639TIP3   OH229407   6.656   0.225   5.105  0.3580 -0.4401 -0.0187
 2639TIP3    H129408   6.647   0.136   5.072 -0.0602 -0.6145  0.5520
 2639TIP3    H229409   6.570   0.265   5.093 -0.0164 -0.7452  1.5170
 2640TIP3   OH229410   5.797   0.576   2.562  0.6058 -0.0552 -0.2399
 2640TIP3    H129411   5.727   0.511   2.556  0.4069  0.2135 -0.8176
 2640TIP3    H229412   5.866   0.542   2.503  0.6125  0.1168 -0.3315
 2641TIP3   OH229413   4.358   1.999  14.987 -0.2563  0.4467  0.0338
 2641TIP3    H129414   4.378   2.089  14.962 -2.7443  0.9098 -0.3795
 2641TIP3    H229415   4.281   2.006  15.044 -1.3012 -1.5229 -1.0800
 2642TIP3   OH229416   0.995   5.596   0.546  0.2908  0.0008 -0.2854
 2642TIP3    H129417   0.953   5.584   0.461 -0.7962 -0.9496  0.3664
 2642TIP3    H229418   0.934   5.651   0.595  0.9450  0.5966 -0.1285
 2643TIP3   OH229419   2.741   3.605   3.434  0.1597  0.1312  0.1244
 2643TIP3    H129420   2.712   3.514   3.438 -1.0812  0.4871 -0.4727
 2643TIP3    H229421   2.727   3.630   3.343 -0.5449  1.2600  0.5369
 2644TIP3   OH229422   2.377   6.131   1.419  0.1079  0.1632 -0.3301
 2644TIP3    H129423   2.447   6.156   1.479 -0.5784 -1.0524  0.9932
 2644TIP3    H229424   2.404   6.168   1.335  0.3306  3.1899  1.0099
 2645TIP3   OH229425   6.493   0.597   0.945  0.8087  0.0943 -0.2911
 2645TIP3    H129426   6.500   0.565   1.035  1.9311 -3.1042 -1.4431
 2645TIP3    H229427   6.400   0.610   0.931  0.6370  0.7754  1.3733
 2646TIP3   OH229428   5.365   1.141  11.432  0.1319 -0.0832 -0.2516
 2646TIP3    H129429   5.331   1.089  11.505  1.9247  1.3555  1.6457
 2646TIP3    H229430   5.371   1.230  11.466  1.1355  0.5818 -2.1195
 2647TIP3   OH229431   2.858   3.260  12.777  0.2865 -0.5373 -0.0020
 2647TIP3    H129432   2.876   3.300  12.862  0.9962 -0.1794 -0.3128
 2647TIP3    H229433   2.764   3.245  12.776 -0.3169  2.9181 -0.6357
 2648TIP3   OH229434   6.741   1.451   3.752 -0.3727  0.1802  0.1218
 2648TIP3    H129435   6.650   1.480   3.742  0.2031  2.1992  0.4623
 2648TIP3    H229436   6.752   1.439   3.847 -0.1952  0.2222  0.1067
 2649TIP3   OH229437   2.619   6.692   0.711  0.6599 -0.0922  0.0219
 2649TIP3    H129438   2.711   6.706   0.686  0.5569 -0.9529 -0.8417
 2649TIP3    H229439   2.624   6.652   0.798  1.1107 -0.5194 -0.1992
 2650TIP3   OH229440   2.624   5.635  12.159 -0.4890  0.2148  0.3733
 2650TIP3    H129441   2.542   5.587  12.147 -0.7168  0.8924 -0.8824
 2650TIP3    H229442   2.599   5.727  12.150  0.1668  0.5129  1.4577
 2651TIP3   OH229443   0.934   4.762  11.978  0.1835 -0.5342  0.0967
 2651TIP3    H129444   1.013   4.814  11.986  0.6963 -1.1611 -0.8366
 2651TIP3    H229445   0.904   4.776  11.888 -0.3141 -0.9409  0.1920
 2652TIP3   OH229446   1.897   5.803   4.116  0.3669  0.0963  0.0824
 2652TIP3    H129447   1.809   5.825   4.146 -0.3155 -1.1682 -0.9607
 2652TIP3    H229448   1.944   5.886   4.117 -1.0630  0.9275 -0.1334
 2653TIP3   OH229449   2.797   0.657   5.187  0.7131  0.3491 -0.2357
 2653TIP3    H129450   2.841   0.573   5.201  0.1712 -0.0035 -0.6590
 2653TIP3    H229451   2.853   0.704   5.126  0.9942  0.2843 -0.0314
 2654TIP3   OH229452   1.427   1.935  13.404 -0.2273 -0.1054  0.6515
 2654TIP3    H129453   1.472   2.013  13.372 -0.6035 -0.8366 -1.7780
 2654TIP3    H229454   1.465   1.920  13.491  1.8759  1.1586  0.0089
 2655TIP3   OH229455   0.871   2.984   1.361 -0.4312 -0.2216 -0.4534
 2655TIP3    H129456   0.957   3.009   1.327 -0.5045 -0.0012 -0.4775
 2655TIP3    H229457   0.890   2.928   1.436 -0.2529  1.0692  0.4799
 2656TIP3   OH229458   5.864   0.199  12.057  0.1874  0.2804 -0.2913
 2656TIP3    H129459   5.779   0.154  12.052 -0.0850  0.8972 -1.2489
 2656TIP3    H229460   5.842   0.292  12.050  0.8248  0.5353  0.8549
 2657TIP3   OH229461   1.691   4.865   2.885  0.1423  0.9804 -0.1287
 2657TIP3    H129462   1.760   4.868   2.951 -0.3239  2.6082  0.3198
 2657TIP3    H229463   1.635   4.940   2.906 -1.1685  0.3002 -1.1202
 2658TIP3   OH229464   2.132   0.392   1.069 -0.1184 -0.4571  0.0524
 2658TIP3    H129465   2.081   0.320   1.106 -1.2631 -0.5189 -1.5977
 2658TIP3    H229466   2.066   0.457   1.045  0.7892  0.4786  0.0729
 2659TIP3   OH229467   0.628   1.161   4.379  0.0411  0.0825  0.1337
 2659TIP3    H129468   0.678   1.210   4.444 -0.2482  0.4364  0.0895
 2659TIP3    H229469   0.565   1.224   4.345 -0.7567 -0.4942  0.5396
 2660TIP3   OH229470   5.195   6.594   1.782 -0.6878  0.1637 -0.4857
 2660TIP3    H129471   5.201   6.509   1.825 -0.9357 -0.7104 -2.1092
 2660TIP3    H229472   5.216   6.658   1.850 -2.7233 -1.0460  1.3451
 2661TIP3   OH229473   0.993   1.402  17.190  0.3066 -0.3331  0.2538
 2661TIP3    H129474   1.027   1.319  17.157 -1.2478 -0.5394 -0.8799
 2661TIP3    H229475   0.985   1.388  17.284  1.4159 -0.9703  0.2657
 2662TIP3   OH229476   4.661   5.488   1.387 -0.4975 -0.1575 -0.0483
 2662TIP3    H129477   4.623   5.400   1.393 -0.9227  0.0521  0.3644
 2662TIP3    H229478   4.642   5.528   1.472 -0.0914  0.2477 -0.1505
 2663TIP3   OH229479   1.070   5.431   1.079  0.2583 -0.4261  0.7565
 2663TIP3    H129480   0.997   5.369   1.082  0.6858 -0.9570  0.0803
 2663TIP3    H229481   1.091   5.439   0.986 -0.1151  1.1030  0.7897
 2664TIP3   OH229482   1.391   3.584  16.000  0.0724  0.1848  0.0554
 2664TIP3    H129483   1.380   3.588  16.095  2.1562  1.4540  0.2705
 2664TIP3    H229484   1.318   3.636  15.965  0.0701  0.8443  1.0180
 2665TIP3   OH229485   4.884   5.194  15.368  0.0808  0.3198  0.0134
 2665TIP3    H129486   4.892   5.264  15.303  3.3054 -2.9273 -3.3335
 2665TIP3    H229487   4.811   5.140  15.337  0.5299 -0.2966  0.0073
 2666TIP3   OH229488   5.602   2.149  15.145 -0.4013  0.0412  0.2096
 2666TIP3    H129489   5.560   2.116  15.224 -1.1328 -1.3048 -0.7086
 2666TIP3    H229490   5.537   2.135  15.076  1.2298 -1.2762 -1.1015
 2667TIP3   OH229491   5.927   3.573   2.281  0.0645 -0.3192 -0.2512
 2667TIP3    H129492   5.917   3.509   2.351 -1.6924 -0.2767 -0.4302
 2667TIP3    H229493   5.945   3.520   2.203 -0.5462 -0.5620 -0.2365
 2668TIP3   OH229494   3.762   5.282   2.941 -0.2515 -0.4173 -0.0071
 2668TIP3    H129495   3.858   5.283   2.933 -0.2102 -1.5240  0.2176
 2668TIP3    H229496   3.732   5.349   2.881  0.7276  0.7344  0.7707
 2669TIP3   OH229497   6.031   0.577   2.342  0.6034 -0.5586 -0.5063
 2669TIP3    H129498   6.019   0.549   2.251  0.4865 -2.1192 -0.0381
 2669TIP3    H229499   6.125   0.588   2.352  0.6107 -0.3469 -0.8294
 2670TIP3   OH229500   1.178   5.435  14.276  0.0953 -0.6759  0.1330
 2670TIP3    H129501   1.263   5.477  14.278  0.1613 -0.7522 -0.8439
 2670TIP3    H229502   1.172   5.388  14.359  0.1652  0.9600  1.0857
 2671TIP3   OH229503   6.513   3.135   5.664 -0.3962  0.2380  0.0971
 2671TIP3    H129504   6.495   3.053   5.711 -1.3898  0.7218  0.5961
 2671TIP3    H229505   6.538   3.196   5.733 -0.5115  0.5816 -0.1668
 2672TIP3   OH229506   1.584   2.479   5.364  0.4511 -0.0635  0.0081
 2672TIP3    H129507   1.544   2.413   5.421 -0.6910 -0.7347 -1.5272
 2672TIP3    H229508   1.655   2.433   5.320  1.6864  0.6042  1.2957
 2673TIP3   OH229509   1.550   1.226   3.580 -0.3308  0.1673 -0.2825
 2673TIP3    H129510   1.535   1.132   3.587  1.3737 -0.0937  0.2831
 2673TIP3    H229511   1.554   1.243   3.486 -1.4511 -0.1823 -0.3953
 2674TIP3   OH229512   3.422   3.692   3.999 -0.1430 -0.2033 -0.5269
 2674TIP3    H129513   3.352   3.637   3.964 -1.1444  0.7916 -0.1214
 2674TIP3    H229514   3.380   3.743   4.069  0.9443  0.5323 -0.3948
 2675TIP3   OH229515   5.344   3.602   1.968 -0.0717 -0.2394 -0.1060
 2675TIP3    H129516   5.385   3.606   1.882  0.8153 -0.1583  0.3223
 2675TIP3    H229517   5.399   3.656   2.023 -1.3984  0.8186  0.2063
 2676TIP3   OH229518   4.094   2.774   5.468  0.4083  0.4039 -0.1565
 2676TIP3    H129519   4.047   2.706   5.420  0.7113 -0.6959  1.0752
 2676TIP3    H229520   4.117   2.838   5.402 -0.4169 -0.3907 -1.2404
 2677TIP3   OH229521   5.685   5.856   0.918 -0.0173 -0.2657  0.2128
 2677TIP3    H129522   5.717   5.826   1.003  0.1411 -3.1658 -0.8311
 2677TIP3    H229523   5.591   5.871   0.932  0.3180  0.9206  1.3124
 2678TIP3   OH229524   4.663   1.476  15.762  0.0860  0.0090  0.2656
 2678TIP3    H129525   4.723   1.410  15.726 -0.6480 -0.7427  0.4026
 2678TIP3    H229526   4.667   1.549  15.700  0.1873 -0.5471 -0.3908
 2679TIP3   OH229527   0.577   3.832   2.082  0.2493 -0.5675  0.0657
 2679TIP3    H129528   0.579   3.924   2.053  0.4103 -0.8892 -0.9868
 2679TIP3    H229529   0.658   3.820   2.132 -0.4720  0.2509  1.4482
 2680TIP3   OH229530   0.974   2.063   5.164  0.3666 -0.4578  0.8066
 2680TIP3    H129531   1.033   2.090   5.093  1.4018 -1.1867  1.3706
 2680TIP3    H229532   0.996   2.120   5.237 -2.4782  2.0324 -0.2065
 2681TIP3   OH229533   2.286   0.081  13.962  0.0219  0.1795  0.0111
 2681TIP3    H129534   2.210   0.118  14.007 -0.2440  1.9739 -1.8177
 2681TIP3    H229535   2.252   0.051  13.878  0.8386 -1.5434  0.2606
 2682TIP3   OH229536   5.861   4.129   0.065  0.7938 -0.1651 -0.3295
 2682TIP3    H129537   5.889   4.037   0.064 -1.2304 -0.7966 -0.0114
 2682TIP3    H229538   5.879   4.159   0.154  0.0865 -0.6976 -0.0025
 2683TIP3   OH229539   2.735   2.859   1.402  0.3935  0.1857 -0.0505
 2683TIP3    H129540   2.740   2.851   1.307  1.5612 -0.1082  0.0244
 2683TIP3    H229541   2.751   2.951   1.420 -1.6749  0.6087 -0.2344
 2684TIP3   OH229542   5.340   3.210  11.493  0.3436 -0.0077  0.0127
 2684TIP3    H129543   5.385   3.283  11.534 -0.7119  0.8071 -0.2365
 2684TIP3    H229544   5.398   3.135  11.504  0.8532  0.5927  1.4101
 2685TIP3   OH229545   2.592   6.145  12.759  0.2275 -0.2122  0.4814
 2685TIP3    H129546   2.650   6.076  12.726 -0.6059  0.1252 -1.7788
 2685TIP3    H229547   2.641   6.226  12.745  0.8217 -0.2395  2.2756
 2686TIP3   OH229548   0.197   2.143   3.193  0.8694 -0.6858 -0.6425
 2686TIP3    H129549   0.191   2.156   3.288 -0.2393 -1.7600 -0.5506
 2686TIP3    H229550   0.285   2.172   3.170  0.6729  0.8919  0.4970
 2687TIP3   OH229551   1.819   2.191  11.863  0.4812  0.3250 -0.8757
 2687TIP3    H129552   1.754   2.252  11.899  0.7143  0.7569 -1.1735
 2687TIP3    H229553   1.787   2.171  11.775 -0.2641 -0.9937 -0.3196
 2688TIP3   OH229554   6.415   5.552   3.267 -0.2132  0.6297 -0.2005
 2688TIP3    H129555   6.405   5.474   3.211  1.6953  0.2485 -0.0137
 2688TIP3    H229556   6.461   5.615   3.212  0.8218  0.5962  0.6178
 2689TIP3   OH229557   4.990   6.733   6.573  0.5555  0.4924 -0.4610
 2689TIP3    H129558   4.948   6.796   6.515  2.9038  0.2600 -2.4731
 2689TIP3    H229559   5.071   6.775   6.601  0.6952 -0.4411  0.5867
 2690TIP3   OH229560   3.163   1.093   0.229 -0.0681 -0.4395  0.4381
 2690TIP3    H129561   3.108   1.053   0.297  0.9606 -2.5118  0.0881
 2690TIP3    H229562   3.104   1.109   0.156 -0.8524  0.3355  1.2320
 2691TIP3   OH229563   0.309   5.008  14.392 -0.3605 -0.0738  0.3048
 2691TIP3    H129564   0.312   4.963  14.308  0.0665  1.0053 -0.2530
 2691TIP3    H229565   0.237   5.070  14.384 -1.1710 -0.8546  1.1982
 2692TIP3   OH229566   5.005   4.454   4.403 -0.8320 -0.2813 -0.5144
 2692TIP3    H129567   4.998   4.361   4.381  1.7476 -1.5326  3.3830
 2692TIP3    H229568   4.924   4.474   4.448  0.2912 -1.8856  2.3864
 2693TIP3   OH229569   4.968   1.269  17.152 -0.5985 -0.1707 -0.2791
 2693TIP3    H129570   4.985   1.210  17.079  1.9911  0.9512 -0.6439
 2693TIP3    H229571   4.874   1.287  17.147 -1.1181 -2.9525 -1.1158
 2694TIP3   OH229572   0.485   4.293  16.661  0.3973  0.7398  0.2341
 2694TIP3    H129573   0.448   4.379  16.682 -1.3020 -0.3131  1.6893
 2694TIP3    H229574   0.569   4.313  16.620  0.0077  3.0956  0.4899
 2695TIP3   OH229575   5.675   1.842  12.375  0.1899 -0.1429  0.8668
 2695TIP3    H129576   5.704   1.915  12.320 -1.0096  0.2077  0.6720
 2695TIP3    H229577   5.744   1.776  12.367  1.4254  1.0776  1.2603
 2696TIP3   OH229578   4.099   0.230  10.859  0.1268 -0.1719  0.0590
 2696TIP3    H129579   4.016   0.256  10.899 -1.2318 -1.4105 -1.8658
 2696TIP3    H229580   4.120   0.302  10.800  0.8225  0.4722  1.0652
 2697TIP3   OH229581   2.790   0.983  16.337  0.1635  0.3216 -0.0839
 2697TIP3    H129582   2.866   0.943  16.296  0.8058  1.8472 -0.3892
 2697TIP3    H229583   2.813   0.990  16.430  0.0262 -0.0622 -0.0199
 2698TIP3   OH229584   0.741   1.488  16.189  0.1872  0.2746  0.2208
 2698TIP3    H129585   0.834   1.480  16.169 -0.1281  0.8048 -1.5422
 2698TIP3    H229586   0.737   1.489  16.285  1.9910  0.3580  0.3097
 2699TIP3   OH229587   1.676   0.112   0.169 -0.0008  0.0130  0.0131
 2699TIP3    H129588   1.677   0.207   0.169 -0.6588  0.0350  1.6722
 2699TIP3    H229589   1.654   0.088   0.079 -2.0529  1.4683  0.0849
 2700TIP3   OH229590   4.986   3.602   2.243 -0.7340 -0.1082  0.4680
 2700TIP3    H129591   4.932   3.524   2.251 -0.5267 -0.1160  2.0035
 2700TIP3    H229592   5.075   3.569   2.230 -0.1843 -0.2230  4.0397
 2701TIP3   OH229593   3.359   1.204  15.230  0.3438 -0.0932 -0.0634
 2701TIP3    H129594   3.328   1.123  15.188 -0.7742  0.4988 -0.3906
 2701TIP3    H229595   3.352   1.185  15.324  2.9894 -1.4680 -0.0888
 2702TIP3   OH229596   2.645   2.357   3.881  0.6140  0.2377  0.0838
 2702TIP3    H129597   2.572   2.307   3.846 -0.2222  0.6548  1.1902
 2702TIP3    H229598   2.679   2.406   3.806  0.1164 -0.3950 -0.5561
 2703TIP3   OH229599   4.093   0.842  15.077 -0.3155  0.1149 -0.3009
 2703TIP3    H129600   4.073   0.749  15.087  1.0832 -0.2499 -0.7651
 2703TIP3    H229601   4.034   0.872  15.007 -0.3757 -0.5574 -0.5435
 2704TIP3   OH229602   5.346   0.257   1.142 -0.5895 -0.1447  0.3997
 2704TIP3    H129603   5.344   0.345   1.104  0.4645 -0.2039  0.1952
 2704TIP3    H229604   5.422   0.258   1.201 -1.2376 -0.5669  1.2639
 2705TIP3   OH229605   5.549   6.658  12.384  0.1811 -0.1573 -0.0652
 2705TIP3    H129606   5.514   6.646  12.295 -0.8614  1.2253  0.1378
 2705TIP3    H229607   5.591   6.744  12.381  0.7826 -0.4210  0.6053
 2706TIP3   OH229608   6.227   0.525  14.519  0.1732  0.1305  0.2365
 2706TIP3    H129609   6.218   0.496  14.428 -0.6312  0.0904  0.3243
 2706TIP3    H229610   6.228   0.621  14.514 -0.2438  0.1333  0.2186
 2707TIP3   OH229611   4.521   2.338   4.502 -0.5985 -0.4336 -0.0417
 2707TIP3    H129612   4.567   2.296   4.430 -0.0212 -0.6065  0.4236
 2707TIP3    H229613   4.481   2.416   4.463  1.2778  0.4985 -0.1598
 2708TIP3   OH229614   1.565   2.205   0.064  0.3672  0.4681 -0.6874
 2708TIP3    H129615   1.644   2.186   0.014  0.9362  1.1672 -0.0709
 2708TIP3    H229616   1.586   2.176   0.153 -0.7335 -1.0245 -0.8956
 2709TIP3   OH229617   0.108   4.394  12.692 -0.1851  0.2278  0.4809
 2709TIP3    H129618   0.192   4.425  12.659 -0.7851  0.5997 -0.6943
 2709TIP3    H229619   0.053   4.384  12.614 -0.5639 -2.0836  0.9839
 2710TIP3   OH229620   0.926   3.907  14.636  0.9894 -0.3816  0.3978
 2710TIP3    H129621   0.894   3.841  14.575  0.4284 -1.1286  1.4824
 2710TIP3    H229622   1.014   3.878  14.659  0.6502 -0.8890  1.0646
 2711TIP3   OH229623   4.718   5.448   0.692 -0.0660  0.4053 -0.1728
 2711TIP3    H129624   4.746   5.496   0.770 -2.1008 -1.3300  1.6878
 2711TIP3    H229625   4.623   5.465   0.687 -0.1776 -0.5584 -1.5324
 2712TIP3   OH229626   3.954   4.933   3.712 -0.0581  0.1649 -0.2839
 2712TIP3    H129627   4.040   4.975   3.719  0.9538 -2.0199  0.9402
 2712TIP3    H229628   3.898   4.985   3.770  0.8954  0.4806  0.3751
 2713TIP3   OH229629   0.015   6.427   5.078 -0.0250 -0.6505 -0.0899
 2713TIP3    H129630  -0.015   6.425   4.988  0.0139 -1.3132 -0.0904
 2713TIP3    H229631   0.092   6.483   5.077  1.6509 -2.8807 -1.0040
 2714TIP3   OH229632   1.467   4.442   3.174  0.1242  0.1699 -0.2673
 2714TIP3    H129633   1.531   4.389   3.221  0.6936  2.1759  1.3216
 2714TIP3    H229634   1.493   4.438   3.083  0.5513 -1.6936 -0.0799
 2715TIP3   OH229635   0.042   2.790  12.050  0.2346 -0.5208  0.4625
 2715TIP3    H129636   0.054   2.711  11.996 -0.8335 -0.6253  0.3606
 2715TIP3    H229637  -0.033   2.769  12.106 -0.7996  0.8617 -0.3852
 2716TIP3   OH229638   3.548   0.119   0.307 -0.3056  0.2649 -0.6406
 2716TIP3    H129639   3.573   0.089   0.219  0.1274  2.3727 -1.2776
 2716TIP3    H229640   3.469   0.172   0.292 -0.1067  0.8047  0.2165
 2717TIP3   OH229641   6.446   2.633   2.829  0.3369 -0.1866 -0.3049
 2717TIP3    H129642   6.377   2.593   2.776 -0.6907  0.2038  0.7063
 2717TIP3    H229643   6.417   2.620   2.920  0.8875  1.2045  0.0875
 2718TIP3   OH229644   0.238   4.996  10.815  0.0876  0.5883 -0.0408
 2718TIP3    H129645   0.195   5.063  10.868 -1.8895  1.7036 -2.9260
 2718TIP3    H229646   0.278   5.044  10.744  0.5658 -1.0960 -0.9352
 2719TIP3   OH229647   1.191   2.561  15.875 -1.2397 -0.5526  0.7192
 2719TIP3    H129648   1.178   2.511  15.794  0.0795  0.8175 -0.3636
 2719TIP3    H229649   1.263   2.516  15.919 -0.3221  0.1343 -0.0594
 2720TIP3   OH229650   2.269   4.141   1.484 -0.1612  0.5316 -0.0399
 2720TIP3    H129651   2.197   4.203   1.478  0.1055  0.7713 -0.8265
 2720TIP3    H229652   2.228   4.055   1.474 -0.4716  0.6007  0.6054
 2721TIP3   OH229653   0.559   4.704   3.469 -0.4404  0.0377 -0.3915
 2721TIP3    H129654   0.594   4.618   3.492  0.5929 -0.1326 -2.4318
 2721TIP3    H229655   0.635   4.763   3.473 -1.1064  0.8201  0.8327
 2722TIP3   OH229656   5.936   5.548   6.228 -0.1435  0.5800  0.9217
 2722TIP3    H129657   5.939   5.515   6.138  1.4849  0.8937  0.8345
 2722TIP3    H229658   5.845   5.574   6.241 -0.1447  1.7401 -1.0926
 2723TIP3   OH229659   4.453   3.121  12.055  0.6002 -0.2147  0.2605
 2723TIP3    H129660   4.488   3.034  12.036  0.4343 -0.7354  2.2281
 2723TIP3    H229661   4.464   3.131  12.150 -2.0991  0.6885  0.5221
 2724TIP3   OH229662   1.564   6.510   3.586  0.1293  0.6920 -0.4454
 2724TIP3    H129663   1.607   6.454   3.650 -1.7815  0.0257  0.3157
 2724TIP3    H229664   1.589   6.599   3.612  3.7908  0.2301 -2.1272
 2725TIP3   OH229665   0.650   4.945  14.282 -0.4089  0.0442 -0.1609
 2725TIP3    H129666   0.660   5.014  14.217  0.7754 -1.3597 -1.5178
 2725TIP3    H229667   0.740   4.927  14.312 -0.6072 -1.4568 -0.4272
 2726TIP3   OH229668   5.193   4.757   5.375  0.2352 -0.9405 -0.1486
 2726TIP3    H129669   5.098   4.760   5.362  0.2964 -0.8694 -0.5929
 2726TIP3    H229670   5.229   4.764   5.287  0.6567 -0.8321  0.0327
 2727TIP3   OH229671   2.878   0.291  16.805  0.5513 -0.2232  0.1789
 2727TIP3    H129672   2.828   0.219  16.843  2.5158 -1.4757  0.4437
 2727TIP3    H229673   2.969   0.266  16.817  1.2429  0.7079 -2.7822
 2728TIP3   OH229674   5.607   0.368   6.205 -0.4496  0.0427  0.4320
 2728TIP3    H129675   5.646   0.418   6.277  0.6531  1.2898 -0.9940
 2728TIP3    H229676   5.610   0.428   6.130  1.0644 -2.1919 -1.3791
 2729TIP3   OH229677   4.137   3.403   5.732  0.5689 -0.4948 -0.0831
 2729TIP3    H129678   4.133   3.310   5.713 -2.0723 -0.1624 -1.3137
 2729TIP3    H229679   4.062   3.441   5.686  0.5224  1.9786  1.8931
 2730TIP3   OH229680   1.207   5.468   0.444 -0.1582  0.1518 -0.2359
 2730TIP3    H129681   1.115   5.482   0.466 -0.0052  1.2790 -0.2563
 2730TIP3    H229682   1.255   5.512   0.514  0.3623 -0.3721 -0.2608
 2731TIP3   OH229683   4.135   2.524  15.616  0.3968  0.2162 -0.4877
 2731TIP3    H129684   4.114   2.529  15.523  1.2329  0.3603 -0.6795
 2731TIP3    H229685   4.173   2.609  15.637 -0.6995  0.5457  0.2300
 2732TIP3   OH229686   6.373   0.307   1.975 -0.0815  0.5867  0.2739
 2732TIP3    H129687   6.310   0.351   1.918 -2.7805  0.6326  3.1368
 2732TIP3    H229688   6.326   0.230   2.007  1.8507 -0.1891  1.3246
 2733TIP3   OH229689   5.143   1.529  14.083 -0.2824 -0.3059  0.6472
 2733TIP3    H129690   5.215   1.555  14.140 -0.3676 -1.1464  1.1387
 2733TIP3    H229691   5.100   1.612  14.060  1.0219  0.2350  0.0897
 2734TIP3   OH229692   6.665   2.039  13.115 -0.1217 -0.3394 -0.3729
 2734TIP3    H129693   6.693   2.086  13.037 -1.1484 -0.8272 -1.0531
 2734TIP3    H229694   6.572   2.060  13.123  0.3396  1.0303  1.6632
 2735TIP3   OH229695   2.912   4.827  15.020 -0.0139  0.2898 -0.1876
 2735TIP3    H129696   2.898   4.921  15.009  1.2589  0.4133 -0.8360
 2735TIP3    H229697   2.832   4.787  14.984 -1.4196  1.1660  1.8649
 2736TIP3   OH229698   2.677   2.553  11.381  0.0022  0.7329  0.0385
 2736TIP3    H129699   2.605   2.545  11.443 -0.0709  2.1261  0.1508
 2736TIP3    H229700   2.729   2.474  11.394 -0.1927  0.8564  1.6654
 2737TIP3   OH229701   1.092   5.145  15.909  0.1641  0.4538  0.3620
 2737TIP3    H129702   1.115   5.065  15.862  0.4447  0.3526  0.6716
 2737TIP3    H229703   1.138   5.138  15.993 -0.3892  0.6035  0.6775
 2738TIP3   OH229704   5.315   1.640   3.756  0.1429 -0.0295  0.3657
 2738TIP3    H129705   5.266   1.566   3.789 -2.2595  0.7643 -1.2948
 2738TIP3    H229706   5.387   1.600   3.706 -0.2906 -1.2373  0.6913
 2739TIP3   OH229707   3.909   3.931   1.337  0.0761  0.4432  0.5329
 2739TIP3    H129708   3.971   3.980   1.392 -0.0196  1.7088 -0.4706
 2739TIP3    H229709   3.964   3.886   1.273  0.0396  0.6465  0.3588
 2740TIP3   OH229710   1.644   1.604  12.553 -0.1072 -0.5169 -0.4065
 2740TIP3    H129711   1.718   1.660  12.577 -0.4309  0.4083 -1.5001
 2740TIP3    H229712   1.567   1.652  12.584 -0.1867 -2.2005  2.1086
 2741TIP3   OH229713   2.894   3.025   0.712  0.1227  0.3859  0.3922
 2741TIP3    H129714   2.939   2.983   0.639 -0.7484 -1.3656  0.8432
 2741TIP3    H229715   2.957   3.025   0.783  0.5396  0.9602  0.0285
 2742TIP3   OH229716   3.320   1.754   3.554  0.3517 -0.4281  0.8178
 2742TIP3    H129717   3.308   1.713   3.468  0.1047 -0.3380  0.8091
 2742TIP3    H229718   3.401   1.803   3.546 -1.8799  3.1930 -0.7702
 2743TIP3   OH229719   0.245   3.133  10.896 -0.6687  0.4511  0.3565
 2743TIP3    H129720   0.332   3.118  10.858 -0.9040  0.0659 -0.0274
 2743TIP3    H229721   0.218   3.218  10.860  0.2021  1.3219  1.6906
 2744TIP3   OH229722   4.343   3.200   0.900  0.3818  0.3012 -0.3167
 2744TIP3    H129723   4.280   3.240   0.960  0.6868 -1.9326  1.5716
 2744TIP3    H229724   4.429   3.227   0.934  0.5279 -0.1083 -0.3539
 2745TIP3   OH229725   6.488   4.968   4.545  0.6237 -0.5944 -0.3729
 2745TIP3    H129726   6.528   4.901   4.490  0.2679 -1.7373  0.7408
 2745TIP3    H229727   6.550   5.041   4.542  1.2042 -1.1178 -1.2770
 2746TIP3   OH229728   1.446   3.227   5.753 -0.1444 -0.2545 -0.6005
 2746TIP3    H129729   1.372   3.174   5.722 -0.4128  0.1681 -0.6839
 2746TIP3    H229730   1.431   3.313   5.713 -0.6617  0.3913  0.9641
 2747TIP3   OH229731   0.990   0.919  13.183 -0.4900 -0.1259  0.9986
 2747TIP3    H129732   0.944   0.984  13.130  3.0025  0.9967 -0.8109
 2747TIP3    H229733   1.040   0.970  13.246 -0.8091 -1.2678  2.2112
 2748TIP3   OH229734   4.137   5.737  13.024 -0.0483  0.5394 -0.2447
 2748TIP3    H129735   4.221   5.743  12.978 -0.1988  2.8471 -0.2489
 2748TIP3    H229736   4.159   5.747  13.117 -0.4089  2.0485 -0.3173
 2749TIP3   OH229737   5.543   2.048   3.132  0.4368  0.1784 -0.0990
 2749TIP3    H129738   5.539   2.116   3.065 -1.1172 -2.6174 -2.9878
 2749TIP3    H229739   5.451   2.025   3.148  0.9785 -2.7422 -0.8532
 2750TIP3   OH229740   4.944   0.143  15.538  0.0647  0.2908 -0.2831
 2750TIP3    H129741   4.859   0.097  15.540 -0.3285  0.9477 -1.4541
 2750TIP3    H229742   4.942   0.200  15.615 -0.3842  0.0071 -0.0803
 2751TIP3   OH229743   0.155   2.887   3.426 -0.1097 -0.1368  0.2555
 2751TIP3    H129744   0.079   2.932   3.390 -0.6354 -0.5885  0.7767
 2751TIP3    H229745   0.159   2.804   3.378 -1.5361 -1.2816  2.0057
 2752TIP3   OH229746   2.477   2.285   0.602 -0.6992  0.3286  0.1350
 2752TIP3    H129747   2.560   2.252   0.634 -1.2067 -0.6671  0.4582
 2752TIP3    H229748   2.429   2.311   0.681 -1.6608 -1.4342  0.1599
 2753TIP3   OH229749   1.502   6.390   2.760 -0.8006  0.3281  0.6022
 2753TIP3    H129750   1.545   6.309   2.734  1.4880  2.1540 -1.6666
 2753TIP3    H229751   1.522   6.400   2.853  1.6344 -0.1585  0.1620
 2754TIP3   OH229752   0.045   2.085   5.574 -0.3120 -0.7809  0.4511
 2754TIP3    H129753  -0.046   2.084   5.544  0.0068 -0.1844 -0.5501
 2754TIP3    H229754   0.095   2.051   5.500  0.6279  1.9506 -0.2230
 2755TIP3   OH229755   5.314   0.697  16.466  0.0779 -0.6258  0.6164
 2755TIP3    H129756   5.238   0.745  16.432  0.1262 -0.3674  0.8689
 2755TIP3    H229757   5.371   0.685  16.390  0.2386  0.0513  0.6256
 2756TIP3   OH229758   6.068   0.569   4.985  0.0465  0.1508  0.1911
 2756TIP3    H129759   6.121   0.595   4.910 -0.4282 -0.4773 -0.3638
 2756TIP3    H229760   6.097   0.480   5.005 -0.3714  0.0331  0.2764
 2757TIP3   OH229761   1.491   5.041   1.889  0.3286  0.0681 -0.1350
 2757TIP3    H129762   1.449   4.958   1.864  0.6005  0.2496 -1.2332
 2757TIP3    H229763   1.504   5.033   1.983 -0.1921 -0.8953 -0.1280
 2758TIP3   OH229764   0.968   2.547  12.798  0.1367  0.3145  0.0383
 2758TIP3    H129765   0.994   2.481  12.734  0.5415  0.1552  0.3629
 2758TIP3    H229766   0.948   2.625  12.746 -0.3309 -0.0562 -0.3473
 2759TIP3   OH229767   2.709   5.727   5.234 -0.3444 -0.2282 -0.1679
 2759TIP3    H129768   2.677   5.717   5.144 -2.7150 -0.7477  0.6987
 2759TIP3    H229769   2.632   5.713   5.289  1.4376 -1.8277  2.0502
 2760TIP3   OH229770   1.853   2.901  14.520  0.4145 -0.0009  0.1095
 2760TIP3    H129771   1.773   2.951  14.530  0.4966  0.2811 -0.6395
 2760TIP3    H229772   1.892   2.933  14.439 -0.4089 -2.4989 -1.3310
 2761TIP3   OH229773   0.789   4.935   4.011  0.2581 -0.5619 -0.2689
 2761TIP3    H129774   0.734   4.897   3.942 -0.6841  0.7436 -0.2557
 2761TIP3    H229775   0.738   4.925   4.091 -0.3882  1.4351 -0.3880
 2762TIP3   OH229776   5.932   4.807   0.018  0.1997 -0.2972  0.4739
 2762TIP3    H129777   5.963   4.866   0.086 -0.4086  0.3062  0.2383
 2762TIP3    H229778   6.005   4.798  -0.043  0.7469 -0.8415  1.2010
 2763TIP3   OH229779   4.000   6.312   2.257  0.0094 -0.0171 -0.3054
 2763TIP3    H129780   3.944   6.238   2.280  1.1331 -1.2576 -1.4289
 2763TIP3    H229781   3.964   6.346   2.175  2.1845 -2.2833 -2.2911
 2764TIP3   OH229782   6.008   5.881   3.266  0.4040 -0.1523 -0.3952
 2764TIP3    H129783   6.021   5.976   3.262 -0.8459  0.3599  4.2782
 2764TIP3    H229784   6.097   5.845   3.266  0.9328  1.1150 -0.7952
 2765TIP3   OH229785   1.379   4.245   2.954  0.7393  0.4130  0.4021
 2765TIP3    H129786   1.288   4.242   2.985  0.9664  0.6252  1.0915
 2765TIP3    H229787   1.420   4.169   2.994  1.0781  0.7837  0.7546
 2766TIP3   OH229788   4.979   1.115   2.088 -0.4530 -0.3962  0.1401
 2766TIP3    H129789   4.962   1.167   2.011 -0.6610  0.3014  0.6537
 2766TIP3    H229790   4.939   1.030   2.069  2.7012 -1.4981 -2.0404
 2767TIP3   OH229791   5.827   1.232   5.656 -0.1756  0.6447  0.2283
 2767TIP3    H129792   5.754   1.249   5.597 -0.0095  1.3223  0.2084
 2767TIP3    H229793   5.834   1.137   5.660  0.6748  0.5885 -1.9255
 2768TIP3   OH229794   4.504   0.141  11.409  0.4705  0.0743 -0.5004
 2768TIP3    H129795   4.479   0.229  11.383 -0.5284  0.3165  1.2003
 2768TIP3    H229796   4.480   0.086  11.335 -1.3064  0.8864 -0.5367
 2769TIP3   OH229797   0.582   4.302   0.836 -0.3920  0.0049 -0.5234
 2769TIP3    H129798   0.493   4.265   0.839 -0.3554 -0.0097  0.8154
 2769TIP3    H229799   0.630   4.255   0.904  0.6242  0.0758 -1.1838
 2770TIP3   OH229800   6.233   1.430   2.407 -0.0648 -0.9825 -0.1271
 2770TIP3    H129801   6.191   1.428   2.322 -0.9012 -0.2500  0.2672
 2770TIP3    H229802   6.168   1.396   2.468  0.5886 -1.6725  0.2008
 2771TIP3   OH229803   5.428   0.501   4.065  0.1143 -0.0645  0.2694
 2771TIP3    H129804   5.412   0.581   4.115 -0.2341  0.6023 -0.8708
 2771TIP3    H229805   5.341   0.475   4.034  0.5890  0.8758 -1.9499
 2772TIP3   OH229806   1.556   4.834   2.167  0.5046 -0.3784 -0.2927
 2772TIP3    H129807   1.563   4.786   2.085 -0.5710 -0.5646 -0.2753
 2772TIP3    H229808   1.526   4.769   2.231  0.0796  0.0652 -0.0358
 2773TIP3   OH229809   4.041   3.364  13.434 -0.8432  0.6868 -0.6574
 2773TIP3    H129810   3.972   3.378  13.369 -1.4253  1.1936  0.0580
 2773TIP3    H229811   4.051   3.269  13.438  0.1607  0.6968 -2.4728
 2774TIP3   OH229812   1.356   3.219  15.270  0.5239 -0.0576 -0.4100
 2774TIP3    H129813   1.282   3.270  15.304  1.8627  1.1059  0.8018
 2774TIP3    H229814   1.385   3.166  15.344  1.8824  0.6610 -0.4103
 2775TIP3   OH229815   0.197   4.058  15.025  0.5345 -0.0445 -0.2639
 2775TIP3    H129816   0.283   4.040  14.987 -0.0776 -0.7981 -1.3094
 2775TIP3    H229817   0.214   4.127  15.089  1.5773  1.3677 -1.9828
 2776TIP3   OH229818   0.598   0.837   1.500  0.0943  0.0028 -0.3859
 2776TIP3    H129819   0.514   0.871   1.531  1.2634  2.1316  0.5612
 2776TIP3    H229820   0.592   0.743   1.514 -2.6126 -0.0409 -1.5360
 2777TIP3   OH229821   2.633   3.328   1.893  0.5446  1.0283 -0.1698
 2777TIP3    H129822   2.546   3.360   1.868  0.9549  0.5950 -2.3023
 2777TIP3    H229823   2.617   3.267   1.965 -0.9279  0.8845 -0.5965
 2778TIP3   OH229824   0.667   0.322  10.775  0.5033 -0.5037  0.8295
 2778TIP3    H129825   0.700   0.233  10.762  0.2440 -0.6764  1.3512
 2778TIP3    H229826   0.741   0.378  10.751 -0.9688 -0.6596 -4.9059
 2779TIP3   OH229827   5.511   3.530  13.516  0.2391  0.2425  0.3305
 2779TIP3    H129828   5.586   3.553  13.461  0.0781  1.0552  0.4438
 2779TIP3    H229829   5.447   3.492  13.456 -0.0916  1.4845 -0.1145
 2780TIP3   OH229830   0.848   3.984   2.129  0.4568 -0.0981  0.2596
 2780TIP3    H129831   0.915   3.975   2.196  2.0525 -2.1062 -1.5142
 2780TIP3    H229832   0.888   3.946   2.050 -2.0121  0.5372 -1.3484
 2781TIP3   OH229833   2.401   3.066   4.244  0.4616  0.0954 -0.3307
 2781TIP3    H129834   2.415   3.099   4.333  1.9258  1.2647 -0.9808
 2781TIP3    H229835   2.452   2.986   4.239 -1.0505 -0.9470  0.4294
 2782TIP3   OH229836   0.166   2.232   1.325  0.0323 -0.0243 -0.0973
 2782TIP3    H129837   0.100   2.282   1.372  0.8932  0.3636  0.7252
 2782TIP3    H229838   0.125   2.146   1.311 -0.4596  0.0507  0.8347
 2783TIP3   OH229839   5.834   1.652   1.390  0.0735 -0.2183 -0.0689
 2783TIP3    H129840   5.754   1.678   1.345  0.2962  0.3778 -0.1291
 2783TIP3    H229841   5.902   1.652   1.322 -0.0549 -1.6527 -0.2142
 2784TIP3   OH229842   2.119   5.448   4.367  0.0811  0.1471 -0.1171
 2784TIP3    H129843   2.075   5.475   4.286  0.6259  1.2483 -0.0472
 2784TIP3    H229844   2.205   5.488   4.362  0.1183  0.2047  1.0108
 2785TIP3   OH229845   2.242   3.239   6.182  0.4596 -0.1823 -0.1026
 2785TIP3    H129846   2.149   3.262   6.179  1.1147  2.6761 -0.0389
 2785TIP3    H229847   2.270   3.240   6.090  1.1299  2.2789  0.0805
 2786TIP3   OH229848   5.054   5.599  11.266 -0.1805 -0.8295 -0.9178
 2786TIP3    H129849   4.988   5.600  11.197 -0.0917 -1.9727 -1.0162
 2786TIP3    H229850   5.035   5.678  11.318 -0.1753  0.0918 -2.2950
 2787TIP3   OH229851   3.497   0.403   1.224  0.1885 -0.4861 -0.2381
 2787TIP3    H129852   3.581   0.416   1.268  0.2028 -3.9874  0.9608
 2787TIP3    H229853   3.452   0.486   1.234  3.1882  1.2282 -0.2125
 2788TIP3   OH229854   0.724   2.868   2.239  0.5353  0.4841  0.2837
 2788TIP3    H129855   0.725   2.921   2.319  0.9058  0.0936  0.5404
 2788TIP3    H229856   0.680   2.787   2.264 -1.2731  1.2112 -0.4616
 2789TIP3   OH229857   4.609   2.751   2.471 -0.6381 -0.5327  0.0306
 2789TIP3    H129858   4.554   2.776   2.396  0.6542  0.7066 -0.5203
 2789TIP3    H229859   4.616   2.656   2.464 -1.6545 -0.5729 -0.6372
 2790TIP3   OH229860   5.904   6.626  14.902  0.0709 -0.0479  0.2593
 2790TIP3    H129861   5.944   6.713  14.894  0.1003  0.0918  1.7736
 2790TIP3    H229862   5.811   6.643  14.918 -0.1091 -0.3174 -0.4976
 2791TIP3   OH229863   6.592   3.855  14.757 -0.2509 -0.2740  0.3089
 2791TIP3    H129864   6.611   3.785  14.694 -0.8079  0.4759 -0.7167
 2791TIP3    H229865   6.660   3.921  14.740 -1.5941  0.8138 -0.8888
 2792TIP3   OH229866   2.278   1.192   5.035  0.0892  0.2408  0.5457
 2792TIP3    H129867   2.343   1.138   4.990 -0.4930  1.3963 -1.7521
 2792TIP3    H229868   2.209   1.130   5.059  1.3697 -0.7520  1.8131
 2793TIP3   OH229869   2.248   2.175  17.105 -0.0421  0.0264  0.3046
 2793TIP3    H129870   2.312   2.247  17.103 -1.0063  0.9182  1.1101
 2793TIP3    H229871   2.229   2.162  17.198 -2.7021  1.2948 -0.0204
 2794TIP3   OH229872   1.656   4.315  17.023  0.6475  0.2456  0.2750
 2794TIP3    H129873   1.594   4.384  16.999  0.1311  0.0169  0.9412
 2794TIP3    H229874   1.608   4.260  17.085  0.8904 -0.9838 -0.5994
 2795TIP3   OH229875   4.965   4.048   4.802  0.2754 -0.0523 -0.3299
 2795TIP3    H129876   4.963   3.997   4.883 -1.3867 -0.3025 -0.5149
 2795TIP3    H229877   5.009   3.992   4.738  0.3939 -0.3738  0.0359
 2796TIP3   OH229878   4.425   0.067   5.118  0.2729  0.0725  0.1655
 2796TIP3    H129879   4.420   0.069   5.213  0.5370  0.1966  0.1765
 2796TIP3    H229880   4.498   0.008   5.098 -0.6664 -1.0525  0.0163
 2797TIP3   OH229881   5.131   3.361  12.742 -0.3478  0.1603  0.5699
 2797TIP3    H129882   5.110   3.366  12.648  0.6109 -2.0416  0.2119
 2797TIP3    H229883   5.047   3.341  12.783 -0.1871 -2.1838 -0.1837
 2798TIP3   OH229884   3.109   6.329   1.038 -0.0115  0.4899 -0.5110
 2798TIP3    H129885   3.016   6.314   1.053  0.3298 -0.6966  0.5188
 2798TIP3    H229886   3.121   6.423   1.050 -0.9397  0.5294  0.1594
 2799TIP3   OH229887   0.426   3.444   5.588  0.2308  0.2625 -0.0489
 2799TIP3    H129888   0.366   3.412   5.655 -0.4738 -1.5752 -1.5119
 2799TIP3    H229889   0.401   3.535   5.575 -1.9456 -0.3496 -0.3029
 2800TIP3   OH229890   5.362   1.249   3.889  0.0956 -0.1222 -0.0725
 2800TIP3    H129891   5.374   1.191   3.964 -0.3468  0.0944  0.1660
 2800TIP3    H229892   5.452   1.273   3.863  0.2366  0.3057  0.7850
 2801TIP3   OH229893   2.861   5.792  16.750  0.2786  0.0719 -0.3370
 2801TIP3    H129894   2.852   5.776  16.844 -1.1933  4.1092  0.3319
 2801TIP3    H229895   2.954   5.781  16.732  1.1692  2.5257  2.3650
 2802TIP3   OH229896   1.496   5.982   2.995 -0.0313  0.0411  0.8044
 2802TIP3    H129897   1.458   5.901   3.032  1.0598  0.1483  2.2137
 2802TIP3    H229898   1.527   5.956   2.908 -2.1036 -0.3788  0.1628
 2803TIP3   OH229899   2.005   1.697   1.841  0.0561 -0.2801 -0.4530
 2803TIP3    H129900   2.013   1.672   1.933 -0.5665 -0.2082 -0.3755
 2803TIP3    H229901   1.968   1.619   1.799  0.0878 -0.2173 -0.5957
 2804TIP3   OH229902   5.132   1.544  17.127 -0.1392 -0.1403 -0.4234
 2804TIP3    H129903   5.210   1.520  17.075 -0.7949 -0.8315 -1.1019
 2804TIP3    H229904   5.137   1.488  17.204  0.6633  0.6591  0.1289
 2805TIP3   OH229905   5.062   6.105  11.142 -0.2486  0.0954 -0.7903
 2805TIP3    H129906   5.060   6.163  11.218 -2.4439 -0.6790 -0.2328
 2805TIP3    H229907   5.150   6.068  11.143 -0.2102  0.1796  1.3201
 2806TIP3   OH229908   4.753   1.428  11.415 -0.6806  0.7887  0.1036
 2806TIP3    H129909   4.783   1.344  11.451 -0.1444  1.7183  1.9183
 2806TIP3    H229910   4.745   1.413  11.321 -2.3031 -1.8068  0.6188
 2807TIP3   OH229911   4.348   2.441   4.297  0.0032 -0.0031 -0.0748
 2807TIP3    H129912   4.312   2.361   4.258 -0.5690  0.1232  0.1846
 2807TIP3    H229913   4.412   2.472   4.233 -0.3075 -0.2669 -0.5184
 2808TIP3   OH229914   3.399   4.383   1.558  0.1752  0.2099 -0.3324
 2808TIP3    H129915   3.357   4.370   1.643 -3.1263 -0.9928 -2.0803
 2808TIP3    H229916   3.434   4.296   1.535  2.2631  0.8314  0.3464
 2809TIP3   OH229917   5.227   5.983   2.551 -0.2561  0.3978 -1.0159
 2809TIP3    H129918   5.211   5.974   2.645 -2.4695  1.3526 -1.2734
 2809TIP3    H229919   5.143   5.960   2.510  0.8599 -0.6104 -2.8030
 2810TIP3   OH229920   6.552   0.781   0.110  0.1478  0.3035 -0.1607
 2810TIP3    H129921   6.512   0.723   0.174  0.6865  0.0693 -0.0339
 2810TIP3    H229922   6.639   0.744   0.095  0.5886  1.2107  0.0981
 2811TIP3   OH229923   2.379   2.324   0.126  0.1846 -0.4188 -0.1303
 2811TIP3    H129924   2.420   2.377   0.058 -0.1208  0.5938  0.4652
 2811TIP3    H229925   2.451   2.271   0.162  0.5559 -0.1660 -0.5006
 2812TIP3   OH229926   1.982   0.828   3.646 -0.3325 -0.3453  0.5531
 2812TIP3    H129927   1.966   0.738   3.618 -0.4258  0.0238 -0.6026
 2812TIP3    H229928   2.027   0.820   3.730 -0.1875 -1.4702  0.3655
 2813TIP3   OH229929   4.186   4.009   5.330  1.0208 -0.3492  0.1964
 2813TIP3    H129930   4.146   4.034   5.247  1.1088 -0.0457  0.2434
 2813TIP3    H229931   4.115   3.968   5.380  0.6377  0.6282  0.4700
 2814TIP3   OH229932   5.660   2.579   5.521  0.3393  0.1336  0.3036
 2814TIP3    H129933   5.708   2.634   5.582 -1.5874  0.8236  1.2686
 2814TIP3    H229934   5.572   2.573   5.559 -0.2670 -1.2861 -1.2491
 2815TIP3   OH229935   3.731   4.913   0.861  0.2377  0.5001  0.0150
 2815TIP3    H129936   3.770   4.999   0.876 -0.4135  0.6804  0.6883
 2815TIP3    H229937   3.696   4.887   0.946 -1.5669  0.5737 -0.6977
 2816TIP3   OH229938   3.776   2.377   0.733 -0.2108  0.3134 -0.6414
 2816TIP3    H129939   3.853   2.430   0.713  0.2866 -0.1629 -0.0380
 2816TIP3    H229940   3.811   2.302   0.782 -1.2009  0.6566  0.6110
 2817TIP3   OH229941   4.131   4.437  15.865  0.8267 -0.6038 -0.0245
 2817TIP3    H129942   4.095   4.517  15.828 -1.9298 -1.6594  0.2109
 2817TIP3    H229943   4.173   4.393  15.791  0.8398  0.2310 -0.5139
 2818TIP3   OH229944   6.764   3.193   2.283 -0.3105 -0.2057  0.2171
 2818TIP3    H129945   6.699   3.262   2.273 -1.7536 -1.6417 -0.6430
 2818TIP3    H229946   6.754   3.163   2.373  0.8691  1.2164  0.8392
 2819TIP3   OH229947   2.809   0.952  11.894  0.0614 -0.6661  0.7031
 2819TIP3    H129948   2.894   0.908  11.897  1.1519  1.1308 -1.6192
 2819TIP3    H229949   2.759   0.903  11.829  0.4736  0.1104 -0.2236
 2820TIP3   OH229950   0.257   0.297   2.857  0.1719 -0.7112 -0.2717
 2820TIP3    H129951   0.240   0.271   2.766  0.5923 -2.7604  0.2129
 2820TIP3    H229952   0.177   0.342   2.884  0.1162  0.0764 -1.7078
 2821TIP3   OH229953   0.061   3.862  11.942  0.2369  0.3028  0.0695
 2821TIP3    H129954  -0.029   3.894  11.941  0.7883  1.9074 -1.1354
 2821TIP3    H229955   0.064   3.796  11.873  0.2759  1.1352 -0.7356
 2822TIP3   OH229956   1.443   6.492   0.849 -0.1863 -0.1395 -0.2838
 2822TIP3    H129957   1.517   6.544   0.880 -1.1093  1.4642 -0.7296
 2822TIP3    H229958   1.468   6.401   0.867  1.5727  0.4338  0.2210
 2823TIP3   OH229959   3.895   4.721  11.152 -0.4846  0.2165 -0.1990
 2823TIP3    H129960   3.953   4.650  11.125 -2.9010 -1.8723 -0.1168
 2823TIP3    H229961   3.880   4.772  11.072  1.3259  0.7178 -0.2418
 2824TIP3   OH229962   2.223   1.828  15.627  0.5723  0.2446  0.0655
 2824TIP3    H129963   2.136   1.834  15.668  0.7055 -0.1643  0.4135
 2824TIP3    H229964   2.211   1.868  15.540 -0.1153 -0.3486 -0.1199
 2825TIP3   OH229965   6.454   3.560  14.659 -0.2916 -0.2751  0.4765
 2825TIP3    H129966   6.467   3.466  14.652  1.0843 -0.1632  1.2862
 2825TIP3    H229967   6.542   3.597  14.648 -0.7352  0.8829  0.7206
 2826TIP3   OH229968   0.274   5.809  13.338  0.4652 -0.0051  0.1543
 2826TIP3    H129969   0.341   5.794  13.271  0.9585 -0.4522  0.7452
 2826TIP3    H229970   0.255   5.723  13.373  0.2431  0.2374  0.6303
 2827TIP3   OH229971   1.493   0.719   4.298  0.4779 -0.3801  0.4253
 2827TIP3    H129972   1.553   0.702   4.371 -0.2062 -1.3073  0.7706
 2827TIP3    H229973   1.474   0.633   4.261 -0.0218 -0.0148 -0.1818
 2828TIP3   OH229974   3.922   1.251  16.482  0.4152  0.0152  0.0123
 2828TIP3    H129975   4.001   1.278  16.437  0.7167 -2.0197 -0.7551
 2828TIP3    H229976   3.863   1.222  16.412  1.2512 -4.0894  0.8663
 2829TIP3   OH229977   3.534   5.679   1.573  0.3716 -0.8247  0.5272
 2829TIP3    H129978   3.587   5.723   1.640  0.2867  1.0726 -0.6037
 2829TIP3    H229979   3.578   5.700   1.491 -1.3079 -0.4685 -0.2978
 2830TIP3   OH229980   1.302   2.240   6.620  0.1310 -0.3074  0.4393
 2830TIP3    H129981   1.389   2.266   6.589 -0.6666 -1.0509 -2.5904
 2830TIP3    H229982   1.292   2.150   6.591 -1.2187 -0.6152  1.7980
 2831TIP3   OH229983   3.662   2.010   6.599  0.2662  0.1011  0.3232
 2831TIP3    H129984   3.698   1.972   6.519 -2.1854 -0.5325 -0.5456
 2831TIP3    H229985   3.575   1.970   6.607 -1.5599  3.9014  0.5747
 2832TIP3   OH229986   1.937   6.631  15.335 -0.2368  0.3171  0.2067
 2832TIP3    H129987   1.982   6.546  15.341 -0.5381  0.0133 -1.6236
 2832TIP3    H229988   1.847   6.613  15.363 -1.0511 -0.6105 -2.8084
 2833TIP3   OH229989   5.512   1.553   3.608 -0.1954  0.2469 -0.1778
 2833TIP3    H129990   5.594   1.592   3.638 -1.6612  1.7243  2.0596
 2833TIP3    H229991   5.525   1.537   3.515  1.2724  4.1193 -0.7123
 2834TIP3   OH229992   5.708   5.668  13.218  0.1861 -0.1575  0.2047
 2834TIP3    H129993   5.634   5.662  13.157 -0.1828 -0.1030  0.6445
 2834TIP3    H229994   5.677   5.726  13.288  0.4499 -0.5661  0.6655
 2835TIP3   OH229995   2.097   4.506   1.812 -0.0260  0.3527  0.3341
 2835TIP3    H129996   2.191   4.517   1.794 -0.3544  2.9613 -0.0576
 2835TIP3    H229997   2.059   4.485   1.726  0.3394 -1.9146  0.7090
 2836TIP3   OH229998   2.727   4.545   3.127  0.3825 -0.5062 -0.0142
 2836TIP3    H129999   2.758   4.636   3.134  0.3782 -0.4148 -1.0602
 2836TIP3    H230000   2.794   4.501   3.075 -0.2035 -0.8140 -0.5135
 2837TIP3   OH230001   2.735   4.387  16.551  0.3748  0.0690 -0.5719
 2837TIP3    H130002   2.749   4.293  16.562 -0.2134  0.1507  1.0313
 2837TIP3    H230003   2.806   4.428  16.601 -0.1289  0.4677 -0.1758
 2838TIP3   OH230004   4.862   5.158  16.780  0.1629 -0.0943  0.0431
 2838TIP3    H130005   4.854   5.215  16.704  0.9926  0.2172  0.1764
 2838TIP3    H230006   4.949   5.178  16.815 -1.0897  1.4680  2.4388
 2839TIP3   OH230007   3.116   2.821  15.262 -0.2477  0.0381 -0.5262
 2839TIP3    H130008   3.046   2.837  15.325  0.0382 -0.4660 -0.0786
 2839TIP3    H230009   3.192   2.798  15.315 -0.7274 -3.1783 -1.1355
 2840TIP3   OH230010   3.577   5.371   3.573 -0.6220  0.4493 -0.1783
 2840TIP3    H130011   3.558   5.324   3.654  0.3631  0.2422 -0.0641
 2840TIP3    H230012   3.602   5.459   3.600 -1.4419  0.7317 -0.3308
 2841TIP3   OH230013   4.518   5.204  11.424 -0.5081  0.3536  0.0104
 2841TIP3    H130014   4.457   5.275  11.447 -1.9544 -1.0186  0.5607
 2841TIP3    H230015   4.587   5.246  11.374 -0.2733  2.5025  2.0767
 2842TIP3   OH230016   6.228   3.838   1.562 -0.6048  0.0241  0.1761
 2842TIP3    H130017   6.220   3.923   1.518 -1.9247  0.8236  1.8996
 2842TIP3    H230018   6.213   3.774   1.492  2.3877  1.1113 -1.5662
 2843TIP3   OH230019   1.561   6.407  12.507  0.3067 -0.5742 -0.1440
 2843TIP3    H130020   1.494   6.450  12.454  0.6206 -1.9053 -1.6605
 2843TIP3    H230021   1.595   6.476  12.564 -1.1772  0.4977 -0.5198
 2844TIP3   OH230022   5.526   0.491   4.846 -0.6016  0.2239 -0.4565
 2844TIP3    H130023   5.614   0.521   4.820 -0.5776  0.4668 -0.1091
 2844TIP3    H230024   5.514   0.408   4.800  0.0289 -0.0789 -0.0822
 2845TIP3   OH230025   3.750   4.250   3.399  0.3637  0.0970  0.7026
 2845TIP3    H130026   3.664   4.230   3.363  1.1419 -0.3651 -0.9471
 2845TIP3    H230027   3.750   4.208   3.486 -1.0553  0.0932  0.7125
 2846TIP3   OH230028   2.012   2.420   5.374  0.0788 -0.3284  0.0420
 2846TIP3    H130029   2.058   2.344   5.409 -1.3166 -0.6335  1.2836
 2846TIP3    H230030   1.933   2.384   5.334 -0.2891  0.4103  0.0987
 2847TIP3   OH230031   4.457   0.537   2.208 -0.3425 -0.4705  0.2387
 2847TIP3    H130032   4.437   0.557   2.117  0.0137 -0.7118  0.1079
 2847TIP3    H230033   4.389   0.583   2.258 -1.4559 -1.5965 -0.2179
 2848TIP3   OH230034   6.809   1.101  16.492  0.2333  0.1589 -0.1417
 2848TIP3    H130035   6.779   1.142  16.410  0.0282 -0.2102 -0.2527
 2848TIP3    H230036   6.744   1.032  16.509  0.1428  0.3887  0.4583
 2849TIP3   OH230037   1.154   1.157   5.783  0.3927  0.2445  0.5391
 2849TIP3    H130038   1.112   1.073   5.766  1.8844 -0.3783 -0.1237
 2849TIP3    H230039   1.243   1.146   5.751  1.4247  1.1414  3.0318
 2850TIP3   OH230040   4.775   0.139  16.538 -0.8551 -0.2768  0.6066
 2850TIP3    H130041   4.843   0.164  16.601 -0.7922 -0.2781  0.5385
 2850TIP3    H230042   4.759   0.046  16.556  0.1165 -0.6175 -0.2682
 2851TIP3   OH230043   6.128   2.820   2.627 -0.2205  0.2876 -0.0936
 2851TIP3    H130044   6.151   2.779   2.543  2.0213  0.8028  0.2389
 2851TIP3    H230045   6.061   2.884   2.604 -1.5194 -1.3630 -1.0875
 2852TIP3   OH230046   4.659   6.178   3.435  0.0900 -0.5679 -0.4440
 2852TIP3    H130047   4.676   6.263   3.477 -0.0321 -0.9136  0.3231
 2852TIP3    H230048   4.745   6.139   3.424  0.0064 -1.2286  1.1092
 2853TIP3   OH230049   1.358   2.403  16.952  0.0768  0.1305 -0.0413
 2853TIP3    H130050   1.308   2.323  16.970  0.0397 -0.3741 -2.2254
 2853TIP3    H230051   1.449   2.379  16.971  0.3088 -1.0401 -2.3361
 2854TIP3   OH230052   2.478   6.367  13.074  0.5038  0.0361  0.0222
 2854TIP3    H130053   2.548   6.316  13.032 -1.5781 -1.9515 -1.1320
 2854TIP3    H230054   2.493   6.355  13.168  2.5302  0.8044 -0.1781
 2855TIP3   OH230055   4.071   5.254  12.345 -0.2480 -0.2962 -0.0508
 2855TIP3    H130056   4.156   5.210  12.349  0.1862  0.2677 -2.4059
 2855TIP3    H230057   4.093   5.347  12.343 -1.0106 -0.0867  0.9155
 2856TIP3   OH230058   0.516   4.449   1.222  0.1602 -0.5673  0.4614
 2856TIP3    H130059   0.457   4.376   1.201 -1.2046  0.3792  0.9223
 2856TIP3    H230060   0.488   4.519   1.163  0.1489  0.2149  1.3872
 2857TIP3   OH230061   2.777   2.582  13.305  0.4190 -0.1385  0.2752
 2857TIP3    H130062   2.686   2.604  13.288  0.5578  0.1120 -0.1369
 2857TIP3    H230063   2.824   2.610  13.227  0.8394 -0.3361  0.4543
 2858TIP3   OH230064   1.953   6.143  14.305 -0.0822 -0.2783 -0.8052
 2858TIP3    H130065   1.941   6.140  14.400 -1.6009 -1.2634 -1.0025
 2858TIP3    H230066   1.913   6.225  14.278 -3.2471 -1.8406 -1.0291
 2859TIP3   OH230067   4.536   6.466   0.096  0.2791  0.0628 -0.0210
 2859TIP3    H130068   4.483   6.536   0.058 -1.7717 -1.6634 -0.4412
 2859TIP3    H230069   4.562   6.499   0.182 -0.9942  1.1741 -0.0478
 2860TIP3   OH230070   0.028   5.581  16.402 -0.0419  0.2519  0.0056
 2860TIP3    H130071  -0.036   5.606  16.469  0.0484 -0.3756  0.3258
 2860TIP3    H230072   0.097   5.536  16.450 -0.4270 -1.0339 -0.6278
 2861TIP3   OH230073   0.952   5.734  16.699 -0.1468 -0.4064  0.1499
 2861TIP3    H130074   1.036   5.763  16.734  0.7410 -1.1633 -1.3206
 2861TIP3    H230075   0.928   5.658  16.753  1.8785 -2.4219 -1.6953
 2862TIP3   OH230076   0.251   1.309  14.264 -0.2230  0.3229  0.0721
 2862TIP3    H130077   0.319   1.375  14.252 -0.1410  0.2702  0.2502
 2862TIP3    H230078   0.169   1.358  14.259 -0.2475  0.1223 -2.0359
 2863TIP3   OH230079   4.752   2.405   1.825 -0.1901  0.0861  0.2438
 2863TIP3    H130080   4.836   2.360   1.817 -0.5313 -0.3668 -0.9556
 2863TIP3    H230081   4.756   2.476   1.761 -1.1217 -0.6045 -0.6052
 2864TIP3   OH230082   0.600   0.396   4.946 -0.4749  0.2415  0.0319
 2864TIP3    H130083   0.535   0.372   5.011 -0.8373 -0.4804 -0.5863
 2864TIP3    H230084   0.645   0.315   4.925  0.5621  0.7209  0.3793
 2865TIP3   OH230085   5.781   5.115  14.040 -0.3160  0.5197 -0.9006
 2865TIP3    H130086   5.836   5.041  14.064  0.2606  1.4242  0.6242
 2865TIP3    H230087   5.835   5.165  13.978 -0.2961  0.2342 -1.1152
 2866TIP3   OH230088   0.922   2.099  11.959  0.2537  0.1555  0.4774
 2866TIP3    H130089   0.941   2.193  11.956 -0.6359  0.3395  0.4976
 2866TIP3    H230090   1.008   2.057  11.955  0.6618  0.9732  0.5604
 2867TIP3   OH230091   5.833   1.996   5.734 -0.1144 -0.3649 -0.1866
 2867TIP3    H130092   5.830   1.984   5.829  0.6204 -1.9747 -0.3581
 2867TIP3    H230093   5.783   1.923   5.699 -0.8009  0.4959 -1.0364
 2868TIP3   OH230094   6.242   4.459   3.195 -0.1757 -0.2239  0.4916
 2868TIP3    H130095   6.264   4.480   3.104 -0.7687 -0.2082  0.3501
 2868TIP3    H230096   6.161   4.409   3.189  0.6161 -1.5630  0.9102
 2869TIP3   OH230097   5.873   3.524  15.776  0.1201  0.4023  0.0965
 2869TIP3    H130098   5.916   3.455  15.826  0.8639  1.2950  0.7094
 2869TIP3    H230099   5.916   3.524  15.691  0.0396  0.0337  0.0578
 2870TIP3   OH230100   5.766   1.121   5.339  0.0119 -0.2716  0.2103
 2870TIP3    H130101   5.685   1.081   5.373  0.4327 -0.4126  1.0587
 2870TIP3    H230102   5.829   1.049   5.339  0.7112  0.3358  1.5277
 2871TIP3   OH230103   2.324   6.484   1.491  0.4204 -0.1736  0.6726
 2871TIP3    H130104   2.320   6.577   1.513  0.2788 -0.5212  2.1251
 2871TIP3    H230105   2.418   6.464   1.486  0.4525  0.2981 -0.7430
 2872TIP3   OH230106   6.235   1.814   3.624  1.0318 -0.6132 -0.7690
 2872TIP3    H130107   6.321   1.782   3.599  0.5961 -1.1953 -1.5714
 2872TIP3    H230108   6.184   1.810   3.543  1.0181  2.3438 -0.9590
 2873TIP3   OH230109   0.361   0.335   4.475  0.7412 -0.0154 -0.1929
 2873TIP3    H130110   0.379   0.294   4.390 -0.4124 -2.4243  0.6777
 2873TIP3    H230111   0.277   0.379   4.463 -0.0837 -1.4755  0.0318
 2874TIP3   OH230112   2.958   3.492   1.560  0.6422 -0.5746  0.1032
 2874TIP3    H130113   3.014   3.453   1.627 -0.1500  0.5869  1.4695
 2874TIP3    H230114   3.007   3.567   1.529  1.7004 -2.0159 -1.7661
 2875TIP3   OH230115   2.898   4.684   5.480  0.3130 -0.0848 -0.0355
 2875TIP3    H130116   2.880   4.651   5.392 -0.5951  1.6163 -0.5108
 2875TIP3    H230117   2.895   4.607   5.536 -0.2576 -1.0127 -1.3367
 2876TIP3   OH230118   4.980   2.548  10.381 -0.0641  0.6639 -0.6753
 2876TIP3    H130119   4.903   2.568  10.328 -0.3436  0.4541 -0.3497
 2876TIP3    H230120   4.973   2.454  10.399  1.7985  0.0050 -3.0871
 2877TIP3   OH230121   6.281   5.736  14.712 -0.7974  0.0980 -0.4154
 2877TIP3    H130122   6.275   5.704  14.802  2.1718 -1.7809 -0.8237
 2877TIP3    H230123   6.304   5.829  14.722 -1.0743  0.0555  0.7495
 2878TIP3   OH230124   1.007   0.942   4.562 -0.4246  0.1313  0.1069
 2878TIP3    H130125   0.960   0.873   4.608  0.4385  0.2080  1.1214
 2878TIP3    H230126   1.063   0.895   4.500 -0.9554 -0.0073 -0.2729
 2879TIP3   OH230127   2.388   4.451   2.078  0.2940 -0.3126  0.2943
 2879TIP3    H130128   2.396   4.489   1.990 -1.7443 -1.2654 -0.3248
 2879TIP3    H230129   2.323   4.382   2.068  0.4934 -0.8226  2.4407
 2880TIP3   OH230130   6.063   1.695  15.346  0.0142  0.1203 -0.3438
 2880TIP3    H130131   6.068   1.770  15.286 -2.1255  0.4187 -0.1945
 2880TIP3    H230132   6.107   1.726  15.425  0.1922  0.8224 -0.7070
 2881TIP3   OH230133   2.782   5.936  15.231  0.0995  0.4185  0.0820
 2881TIP3    H130134   2.711   5.996  15.211  1.3007  1.9739  0.3554
 2881TIP3    H230135   2.851   5.958  15.168  0.7192 -0.3757  0.4719
 2882TIP3   OH230136   5.457   0.774  12.080  0.3135  0.0894 -0.5088
 2882TIP3    H130137   5.402   0.841  12.120  0.0816  0.1213 -0.8706
 2882TIP3    H230138   5.478   0.809  11.993  1.9702  0.6511  0.0952
 2883TIP3   OH230139   1.817   3.005  12.601 -0.0687 -0.0006  0.2260
 2883TIP3    H130140   1.756   2.930  12.604  3.4509 -3.2196 -2.6273
 2883TIP3    H230141   1.876   2.991  12.674  1.1388 -0.5915 -0.8357
 2884TIP3   OH230142   4.012   2.320  16.795 -0.0023  0.4430  0.1406
 2884TIP3    H130143   4.057   2.241  16.824 -0.7649 -0.3088 -0.7092
 2884TIP3    H230144   4.075   2.391  16.812  1.5460 -0.5949 -1.1013
 2885TIP3   OH230145   1.383   2.971   1.248  0.1708 -0.3305 -0.0170
 2885TIP3    H130146   1.400   2.876   1.248  0.3793 -0.2964 -0.4569
 2885TIP3    H230147   1.431   3.004   1.323 -1.3601 -0.8217  1.2262
 2886TIP3   OH230148   2.993   1.567   0.402 -0.3719 -0.4234 -0.1931
 2886TIP3    H130149   2.903   1.585   0.431  0.0984 -0.6555  1.4047
 2886TIP3    H230150   2.981   1.526   0.316 -1.7856 -0.1209 -0.1665
 2887TIP3   OH230151   5.016   6.207  16.355 -0.0018  0.0013  0.2627
 2887TIP3    H130152   5.013   6.120  16.314 -0.6668  0.3913 -0.5359
 2887TIP3    H230153   4.929   6.219  16.393 -0.1999  0.6803 -0.3958
 2888TIP3   OH230154   4.780   0.368  15.790  0.4014 -0.4372  0.1891
 2888TIP3    H130155   4.755   0.446  15.839  0.6437 -0.1358 -0.1636
 2888TIP3    H230156   4.701   0.341  15.744  0.3640 -0.2902  0.1667
 2889TIP3   OH230157   3.284   5.667  16.048 -0.4012  0.6561 -0.0863
 2889TIP3    H130158   3.231   5.631  16.119  1.0876 -1.1119  0.1564
 2889TIP3    H230159   3.273   5.605  15.976 -2.2525  2.6575 -1.6065
 2890TIP3   OH230160   5.570   1.672   1.980  0.4484  0.2811  0.3243
 2890TIP3    H130161   5.567   1.584   1.943 -0.3371  0.8922 -1.1068
 2890TIP3    H230162   5.656   1.677   2.023 -0.2880 -1.8225  2.1108
 2891TIP3   OH230163   6.089   1.320   0.724  0.4118 -0.3994  0.0596
 2891TIP3    H130164   6.172   1.275   0.740  0.9018 -0.1288 -1.6682
 2891TIP3    H230165   6.038   1.259   0.670  0.9430  0.9436 -1.9951
 2892TIP3   OH230166   1.606   3.769   2.564  0.3336  0.2364  0.1092
 2892TIP3    H130167   1.590   3.820   2.643  1.1891 -0.4965  0.7670
 2892TIP3    H230168   1.541   3.698   2.568 -0.2390  0.7302 -0.3292
 2893TIP3   OH230169   0.280   1.792  16.363 -0.1759 -0.6862  0.1192
 2893TIP3    H130170   0.346   1.837  16.415 -0.6546 -0.3127  0.4116
 2893TIP3    H230171   0.278   1.703  16.398 -3.5334  0.6695  3.7112
 2894TIP3   OH230172   0.165   1.090  15.862 -0.2765  0.7466 -0.3798
 2894TIP3    H130173   0.073   1.077  15.883 -0.0783 -0.5047 -0.2731
 2894TIP3    H230174   0.209   1.011  15.893  0.9490  1.6550  0.2503
 2895TIP3   OH230175   4.406   2.829   3.785 -0.0668 -0.4085  0.4870
 2895TIP3    H130176   4.384   2.869   3.701  2.2943  1.6036  0.7695
 2895TIP3    H230177   4.479   2.771   3.766  0.7518  0.3671  1.1979
 2896TIP3   OH230178   3.690   3.758  11.002 -0.4022  0.2994  0.1087
 2896TIP3    H130179   3.773   3.804  11.020 -0.1934  0.2836 -0.7627
 2896TIP3    H230180   3.717   3.681  10.953 -0.8713 -0.0985  0.4832
 2897TIP3   OH230181   0.589   0.795  16.863  0.4801  0.2093  0.2397
 2897TIP3    H130182   0.612   0.703  16.870 -0.0198  0.0788  0.1950
 2897TIP3    H230183   0.568   0.822  16.952  0.0151  0.1150  0.1605
 2898TIP3   OH230184   5.798   3.883  10.622  0.1824 -0.1755  0.1666
 2898TIP3    H130185   5.862   3.952  10.607  3.4387 -3.3315 -0.9816
 2898TIP3    H230186   5.826   3.841  10.703 -1.0555 -0.9554  0.2148
 2899TIP3   OH230187   6.000   4.151  14.148 -0.2468 -0.5552  0.1720
 2899TIP3    H130188   6.046   4.200  14.080 -0.1128 -0.3915  0.3795
 2899TIP3    H230189   6.067   4.131  14.213 -0.3380 -0.8684  0.1687
 2900TIP3   OH230190   1.810   1.837  16.482 -0.5881 -0.0843 -0.7612
 2900TIP3    H130191   1.809   1.760  16.426 -2.0889 -0.3791 -0.3376
 2900TIP3    H230192   1.741   1.822  16.547  0.8674  0.4103  0.9658
 2901TIP3   OH230193   0.920   0.245  12.313  0.7867 -0.5565  0.0471
 2901TIP3    H130194   0.956   0.275  12.396  0.8449  0.5925 -0.3863
 2901TIP3    H230195   0.837   0.293  12.304 -0.8171 -3.0527  0.9645
 2902TIP3   OH230196   2.449   1.930   5.785  0.5974  0.3163  0.3961
 2902TIP3    H130197   2.384   1.863   5.805  1.9293 -0.7797  1.1712
 2902TIP3    H230198   2.497   1.895   5.710  2.3267 -0.3689  1.7814
 2903TIP3   OH230199   5.481   3.030   4.883  0.0490 -0.6662  0.2138
 2903TIP3    H130200   5.504   3.093   4.815  1.9033 -0.5369  0.9285
 2903TIP3    H230201   5.395   3.059   4.914  0.3299  0.7943 -0.3138
 2904TIP3   OH230202   6.563   1.194   5.001 -0.7015  0.4074 -0.0902
 2904TIP3    H130203   6.567   1.263   5.067 -1.8980 -1.9272  2.5531
 2904TIP3    H230204   6.609   1.120   5.042 -3.9257 -2.0094 -0.6875
 2905TIP3   OH230205   3.720   5.591   4.986  0.7342  0.2316  0.2922
 2905TIP3    H130206   3.741   5.677   5.022  0.1898  0.3651  0.2894
 2905TIP3    H230207   3.731   5.531   5.060 -0.5410  0.5254  0.7337
 2906TIP3   OH230208   0.193   2.679   2.736  0.1657 -0.8375 -0.0623
 2906TIP3    H130209   0.212   2.678   2.642  0.8236 -0.5997  0.0609
 2906TIP3    H230210   0.279   2.669   2.778 -0.0024  0.1669  0.5268
 2907TIP3   OH230211   6.800   0.039   4.564  0.1784  0.0726  0.4034
 2907TIP3    H130212   6.716   0.084   4.558  0.6201  0.8968  0.3027
 2907TIP3    H230213   6.850   0.070   4.489  0.3177 -0.9566  0.0624
 2908TIP3   OH230214   4.190   6.707  14.215  0.8161 -0.0782  0.3768
 2908TIP3    H130215   4.166   6.624  14.173 -1.2587  0.0008  1.3648
 2908TIP3    H230216   4.256   6.745  14.156  0.4562 -1.5696 -1.0274
 2909TIP3   OH230217   1.070   5.938   1.841  0.0909  0.5762 -0.0689
 2909TIP3    H130218   1.007   5.907   1.777  0.2128  0.9827 -0.3890
 2909TIP3    H230219   1.155   5.908   1.809 -0.2180 -2.7348  2.0094
 2910TIP3   OH230220   3.077   2.004  14.053 -0.4831 -0.4372 -0.2986
 2910TIP3    H130221   3.166   2.011  14.019 -0.0551  0.2464  0.9348
 2910TIP3    H230222   3.034   2.084  14.023 -1.1864 -1.4960 -2.2576
 2911TIP3   OH230223   2.654   4.107  17.283 -0.4424  0.4734 -0.1154
 2911TIP3    H130224   2.616   4.036  17.230 -0.1853 -1.1373  1.7959
 2911TIP3    H230225   2.745   4.112  17.254 -0.0429 -1.0582  0.7846
 2912TIP3   OH230226   1.859   0.669  12.757  0.6033  0.0257 -0.5080
 2912TIP3    H130227   1.893   0.748  12.715 -1.2290  0.4394 -1.2688
 2912TIP3    H230228   1.821   0.699  12.839  1.4408 -0.3333  0.0184
 2913TIP3   OH230229   3.670   3.602  12.445  0.0258  0.4201  0.4767
 2913TIP3    H130230   3.650   3.587  12.352 -0.2907  1.5208  0.3645
 2913TIP3    H230231   3.744   3.662  12.443 -0.1487  0.6463  0.9440
 2914TIP3   OH230232   4.889   5.224   3.234  0.7300  0.0642 -0.4115
 2914TIP3    H130233   4.931   5.249   3.316 -0.8574  0.2563  0.3634
 2914TIP3    H230234   4.914   5.132   3.221 -0.7452 -0.6305  1.4233
 2915TIP3   OH230235   1.670   2.613  15.610  0.1152  0.0652  0.7217
 2915TIP3    H130236   1.659   2.573  15.696 -0.9039  1.8690  1.4540
 2915TIP3    H230237   1.631   2.550  15.549  0.6799 -1.1450  1.5712
 2916TIP3   OH230238   0.285   1.378   0.753  0.6911  0.1134 -0.3515
 2916TIP3    H130239   0.219   1.442   0.781 -0.5487 -1.2449 -0.1034
 2916TIP3    H230240   0.234   1.302   0.726  2.2259 -1.4306  1.0174
 2917TIP3   OH230241   1.476   3.955   5.088  0.4554 -0.0443 -0.3642
 2917TIP3    H130242   1.531   4.003   5.026  0.8073 -0.3690 -0.3061
 2917TIP3    H230243   1.413   4.020   5.120 -0.2776 -0.0904 -1.7077
 2918TIP3   OH230244   3.118   0.589   5.829 -0.0879 -0.1067 -0.5844
 2918TIP3    H130245   3.188   0.627   5.776  0.8096 -1.3640 -0.3144
 2918TIP3    H230246   3.134   0.495   5.825 -0.4156 -0.2480  1.3733
 2919TIP3   OH230247   3.921   0.915  14.861 -0.1807  0.3415 -0.2803
 2919TIP3    H130248   3.832   0.905  14.894 -0.7041  2.3665 -1.0604
 2919TIP3    H230249   3.918   0.992  14.805  2.3354  1.1443  0.6180
 2920TIP3   OH230250   6.688   0.711   0.764  0.1049 -0.0727  0.2124
 2920TIP3    H130251   6.673   0.678   0.852  0.5722 -1.8713 -0.3709
 2920TIP3    H230252   6.603   0.742   0.734 -0.3662 -0.8712  0.7207
 2921TIP3   OH230253   4.703   1.518  12.786 -0.2234 -0.2654 -0.1666
 2921TIP3    H130254   4.741   1.584  12.727  0.4074  0.5371  1.1236
 2921TIP3    H230255   4.774   1.457  12.803  0.0245  0.3359  0.9566
 2922TIP3   OH230256   2.666   4.224   3.455 -0.1373 -0.6210 -0.2904
 2922TIP3    H130257   2.642   4.220   3.363  1.3058 -0.4191 -0.6840
 2922TIP3    H230258   2.600   4.171   3.499 -1.2919 -0.0734 -1.3406
 2923TIP3   OH230259   3.407   4.374   4.039 -0.4554 -0.0356  0.1094
 2923TIP3    H130260   3.333   4.408   3.989  0.7949  0.8205 -1.2075
 2923TIP3    H230261   3.482   4.382   3.979  0.7803 -0.4982  1.5617
 2924TIP3   OH230262   2.775   0.246   4.661  0.0287  0.4083 -0.3322
 2924TIP3    H130263   2.828   0.314   4.618  0.8148  0.7193  1.1039
 2924TIP3    H230264   2.839   0.190   4.705 -0.6747 -0.7805 -0.8034
 2925TIP3   OH230265   5.491   2.161   5.295  0.1969 -0.3454 -0.0505
 2925TIP3    H130266   5.405   2.130   5.321 -0.4869  1.6523  0.1986
 2925TIP3    H230267   5.552   2.095   5.328 -1.0621 -0.5211  2.0133
 2926TIP3   OH230268   2.602   5.436  10.761  0.2615  0.4583  0.0250
 2926TIP3    H130269   2.668   5.503  10.748  1.1890 -0.8598 -2.3492
 2926TIP3    H230270   2.519   5.480  10.744  0.8124  1.1867 -0.8171
 2927TIP3   OH230271   6.110   5.795   0.862  0.2915 -0.5133  0.1969
 2927TIP3    H130272   6.104   5.707   0.823 -0.7826 -1.2016  1.8534
 2927TIP3    H230273   6.024   5.833   0.846  0.6031  0.0664 -0.0956
 2928TIP3   OH230274   3.156   5.812  13.445 -0.2129  0.8785 -0.4472
 2928TIP3    H130275   3.229   5.865  13.413  0.6838  0.0518  0.1771
 2928TIP3    H230276   3.095   5.875  13.482  0.7270  1.5109  0.0570
 2929TIP3   OH230277   3.615   0.529  14.386  0.3365 -0.4264  0.1897
 2929TIP3    H130278   3.706   0.513  14.411  0.7809  1.6007 -0.0248
 2929TIP3    H230279   3.604   0.481  14.304  0.6381 -2.2237  1.1804
 2930TIP3   OH230280   1.308   3.900  15.313 -0.9037 -0.0027  0.6071
 2930TIP3    H130281   1.380   3.837  15.321 -1.3204 -0.2880  2.2278
 2930TIP3    H230282   1.273   3.886  15.225  0.4203 -0.4986  0.1426
 2931TIP3   OH230283   1.042   6.417   5.741 -0.4492 -0.1514 -0.1023
 2931TIP3    H130284   1.039   6.502   5.698 -0.7599 -0.1039  0.0125
 2931TIP3    H230285   1.097   6.363   5.683 -1.2464 -0.2187 -0.8143
 2932TIP3   OH230286   1.797   2.814   3.011 -0.9283  0.4103 -0.5313
 2932TIP3    H130287   1.855   2.868   3.064 -0.0532 -0.0419 -1.0308
 2932TIP3    H230288   1.717   2.867   3.002 -1.0800  0.4916  1.2142
 2933TIP3   OH230289   6.214   3.832   2.507  0.7160  0.0780 -0.2679
 2933TIP3    H130290   6.297   3.804   2.547  1.2213 -2.1608 -2.7197
 2933TIP3    H230291   6.173   3.751   2.478 -2.0546  1.2362  0.3171
 2934TIP3   OH230292   1.910   6.477   0.868 -0.0797  0.1667  0.0080
 2934TIP3    H130293   1.979   6.530   0.909  0.0374  0.3907 -0.4768
 2934TIP3    H230294   1.933   6.476   0.775  0.6678 -1.8527  0.1955
 2935TIP3   OH230295   2.147   4.009   1.104  0.7387 -0.1785  0.0481
 2935TIP3    H130296   2.235   4.045   1.095  0.3680  0.5988 -0.5560
 2935TIP3    H230297   2.090   4.076   1.066 -0.2372 -0.0543  1.6820
 2936TIP3   OH230298   1.562   2.371  13.950  0.4774  0.3357  0.0048
 2936TIP3    H130299   1.549   2.285  13.910  3.6276  0.5339 -1.6818
 2936TIP3    H230300   1.512   2.431  13.896  1.9223  0.1203 -1.6259
 2937TIP3   OH230301   0.318   1.158   4.272 -0.6395  0.0778  0.2820
 2937TIP3    H130302   0.304   1.106   4.193  0.6249  0.8071 -0.4246
 2937TIP3    H230303   0.389   1.217   4.250 -0.2020  0.2171  2.0122
 2938TIP3   OH230304   4.748   6.508  14.644  0.1719 -0.1137 -0.3458
 2938TIP3    H130305   4.684   6.439  14.628  2.0656 -1.6219 -1.6829
 2938TIP3    H230306   4.829   6.474  14.607  2.0873  1.1745  2.5420
 2939TIP3   OH230307   1.803   1.997   3.514  0.5811 -0.2728  0.1513
 2939TIP3    H130308   1.814   1.978   3.421  3.8946  0.7156  0.2703
 2939TIP3    H230309   1.823   1.915   3.558 -1.3211 -0.8311 -0.0104
 2940TIP3   OH230310   3.442   4.740   5.226  0.2610  0.2847  0.0048
 2940TIP3    H130311   3.446   4.644   5.221  0.5507  0.0959  2.6810
 2940TIP3    H230312   3.400   4.767   5.145  0.5227 -2.0886 -0.9689
 2941TIP3   OH230313   6.460   5.827  12.385 -0.6699 -0.2763 -0.5938
 2941TIP3    H130314   6.372   5.825  12.423  0.1316  2.1309  1.6051
 2941TIP3    H230315   6.508   5.759  12.433 -0.4708  0.7054  0.6410
 2942TIP3   OH230316   6.106   5.882   1.151 -0.2812  0.1102  0.1192
 2942TIP3    H130317   6.158   5.837   1.085  0.1933 -0.2689  0.7515
 2942TIP3    H230318   6.060   5.951   1.102 -1.4385 -1.3828 -0.9670
 2943TIP3   OH230319   2.851   6.250   5.696  0.0668 -0.1894  0.2383
 2943TIP3    H130320   2.932   6.220   5.738  0.4103  1.0960  0.5350
 2943TIP3    H230321   2.880   6.284   5.611 -0.2002  0.0390  0.2389
 2944TIP3   OH230322   4.048   2.918  12.090 -0.3376 -0.3248 -0.3504
 2944TIP3    H130323   4.055   2.834  12.136  1.4474 -0.2365 -0.4140
 2944TIP3    H230324   4.081   2.900  12.002 -1.3378  0.1156 -0.8232
 2945TIP3   OH230325   0.675   5.444   4.366 -0.3795 -0.5251  0.3095
 2945TIP3    H130326   0.652   5.510   4.431 -1.0076 -0.2184 -0.2322
 2945TIP3    H230327   0.631   5.364   4.397 -1.5016 -0.1392 -0.2775
 2946TIP3   OH230328   0.012   0.288   3.054  0.4168  0.3876  0.0864
 2946TIP3    H130329   0.007   0.379   3.026 -2.6877  1.0796  2.5968
 2946TIP3    H230330  -0.080   0.260   3.060  1.2950 -2.7327 -0.1019
 2947TIP3   OH230331   5.441   3.781  13.299  0.0564  0.0987 -0.1990
 2947TIP3    H130332   5.480   3.694  13.307 -1.9113 -0.8465 -0.5131
 2947TIP3    H230333   5.480   3.831  13.371  1.9951 -0.7175 -0.6517
 2948TIP3   OH230334   6.781   3.273   3.935 -0.7460 -0.5885  0.0600
 2948TIP3    H130335   6.850   3.235   3.879  0.4561  1.0258  0.4263
 2948TIP3    H230336   6.766   3.207   4.003 -0.0622 -1.2508 -0.4267
 2949TIP3   OH230337   2.642   2.866   0.016  0.8903  0.3075  0.8648
 2949TIP3    H130338   2.735   2.850  -0.002  0.7632  0.1998  0.2604
 2949TIP3    H230339   2.639   2.952   0.057  1.1257  0.9576 -0.4584
 2950TIP3   OH230340   3.204   0.631   5.188 -0.2994  0.4545  0.1194
 2950TIP3    H130341   3.284   0.579   5.182 -0.0773  0.8619 -0.5930
 2950TIP3    H230342   3.134   0.567   5.206 -0.1530 -0.1997 -1.5488
 2951TIP3   OH230343   4.550   1.697  15.638 -0.3938 -0.2652 -0.8061
 2951TIP3    H130344   4.505   1.742  15.709 -0.4632  0.5145 -1.3409
 2951TIP3    H230345   4.483   1.642  15.598 -0.4888 -0.2940 -0.6048
 2952TIP3   OH230346   1.388   2.271  14.796 -0.6401 -0.3794  0.1297
 2952TIP3    H130347   1.399   2.184  14.834  1.0995  0.4125  1.5272
 2952TIP3    H230348   1.407   2.259  14.703 -0.9530 -1.5880  0.2147
 2953TIP3   OH230349   3.013   5.065  15.821  0.1750 -0.1939  0.8094
 2953TIP3    H130350   3.099   5.034  15.851  0.2982 -0.0430  0.6174
 2953TIP3    H230351   2.961   4.986  15.810  0.3716 -0.3038  0.6747
 2954TIP3   OH230352   0.086   1.497  14.993  0.2108 -0.0246  0.0422
 2954TIP3    H130353   0.014   1.444  15.026 -1.6052  1.4217 -1.4402
 2954TIP3    H230354   0.165   1.453  15.023 -1.2692 -2.4886  0.4345
 2955TIP3   OH230355   5.691   3.181   5.218  0.2530  0.5301  0.0126
 2955TIP3    H130356   5.725   3.270   5.213 -0.2032  0.8144  1.5395
 2955TIP3    H230357   5.597   3.191   5.230 -0.2136 -0.2267 -2.6086
 2956TIP3   OH230358   6.164   4.041  13.421 -0.9117  0.0891  0.5978
 2956TIP3    H130359   6.258   4.038  13.408 -1.1103 -2.1245 -0.7373
 2956TIP3    H230360   6.130   4.085  13.343 -1.0944 -0.8468  0.1330
 2957TIP3   OH230361   4.053   6.609   4.185 -0.3913  0.5025 -0.1215
 2957TIP3    H130362   4.117   6.555   4.138  0.0073  0.3218  0.6261
 2957TIP3    H230363   4.097   6.693   4.195 -0.8126  0.8174 -0.8230
 2958TIP3   OH230364   4.492   2.842   0.005  0.3602  0.2848  0.4156
 2958TIP3    H130365   4.450   2.757   0.014  0.1480  0.5334  2.0243
 2958TIP3    H230366   4.430   2.904   0.045  0.6184  1.1624 -0.5187
 2959TIP3   OH230367   3.494   3.164  15.027  0.6632 -0.6758  0.3550
 2959TIP3    H130368   3.552   3.200  15.095 -1.7676  0.9018  1.6677
 2959TIP3    H230369   3.510   3.220  14.951 -1.1917  1.6022  1.5955
 2960TIP3   OH230370   3.792   4.989  11.997  0.3704  0.1614  0.2433
 2960TIP3    H130371   3.729   5.022  12.060  0.7602  0.5750  0.4218
 2960TIP3    H230372   3.748   4.916  11.954 -0.0616  0.1698  0.6735
 2961TIP3   OH230373   4.796   4.277  12.167 -0.5882  0.2316  0.1288
 2961TIP3    H130374   4.816   4.257  12.076 -0.5502  0.1088  0.1627
 2961TIP3    H230375   4.785   4.372  12.170  0.2703  0.3394  0.1585
 2962TIP3   OH230376   3.536   6.257   0.872  0.3144  0.3266  0.3333
 2962TIP3    H130377   3.445   6.235   0.889  0.7158  0.8010  3.4279
 2962TIP3    H230378   3.583   6.174   0.878  0.3501  0.3847  0.9669
 2963TIP3   OH230379   4.707   0.420  13.493  0.2256  0.0482 -0.2102
 2963TIP3    H130380   4.642   0.484  13.465  0.2159 -0.3314 -1.0897
 2963TIP3    H230381   4.734   0.376  13.412  0.9840 -0.3517  0.2465
 2964TIP3   OH230382   0.697   2.404  12.568  0.5249  0.2216 -0.1131
 2964TIP3    H130383   0.792   2.394  12.574  0.5678 -0.5404 -1.6603
 2964TIP3    H230384   0.679   2.399  12.474 -1.1309 -0.4259  0.2254
 2965TIP3   OH230385   5.754   3.033  14.539 -0.1012 -0.0301 -0.0265
 2965TIP3    H130386   5.821   3.101  14.546 -0.1671 -0.0919  1.3810
 2965TIP3    H230387   5.715   3.029  14.626 -1.7661 -0.1817 -0.7590
 2966TIP3   OH230388   6.575   3.615  15.251 -0.2985  0.2252  0.0463
 2966TIP3    H130389   6.629   3.633  15.328  1.3723  0.7591 -1.2225
 2966TIP3    H230390   6.567   3.520  15.249  1.8624  0.0311 -0.5692
 2967TIP3   OH230391   0.333   6.489  10.754  0.5671 -0.2339  0.1733
 2967TIP3    H130392   0.258   6.535  10.716 -0.6496 -0.7893  1.8694
 2967TIP3    H230393   0.409   6.530  10.712 -0.6696  0.0495 -1.8901
 2968TIP3   OH230394   1.532   6.812   3.454  0.5732 -0.4342  0.1113
 2968TIP3    H130395   1.450   6.780   3.490  0.0724  0.9580  0.2533
 2968TIP3    H230396   1.511   6.835   3.363  0.8568 -0.2742  0.0862
 2969TIP3   OH230397   6.611   6.342   4.137  0.6738  0.6422 -0.2063
 2969TIP3    H130398   6.652   6.382   4.061 -0.3971  0.0807 -1.0851
 2969TIP3    H230399   6.528   6.388   4.147  0.4174  0.1227  0.0938
 2970TIP3   OH230400   1.400   2.862   4.070  0.2227  0.9481  0.0640
 2970TIP3    H130401   1.323   2.915   4.091  0.0544  0.4511  0.7342
 2970TIP3    H230402   1.365   2.781   4.035  0.3747  0.0867  1.8440
 2971TIP3   OH230403   0.738   0.367  17.281  0.3151  0.8501 -0.4314
 2971TIP3    H130404   0.756   0.294  17.340 -0.3093  0.6920 -0.4384
 2971TIP3    H230405   0.816   0.371  17.225  0.3455  0.1794 -0.4449
 2972TIP3   OH230406   0.451   0.263   1.796  0.2905  0.1669 -0.3179
 2972TIP3    H130407   0.366   0.295   1.765  0.0986  0.2810  0.3210
 2972TIP3    H230408   0.436   0.240   1.888 -0.4669 -4.8597 -1.5564
 2973TIP3   OH230409   0.291   5.143   3.765  0.2836 -0.5119 -0.2611
 2973TIP3    H130410   0.350   5.127   3.839  1.0470 -0.4737 -0.8564
 2973TIP3    H230411   0.340   5.115   3.689 -0.1698  0.2694 -0.8466
 2974TIP3   OH230412   3.712   2.817  14.263 -0.3148 -0.2059  0.6734
 2974TIP3    H130413   3.665   2.766  14.196 -0.5545 -0.2111  0.8440
 2974TIP3    H230414   3.754   2.888  14.214 -3.0207  1.6309  0.8753
 2975TIP3   OH230415   1.544   2.245   2.291 -0.6017  0.2949  0.3285
 2975TIP3    H130416   1.558   2.339   2.294  0.7936  0.0878  0.5258
 2975TIP3    H230417   1.617   2.211   2.240 -0.1618 -0.8513  1.6758
 2976TIP3   OH230418   3.769   5.291  14.599 -1.0063 -0.6524  0.1766
 2976TIP3    H130419   3.676   5.269  14.590 -1.0756 -0.4270  0.3083
 2976TIP3    H230420   3.791   5.336  14.518 -1.5679  1.1739  1.0005
 2977TIP3   OH230421   0.796   0.795  11.443 -0.5118 -1.1863 -0.1345
 2977TIP3    H130422   0.878   0.843  11.457 -0.8324 -0.3839 -0.9264
 2977TIP3    H230423   0.785   0.792  11.348 -0.7485 -2.4261 -0.0786
 2978TIP3   OH230424   3.823   6.209  13.232 -0.1814 -0.1941  0.0250
 2978TIP3    H130425   3.809   6.126  13.278  0.5473 -0.9457 -1.0888
 2978TIP3    H230426   3.906   6.242  13.267  0.2310 -0.6271 -0.5377
 2979TIP3   OH230427   1.399   4.152  11.440 -0.8698  0.7010 -1.0131
 2979TIP3    H130428   1.422   4.091  11.370  0.1761 -0.1815  0.0813
 2979TIP3    H230429   1.468   4.219  11.438  0.3132 -0.4457  0.4866
 2980TIP3   OH230430   0.690   4.310   1.373  0.1398 -0.5043  0.0360
 2980TIP3    H130431   0.634   4.378   1.334  1.9545  0.2089 -1.3955
 2980TIP3    H230432   0.631   4.236   1.387 -1.6492  0.9673  0.6179
 2981TIP3   OH230433   5.168   1.427   3.959  0.2517 -0.2812 -0.4314
 2981TIP3    H130434   5.222   1.351   3.934  0.7315 -0.7675  1.9365
 2981TIP3    H230435   5.085   1.388   3.985 -0.3508  0.2398 -1.5820
 2982TIP3   OH230436   1.653   2.382   3.255  0.1929 -0.0314  0.5122
 2982TIP3    H130437   1.697   2.463   3.230  0.4804  0.4432  2.4687
 2982TIP3    H230438   1.716   2.313   3.237  0.0035  0.1750 -1.0199
 2983TIP3   OH230439   0.879   1.109  13.029 -0.0573  0.5664  0.0658
 2983TIP3    H130440   0.848   1.089  12.941 -0.9920  0.5390  0.3942
 2983TIP3    H230441   0.973   1.126  13.018 -0.0698  0.0865 -0.8523
 2984TIP3   OH230442   2.768   4.853  17.004  0.4086  1.1474 -0.2008
 2984TIP3    H130443   2.784   4.908  16.927 -0.2470  1.0131 -0.4293
 2984TIP3    H230444   2.685   4.884  17.039 -0.2472 -0.0894 -0.6590
 2985TIP3   OH230445   3.976   2.116  11.873  0.6070  0.3732  0.1144
 2985TIP3    H130446   3.895   2.127  11.924 -0.3160  2.6974 -1.7781
 2985TIP3    H230447   4.023   2.046  11.919 -2.4138 -0.9680  1.3435
 2986TIP3   OH230448   2.478   0.148   2.009  0.2441 -0.5328  0.9251
 2986TIP3    H130449   2.405   0.187   2.056 -0.8310 -1.0069 -0.3347
 2986TIP3    H230450   2.555   0.173   2.060 -0.4324  2.9673  0.2999
 2987TIP3   OH230451   5.507   4.957   5.247  0.1256 -0.4454 -0.0804
 2987TIP3    H130452   5.441   4.940   5.314  0.1916 -1.0038 -0.1536
 2987TIP3    H230453   5.582   4.903   5.272  0.2273 -0.4984 -0.4870
 2988TIP3   OH230454   5.548   6.466   2.993  0.2071  0.1445 -0.0915
 2988TIP3    H130455   5.463   6.507   3.013 -0.0811 -0.1204 -0.7519
 2988TIP3    H230456   5.533   6.421   2.910  0.7045 -0.7645  0.3110
 2989TIP3   OH230457   5.087   4.788   4.435 -0.0509 -0.3836 -0.0517
 2989TIP3    H130458   5.152   4.771   4.504 -0.5942  0.1912  0.5967
 2989TIP3    H230459   5.007   4.810   4.482 -0.7840 -1.2960 -0.8521
 2990TIP3   OH230460   5.456   1.304   0.838  0.2119 -0.1542 -0.4158
 2990TIP3    H130461   5.507   1.259   0.771 -0.8574  0.3169 -1.5679
 2990TIP3    H230462   5.516   1.371   0.872  0.7737 -0.4158 -0.8790
 2991TIP3   OH230463   4.541   2.816   2.974  0.1796  0.0384 -0.1457
 2991TIP3    H130464   4.587   2.900   2.984 -0.5602  0.5991 -1.3289
 2991TIP3    H230465   4.492   2.805   3.056  1.9229 -0.2727  0.8800
 2992TIP3   OH230466   5.939   3.202  15.148 -0.1081  0.0114  0.3485
 2992TIP3    H130467   5.930   3.230  15.239 -0.9841 -1.7828  0.8384
 2992TIP3    H230468   5.857   3.156  15.129  0.1212  0.2687 -1.3193
 2993TIP3   OH230469   0.808   3.205  17.191  0.5256  0.3509 -0.2353
 2993TIP3    H130470   0.736   3.157  17.151  0.1270  0.7572 -0.0151
 2993TIP3    H230471   0.861   3.236  17.118  1.3958 -1.3614 -0.3348
 2994TIP3   OH230472   2.599   3.136  13.345 -0.0999  0.0039  0.0607
 2994TIP3    H130473   2.562   3.142  13.257  0.5877  1.6906 -0.1253
 2994TIP3    H230474   2.523   3.142  13.404 -0.7923 -3.1001 -0.4023
 2995TIP3   OH230475   1.584   2.245   3.851  0.2671  0.1647  0.4326
 2995TIP3    H130476   1.542   2.199   3.778  0.6195  1.9192 -0.8942
 2995TIP3    H230477   1.678   2.228   3.838  0.2998  0.1261  0.7288
 2996TIP3   OH230478   4.233   2.694   2.561  0.0167  0.0163  0.7332
 2996TIP3    H130479   4.265   2.768   2.613  1.1502  0.3584 -0.4216
 2996TIP3    H230480   4.201   2.734   2.480  0.1505 -0.7082  0.3224
 2997TIP3   OH230481   3.140   2.721  14.786  0.3604 -0.2307 -0.3736
 2997TIP3    H130482   3.145   2.717  14.881  0.1638  1.0808 -0.2944
 2997TIP3    H230483   3.152   2.631  14.757  0.1921 -0.6692  0.9038
 2998TIP3   OH230484   3.044   4.797  17.013  0.3125  0.2809  0.1208
 2998TIP3    H130485   2.949   4.789  17.004  0.4394  0.6917 -1.8240
 2998TIP3    H230486   3.059   4.803  17.107 -1.4281 -1.6831  0.5710
 2999TIP3   OH230487   3.051   6.330  10.728 -0.2049  0.6737  0.1472
 2999TIP3    H130488   3.007   6.266  10.785  0.5803 -2.1719 -2.3161
 2999TIP3    H230489   3.122   6.365  10.782 -0.8244 -0.3235  1.6405
 3000TIP3   OH230490   2.214   5.280   5.504 -0.0178  0.3738  0.0866
 3000TIP3    H130491   2.184   5.325   5.583  3.0119  0.2444  1.3895
 3000TIP3    H230492   2.253   5.349   5.451 -0.3770  0.1524 -0.4727
 3001TIP3   OH230493   2.553   2.299  10.686  0.0750 -0.0448 -0.1568
 3001TIP3    H130494   2.601   2.257  10.614  0.2411  0.2944 -0.2429
 3001TIP3    H230495   2.475   2.336  10.644 -0.8894 -1.6581  0.1822
 3002TIP3   OH230496   2.867   6.145  16.420 -0.7448  0.5570  0.3521
 3002TIP3    H130497   2.895   6.234  16.398 -0.2314  0.5557  0.9595
 3002TIP3    H230498   2.843   6.150  16.513  1.0211 -0.3424  0.8777
 3003TIP3   OH230499   5.830   3.822  12.723 -0.1788 -0.4269  0.0933
 3003TIP3    H130500   5.894   3.779  12.780 -1.5587 -2.1149  0.4206
 3003TIP3    H230501   5.810   3.756  12.657 -1.3427  0.2005 -0.1807
 3004TIP3   OH230502   4.381   3.132  13.414 -0.1660 -0.2266 -0.0279
 3004TIP3    H130503   4.421   3.198  13.357 -1.8716 -0.9363 -2.0725
 3004TIP3    H230504   4.433   3.053  13.400 -1.1674 -0.6635 -1.3503
 3005TIP3   OH230505   0.364   5.541   0.381  0.6900  0.7608 -0.0743
 3005TIP3    H130506   0.310   5.582   0.448 -1.8888 -0.3643 -1.3580
 3005TIP3    H230507   0.435   5.603   0.365  0.3749  1.8061  2.4176
 3006TIP3   OH230508   0.286   2.787   2.137  0.3335  0.3781 -0.0537
 3006TIP3    H130509   0.200   2.824   2.156  0.3720 -0.3614  1.6551
 3006TIP3    H230510   0.281   2.697   2.170  1.2994 -0.1113 -1.2271
 3007TIP3   OH230511   0.863   3.163  12.034  0.1088  0.1093  0.6436
 3007TIP3    H130512   0.927   3.120  12.092  0.6238  1.0369  0.7709
 3007TIP3    H230513   0.810   3.216  12.092  1.6525  2.3103  0.1150
 3008TIP3   OH230514   3.536   3.193  10.747  0.0864 -0.3916 -0.2407
 3008TIP3    H130515   3.445   3.168  10.764  0.7068 -0.1575  3.8167
 3008TIP3    H230516   3.586   3.114  10.765  0.9375  0.3369  0.6491
 3009TIP3   OH230517   2.383   4.874   4.926  0.0652 -0.0698  0.0435
 3009TIP3    H130518   2.309   4.851   4.983 -1.1017 -0.4439 -1.5818
 3009TIP3    H230519   2.345   4.878   4.838  1.7916  0.7137 -0.6898
 3010TIP3   OH230520   5.896   3.259  14.130  1.2545  0.1043  0.1571
 3010TIP3    H130521   5.857   3.225  14.210  1.2980  0.5233  0.3594
 3010TIP3    H230522   5.855   3.209  14.059  0.9869 -0.0480  0.4231
 3011TIP3   OH230523   1.182   0.377  14.949  0.4871 -0.1307 -0.3479
 3011TIP3    H130524   1.225   0.339  15.026  0.3304  0.9899  0.3160
 3011TIP3    H230525   1.230   0.341  14.875  2.4402  0.8743  0.3683
 3012TIP3   OH230526   2.484   3.968   3.922  0.5775  0.2562  0.1517
 3012TIP3    H130527   2.549   3.897   3.918 -0.6582 -0.8857 -0.2886
 3012TIP3    H230528   2.405   3.929   3.885 -0.2176  1.7836  0.2242
 3013TIP3   OH230529   1.300   0.542  13.862  0.2639 -0.1926 -0.2156
 3013TIP3    H130530   1.297   0.479  13.791 -0.9937 -0.5861  0.1684
 3013TIP3    H230531   1.245   0.504  13.931 -0.3865  1.2386  0.0784
 3014TIP3   OH230532   6.036   3.183   4.516 -0.5245 -0.4640 -0.3661
 3014TIP3    H130533   6.007   3.179   4.607 -0.3224 -0.2495 -0.2907
 3014TIP3    H230534   6.109   3.245   4.517 -1.4214  0.6265 -0.9174
 3015TIP3   OH230535   1.801   4.068   4.729 -0.4687  0.0756  0.0532
 3015TIP3    H130536   1.775   4.146   4.680 -0.1695  1.5082  2.1010
 3015TIP3    H230537   1.897   4.066   4.721 -0.3965  0.4694  0.7922
 3016TIP3   OH230538   1.550   4.757  15.576  0.3651 -0.3625 -0.5521
 3016TIP3    H130539   1.486   4.725  15.640 -0.1531 -0.2455 -1.0006
 3016TIP3    H230540   1.612   4.808  15.628  0.2779 -0.7479 -0.0633
 3017TIP3   OH230541   4.564   6.459   1.675 -0.2219 -0.0268  0.1635
 3017TIP3    H130542   4.525   6.546   1.662  1.2477  0.8594  1.5604
 3017TIP3    H230543   4.658   6.476   1.680  0.1499 -1.8201 -0.4273
 3018TIP3   OH230544   0.089   5.311  16.209 -0.0754 -0.4921  0.7959
 3018TIP3    H130545   0.134   5.272  16.135  1.1707  0.5707  0.9847
 3018TIP3    H230546   0.061   5.237  16.263 -1.2447 -1.2806 -0.8671
 3019TIP3   OH230547   2.021   2.356   2.097 -0.1950  0.0691 -0.0776
 3019TIP3    H130548   2.007   2.262   2.106  1.7846 -0.3800 -1.2147
 3019TIP3    H230549   1.996   2.393   2.181 -1.0498 -1.4626  0.3511
 3020TIP3   OH230550   6.333   5.039  15.613 -0.7186  0.3871  0.2011
 3020TIP3    H130551   6.307   5.124  15.651  0.4633  1.0116 -0.3621
 3020TIP3    H230552   6.415   5.018  15.658 -0.4202  0.0940 -0.4916
 3021TIP3   OH230553   2.278   3.822  10.998 -0.2769 -0.1526  0.4919
 3021TIP3    H130554   2.185   3.809  11.016 -0.1838 -0.7263  0.5728
 3021TIP3    H230555   2.281   3.892  10.933 -0.7534  0.0253  0.6640
 3022TIP3   OH230556   4.373   6.529  13.277  0.2259  0.2353 -0.3377
 3022TIP3    H130557   4.374   6.436  13.254 -0.0770  0.1577 -0.0288
 3022TIP3    H230558   4.465   6.556  13.268  0.2672 -0.0215 -0.7164
 3023TIP3   OH230559   4.048   2.423   2.974 -0.0822  0.5836  0.2245
 3023TIP3    H130560   4.139   2.426   3.003  0.1490 -3.5403  0.1091
 3023TIP3    H230561   4.035   2.506   2.927  3.3992  1.4979  0.7751
 3024TIP3   OH230562   1.707   0.000   5.961 -0.0791  0.5992  0.1604
 3024TIP3    H130563   1.716  -0.043   5.876 -0.7358  0.8948 -0.0665
 3024TIP3    H230564   1.616   0.031   5.962 -0.6276 -0.9864  1.7257
 3025TIP3   OH230565   0.055   0.492   5.474 -0.8504 -0.2461  0.5430
 3025TIP3    H130566   0.079   0.423   5.412 -3.3646  0.5826 -1.4513
 3025TIP3    H230567   0.118   0.563   5.458 -0.8035 -0.4794 -0.2818
 3026TIP3   OH230568   6.251   3.911  14.851  0.0351  0.0542 -0.1089
 3026TIP3    H130569   6.268   3.883  14.761 -0.6448 -2.9769  0.6502
 3026TIP3    H230570   6.228   4.004  14.843  2.4844  0.5064 -2.7497
 3027TIP3   OH230571   6.422   4.984   2.115  0.1906 -0.0122  0.5129
 3027TIP3    H130572   6.505   5.012   2.153 -0.0428  0.7413  0.4790
 3027TIP3    H230573   6.365   4.968   2.190  0.1163  0.2702  0.5192
 3028TIP3   OH230574   0.630   2.853   4.288 -0.1220  0.4093 -0.8327
 3028TIP3    H130575   0.697   2.853   4.219  0.8743 -0.8912  0.1020
 3028TIP3    H230576   0.681   2.854   4.369 -1.2808  1.1756 -0.1146
 3029TIP3   OH230577   1.812   1.273   1.336 -0.6936  0.1917  0.7945
 3029TIP3    H130578   1.793   1.187   1.374  0.7922  0.5345  2.3494
 3029TIP3    H230579   1.874   1.255   1.266 -2.0440 -0.2383 -0.3027
 3030TIP3   OH230580   5.486   0.415  13.945 -0.2064  0.5995 -0.1382
 3030TIP3    H130581   5.545   0.470  13.895  0.5657  0.0363  0.1389
 3030TIP3    H230582   5.537   0.389  14.022 -0.3664 -0.9113 -0.5153
 3031TIP3   OH230583   0.662   1.890   5.471 -0.3751 -0.1258  0.3557
 3031TIP3    H130584   0.647   1.813   5.417 -0.6564  1.8406 -2.4365
 3031TIP3    H230585   0.583   1.943   5.460 -0.4366  0.3594  2.7058
 3032TIP3   OH230586   0.622   3.166   0.231  0.1411 -0.1408  0.3434
 3032TIP3    H130587   0.614   3.243   0.175  1.8439 -0.0805  0.1641
 3032TIP3    H230588   0.657   3.098   0.173  1.4225 -0.2241  1.2174
 3033TIP3   OH230589   4.535   2.277   5.737  0.3604  0.0700  0.5900
 3033TIP3    H130590   4.448   2.265   5.699 -0.2060  0.8095  1.6270
 3033TIP3    H230591   4.518   2.304   5.827  1.6703  0.0015  0.8629
 3034TIP3   OH230592   3.891   6.272   5.301  0.1346 -0.1975 -0.1236
 3034TIP3    H130593   3.819   6.212   5.282 -0.1478 -0.2043  0.9374
 3034TIP3    H230594   3.885   6.287   5.396  0.2790  1.4119 -0.3602
 3035TIP3   OH230595   1.360   2.598   4.011 -0.1887 -0.5025 -0.2288
 3035TIP3    H130596   1.444   2.598   3.965  0.1291 -0.7973  0.3474
 3035TIP3    H230597   1.370   2.533   4.080 -0.1276  1.0730  1.2717
 3036TIP3   OH230598   6.210   5.221  12.564 -0.4472 -0.2934 -0.7380
 3036TIP3    H130599   6.277   5.289  12.556 -0.7556 -0.0998 -1.6997
 3036TIP3    H230600   6.242   5.165  12.636  0.2317  0.3690 -0.5142
 3037TIP3   OH230601   4.821   4.959  15.641  0.2822 -0.0923 -0.7839
 3037TIP3    H130602   4.800   5.045  15.676 -1.4712 -0.0508 -1.9119
 3037TIP3    H230603   4.802   4.898  15.712  0.6982  0.3587 -0.2806
 3038TIP3   OH230604   2.283   6.377  13.622 -0.2017 -0.0244  0.1500
 3038TIP3    H130605   2.207   6.408  13.671 -0.8903 -0.0760 -0.8787
 3038TIP3    H230606   2.246   6.324  13.551  0.7654  0.3913 -0.6689
 3039TIP3   OH230607   0.480   0.672  11.972  0.0442 -0.0874  0.7674
 3039TIP3    H130608   0.571   0.644  11.960  1.0640  2.7282  1.6844
 3039TIP3    H230609   0.449   0.690  11.883  0.5019 -0.5850  0.4986
 3040TIP3   OH230610   5.553   1.119   3.068 -0.9760  0.4800 -0.4607
 3040TIP3    H130611   5.510   1.204   3.069 -0.4995  0.7183  0.8540
 3040TIP3    H230612   5.531   1.081   3.154  0.5377  0.1589 -0.2095
 3041TIP3   OH230613   1.899   1.732   0.838 -0.5141  0.2649 -0.8863
 3041TIP3    H130614   1.833   1.798   0.855 -3.6263 -2.7826 -0.6475
 3041TIP3    H230615   1.909   1.685   0.921  2.5578  1.1130 -0.6938
 3042TIP3   OH230616   0.238   3.360   1.644  0.0733  0.6430  0.4302
 3042TIP3    H130617   0.261   3.450   1.665  0.3440  0.2816  1.7252
 3042TIP3    H230618   0.320   3.319   1.618 -0.3015  1.1524 -1.6137
 3043TIP3   OH230619   5.558   5.104  16.586 -0.7410  0.2032 -0.3926
 3043TIP3    H130620   5.475   5.072  16.550  0.2860 -1.5676 -1.2575
 3043TIP3    H230621   5.575   5.047  16.661 -0.9234  1.3694  0.5440
 3044TIP3   OH230622   6.625   6.523  13.905 -0.0706 -0.3952  0.3332
 3044TIP3    H130623   6.581   6.451  13.859  0.1496 -0.9289  0.9473
 3044TIP3    H230624   6.712   6.527  13.865  0.0826 -0.7895  0.6142
 3045TIP3   OH230625   0.664   4.877   2.327  0.0018  0.4941 -0.2029
 3045TIP3    H130626   0.621   4.797   2.297  0.1260  0.2157  0.3558
 3045TIP3    H230627   0.599   4.920   2.383  0.6285 -0.1829  1.0537
 3046TIP3   OH230628   5.862   1.870   3.207  0.4848 -0.4921  0.4408
 3046TIP3    H130629   5.817   1.840   3.129 -0.9804  0.3017  0.9526
 3046TIP3    H230630   5.849   1.965   3.207 -0.1322 -0.5562  1.9982
 3047TIP3   OH230631   5.118   0.033  11.863  0.2734 -0.1599 -0.0376
 3047TIP3    H130632   5.052  -0.024  11.903 -1.0750 -1.5008 -3.9500
 3047TIP3    H230633   5.201  -0.012  11.880 -0.5329 -2.0913 -0.9498
 3048TIP3   OH230634   5.144   2.904  11.204  0.1585 -0.4518 -0.1803
 3048TIP3    H130635   5.139   2.956  11.124 -0.9448  0.5484  0.5157
 3048TIP3    H230636   5.144   2.813  11.174  0.1132 -0.0785 -1.3305
 3049TIP3   OH230637   2.634   4.640   1.935  0.1062 -0.0254  0.1853
 3049TIP3    H130638   2.571   4.705   1.969  0.9126  1.0130 -0.2833
 3049TIP3    H230639   2.640   4.660   1.842  2.0364  0.6745  0.4381
 3050TIP3   OH230640   4.289   3.698  11.583 -0.3813  0.2028 -0.0987
 3050TIP3    H130641   4.197   3.723  11.571 -0.5712 -0.7354 -0.6522
 3050TIP3    H230642   4.293   3.608  11.551  1.0498  0.7579 -1.5271
 3051TIP3   OH230643   4.746   6.291   6.555  0.1286 -0.1839 -0.3800
 3051TIP3    H130644   4.821   6.348   6.538 -2.0368  2.6182 -0.9490
 3051TIP3    H230645   4.758   6.261   6.645  2.0948 -0.0794 -0.5780
 3052TIP3   OH230646   0.118   6.272  11.458  0.4518  0.3879 -0.4907
 3052TIP3    H130647   0.072   6.348  11.422 -1.3716 -0.0769  0.7794
 3052TIP3    H230648   0.207   6.303  11.472 -0.2878  2.3400  0.1355
 3053TIP3   OH230649   0.843   0.235   5.403 -0.3504  0.3230 -0.5486
 3053TIP3    H130650   0.795   0.309   5.366 -1.7853 -0.0424  0.4949
 3053TIP3    H230651   0.933   0.265   5.409 -0.6729  1.5047 -1.3758
 3054TIP3   OH230652   3.161   5.843  15.881 -0.1541  0.0266 -0.2501
 3054TIP3    H130653   3.190   5.780  15.947 -1.1338 -1.4857 -1.2225
 3054TIP3    H230654   3.133   5.789  15.807 -1.4625  1.5845 -0.9291
 3055TIP3   OH230655   5.024   2.398   4.074  0.2351  0.0551 -0.2036
 3055TIP3    H130656   4.954   2.376   4.012  0.4559 -1.9550  0.2240
 3055TIP3    H230657   5.102   2.409   4.020 -0.2979  1.9784 -0.6461
 3056TIP3   OH230658   4.969   0.040  14.253 -0.4135  0.1846 -0.3199
 3056TIP3    H130659   5.043  -0.001  14.208 -0.4643  0.3882 -0.5935
 3056TIP3    H230660   5.006   0.074  14.335 -0.2388  0.1529 -0.3851
 3057TIP3   OH230661   6.582   2.886  15.525 -0.1360 -0.1769 -0.5854
 3057TIP3    H130662   6.642   2.811  15.519 -0.2289 -0.4181  1.3400
 3057TIP3    H230663   6.497   2.848  15.543 -0.0889  0.4066  0.9409
 3058TIP3   OH230664   4.796   4.562   0.227 -0.2841  1.0955  0.0426
 3058TIP3    H130665   4.722   4.507   0.251 -1.1044  1.7190 -0.9800
 3058TIP3    H230666   4.807   4.621   0.301  0.5035 -0.3327  1.0748
 3059TIP3   OH230667   0.206   2.113   2.028  0.0117 -0.3922 -0.7193
 3059TIP3    H130668   0.200   2.163   1.947 -1.4245 -0.6000 -0.7613
 3059TIP3    H230669   0.254   2.034   2.005  0.0285 -0.2238 -1.2572
 3060TIP3   OH230670   5.863   3.151  12.130 -0.0209 -0.2995 -0.0302
 3060TIP3    H130671   5.953   3.176  12.151 -0.6636  0.8172  1.4964
 3060TIP3    H230672   5.820   3.144  12.215 -1.3990 -0.7672 -0.7531
 3061TIP3   OH230673   4.172   3.082   6.128 -0.2541  0.1086 -0.4642
 3061TIP3    H130674   4.246   3.144   6.128  0.0880 -0.2952 -0.5625
 3061TIP3    H230675   4.211   2.999   6.099 -0.4683 -0.4379  0.7898
 3062TIP3   OH230676   5.769   5.921  13.606  0.0062  0.6014  0.4940
 3062TIP3    H130677   5.860   5.949  13.605  0.1728  0.0600  0.2997
 3062TIP3    H230678   5.719   6.001  13.596  0.4512  0.9605  1.1494
 3063TIP3   OH230679   6.692   4.824   0.850 -0.3197  0.3868 -0.3621
 3063TIP3    H130680   6.668   4.761   0.919  0.1365  0.4943 -0.1080
 3063TIP3    H230681   6.700   4.771   0.771  0.2090  0.0993 -0.1186
 3064TIP3   OH230682   6.548   1.608  10.959  0.0242 -0.1472  0.1693
 3064TIP3    H130683   6.476   1.544  10.967  1.0904 -1.2207  1.3366
 3064TIP3    H230684   6.553   1.650  11.044  0.4985  0.2508 -0.0525
 3065TIP3   OH230685   1.501   4.715   1.919 -0.0827  0.1645 -0.6150
 3065TIP3    H130686   1.529   4.635   1.874 -0.0123  0.0554 -0.3812
 3065TIP3    H230687   1.410   4.726   1.894 -0.3406 -0.4597  0.0244
 3066TIP3   OH230688   0.544   5.697   6.263 -0.1492 -0.0773  1.2158
 3066TIP3    H130689   0.612   5.762   6.247 -0.5990  0.0841 -0.0691
 3066TIP3    H230690   0.474   5.745   6.308 -0.6594  0.4344 -0.1096
 3067TIP3   OH230691   3.246   6.319   2.883  0.7872 -0.8647 -0.0870
 3067TIP3    H130692   3.322   6.375   2.899 -0.1060  0.5820 -0.7347
 3067TIP3    H230693   3.185   6.341   2.954  0.6056 -1.3289 -0.0987
 3068TIP3   OH230694   2.370   2.934   0.805 -0.5572  0.0428  0.4025
 3068TIP3    H130695   2.362   3.028   0.790  0.2679  0.0260 -0.2046
 3068TIP3    H230696   2.293   2.911   0.857 -1.0980  0.9396  0.0104
 3069TIP3   OH230697   6.632   1.346   1.391  0.0939 -0.9860 -0.1827
 3069TIP3    H130698   6.668   1.317   1.308 -0.6498  1.8180 -1.5533
 3069TIP3    H230699   6.677   1.293   1.457  2.7619 -1.2941 -2.1823
 3070TIP3   OH230700   2.292   4.507   1.249 -0.4637 -0.8203 -0.6884
 3070TIP3    H130701   2.281   4.419   1.214 -1.3041 -0.7801 -0.5449
 3070TIP3    H230702   2.281   4.564   1.173  1.8295 -0.9074 -1.1028
 3071TIP3   OH230703   0.806   2.941  14.110  0.7454 -0.1575 -0.5179
 3071TIP3    H130704   0.819   2.932  14.016 -0.0707  0.4900 -0.6998
 3071TIP3    H230705   0.894   2.950  14.146  1.0410 -0.0996 -1.2550
 3072TIP3   OH230706   1.857   4.030  17.269 -0.6044 -0.2184 -0.2941
 3072TIP3    H130707   1.921   4.086  17.314  0.9424 -3.9194  2.3464
 3072TIP3    H230708   1.773   4.055  17.307 -0.2040  1.4573 -0.4333
 3073TIP3   OH230709   5.577   2.605  12.042 -0.6093  0.0537  0.6259
 3073TIP3    H130710   5.570   2.624  12.136 -2.8942  0.9454  0.3283
 3073TIP3    H230711   5.532   2.521  12.032 -0.4923  0.0299  0.3158
 3074TIP3   OH230712   0.499   1.577   0.198 -0.2597 -0.3199  0.2454
 3074TIP3    H130713   0.555   1.614   0.265  1.1398 -0.1904 -0.9742
 3074TIP3    H230714   0.419   1.553   0.244  0.8980 -0.7603  2.0638
 3075TIP3   OH230715   6.706   2.165   3.298  0.2050 -0.9355  0.5936
 3075TIP3    H130716   6.692   2.259   3.313  0.7654 -0.6894 -0.3384
 3075TIP3    H230717   6.700   2.155   3.203 -1.1737 -2.0766  0.7934
 3076TIP3   OH230718   3.803   6.323  13.869 -0.7766 -0.3532 -0.1036
 3076TIP3    H130719   3.895   6.331  13.896 -0.8365 -0.5619  0.1667
 3076TIP3    H230720   3.755   6.380  13.930 -0.6767  0.7814 -1.0820
 3077TIP3   OH230721   5.541   1.055   2.045 -0.0549  0.2989  0.5120
 3077TIP3    H130722   5.613   1.008   2.088  0.9523  1.9269  0.6441
 3077TIP3    H230723   5.526   1.132   2.100  0.1609  1.5661 -1.1488
 3078TIP3   OH230724   6.194   3.672   4.137 -0.0207 -0.3935 -0.6427
 3078TIP3    H130725   6.208   3.737   4.068  0.2375  0.6467  0.3764
 3078TIP3    H230726   6.271   3.615   4.131 -0.1329 -0.4745 -1.3851
 3079TIP3   OH230727   2.130   0.723  14.568  0.4432 -0.1663  0.0751
 3079TIP3    H130728   2.135   0.628  14.575 -0.0539 -0.1440  0.8175
 3079TIP3    H230729   2.060   0.747  14.628  2.0915  0.8733  1.6224
 3080TIP3   OH230730   2.988   5.303  15.124  0.3160  0.2715  0.0340
 3080TIP3    H130731   3.077   5.285  15.094  0.2782  1.3425 -0.7678
 3080TIP3    H230732   3.000   5.359  15.201  0.3595 -0.4613  0.5585
 3081TIP3   OH230733   0.348   3.539  11.393 -0.5389  0.1420 -0.0090
 3081TIP3    H130734   0.349   3.478  11.319 -2.5647  1.8296 -1.4539
 3081TIP3    H230735   0.441   3.553  11.414 -0.0167 -3.0971  0.1089
 3082TIP3   OH230736   4.372   5.401   0.273 -0.4517 -0.0146 -0.1156
 3082TIP3    H130737   4.343   5.338   0.207  1.2968 -0.8721 -0.0966
 3082TIP3    H230738   4.410   5.347   0.343 -1.6233  0.9212  1.2721
 3083TIP3   OH230739   3.378   3.268  16.803 -0.0958  0.7278  0.4735
 3083TIP3    H130740   3.423   3.289  16.721 -2.8719  1.6144 -0.8858
 3083TIP3    H230741   3.293   3.234  16.775 -0.1865 -1.1950  2.9613
 3084TIP3   OH230742   3.560   5.059  15.942 -0.0521 -0.5943 -0.0814
 3084TIP3    H130743   3.571   5.152  15.924  0.1022 -0.8831 -1.5275
 3084TIP3    H230744   3.561   5.017  15.856 -0.7904 -1.8666  0.5086
 3085TIP3   OH230745   4.062   5.321  14.463  0.5700 -0.7383  0.6969
 3085TIP3    H130746   4.063   5.229  14.489  0.1252 -0.3948  1.9984
 3085TIP3    H230747   3.975   5.335  14.426  1.6742 -1.5631 -2.3058
 3086TIP3   OH230748   4.278   0.957  16.056  0.0114 -0.2683  0.1354
 3086TIP3    H130749   4.183   0.945  16.063  0.3833 -3.0728  0.6731
 3086TIP3    H230750   4.314   0.869  16.056  2.5441  0.7088 -1.7727
 3087TIP3   OH230751   1.882   3.616  15.740  0.1327  0.2124 -0.4274
 3087TIP3    H130752   1.945   3.572  15.797  0.3493 -1.3315 -1.8068
 3087TIP3    H230753   1.803   3.562  15.747 -1.3043  2.5124  1.8236
 3088TIP3   OH230754   6.781   0.914  16.768 -0.5326  0.3451 -0.0826
 3088TIP3    H130755   6.810   1.002  16.792  0.2231 -0.1588  0.8892
 3088TIP3    H230756   6.859   0.872  16.732 -0.9269  0.1047 -0.6787
 3089TIP3   OH230757   4.662   1.270   0.885  0.6698 -0.3646 -0.1924
 3089TIP3    H130758   4.748   1.312   0.883  0.5021 -0.0504 -1.2615
 3089TIP3    H230759   4.618   1.310   0.959  1.1274  0.1236 -0.1782
 3090TIP3   OH230760   2.556   5.508  14.598 -0.1128  0.0371  0.2660
 3090TIP3    H130761   2.516   5.515  14.512 -1.8061 -2.2426  0.8180
 3090TIP3    H230762   2.530   5.588  14.644 -3.4933 -1.0360  0.3570
 3091TIP3   OH230763   6.713   3.012   0.265 -0.2627 -0.4668 -0.6987
 3091TIP3    H130764   6.654   3.006   0.190  0.2602 -0.9312 -1.0762
 3091TIP3    H230765   6.785   2.953   0.244 -1.4894 -2.8300  1.4395
 3092TIP3   OH230766   4.856   5.644  11.685 -0.6545  0.0627 -0.6663
 3092TIP3    H130767   4.847   5.701  11.609 -1.1381  0.9312  0.0423
 3092TIP3    H230768   4.922   5.687  11.740 -0.5321 -0.4055 -0.4387
 3093TIP3   OH230769   6.246   2.731  14.658 -0.1766  0.9298 -0.0649
 3093TIP3    H130770   6.326   2.696  14.618  0.2663 -0.2596  1.7960
 3093TIP3    H230771   6.178   2.714  14.593  0.2238 -2.5398  0.3375
 3094TIP3   OH230772   2.055   1.231   3.451 -0.4611 -0.0210 -0.1137
 3094TIP3    H130773   1.975   1.201   3.495 -0.5596 -0.4488 -0.5778
 3094TIP3    H230774   2.120   1.163   3.469 -0.0796  0.5243  0.6041
 3095TIP3   OH230775   6.754   5.326   5.916  0.1231  0.0123  0.2793
 3095TIP3    H130776   6.807   5.404   5.900  2.2734 -1.0034  2.1888
 3095TIP3    H230777   6.688   5.327   5.846  1.3201  2.4559 -0.8787
 3096TIP3   OH230778   1.440   6.458  11.086 -0.3004 -0.6771 -0.2483
 3096TIP3    H130779   1.369   6.495  11.033  1.4938 -0.4301 -2.5979
 3096TIP3    H230780   1.412   6.370  11.107 -1.8856 -0.1259  0.0125
 3097TIP3   OH230781   3.417   1.045   0.633  0.3075 -0.0968  0.5526
 3097TIP3    H130782   3.404   1.136   0.659 -0.3407 -0.2194  0.6549
 3097TIP3    H230783   3.356   0.995   0.687  2.5364 -0.8835  2.4318
 3098TIP3   OH230784   3.680   5.084  13.784  0.4198  0.6423  0.5605
 3098TIP3    H130785   3.706   5.043  13.867  2.0410  1.9636  0.7374
 3098TIP3    H230786   3.671   5.177  13.806 -1.0147  0.7116 -0.3275
 3099TIP3   OH230787   0.820   0.747  12.009  0.0343 -0.0764 -0.4509
 3099TIP3    H130788   0.805   0.654  11.989  1.1761 -0.1523 -0.9381
 3099TIP3    H230789   0.809   0.792  11.925  1.5575 -0.0207 -0.6342
 3100TIP3   OH230790   1.736   1.098   0.964  0.2277 -0.5751  0.1893
 3100TIP3    H130791   1.814   1.106   1.019 -0.1898  1.3561  0.5380
 3100TIP3    H230792   1.744   1.012   0.924  2.5005 -0.4496  0.2826
 3101TIP3   OH230793   4.419   1.599  12.458  0.1668 -0.6755  0.5515
 3101TIP3    H130794   4.485   1.636  12.517  0.9263 -1.0903 -0.0335
 3101TIP3    H230795   4.336   1.614  12.503  0.5555  0.8302  0.7902
 3102TIP3   OH230796   1.491   0.718  16.507  0.0541 -0.3717 -0.3730
 3102TIP3    H130797   1.458   0.787  16.449  0.4745 -0.3887 -0.6401
 3102TIP3    H230798   1.467   0.747  16.595 -1.3687 -0.7783 -0.6120
 3103TIP3   OH230799   4.363   1.619   3.520 -0.2685 -0.1008  0.4521
 3103TIP3    H130800   4.416   1.614   3.599  0.5926 -0.1827 -0.1149
 3103TIP3    H230801   4.278   1.584   3.545 -0.5563  1.5347  1.7977
 3104TIP3   OH230802   0.643   3.790  11.879 -0.0547  0.4563 -0.1368
 3104TIP3    H130803   0.667   3.825  11.793 -0.7431  1.0075 -0.1040
 3104TIP3    H230804   0.573   3.847  11.909  0.9539  0.9636  1.2942
 3105TIP3   OH230805   6.337   6.702   4.090  0.1807 -0.3096 -0.4369
 3105TIP3    H130806   6.360   6.614   4.121  0.7813  0.7407  2.2444
 3105TIP3    H230807   6.419   6.737   4.056  0.6635  0.2592  1.2276
 3106TIP3   OH230808   2.867   0.091   3.531 -0.1713 -0.7493  0.4712
 3106TIP3    H130809   2.947   0.054   3.494 -0.6402 -1.4252  0.1269
 3106TIP3    H230810   2.889   0.110   3.622  0.7096  0.0658  0.0926
 3107TIP3   OH230811   0.335   3.722  16.362  0.4700  0.6251  0.6306
 3107TIP3    H130812   0.287   3.773  16.427 -0.8037 -1.2438  1.1959
 3107TIP3    H230813   0.362   3.643  16.409 -1.8565 -1.5148 -1.5012
 3108TIP3   OH230814   3.056   6.739  17.209  0.0324 -0.1913  0.2334
 3108TIP3    H130815   3.062   6.730  17.114 -1.0836 -1.2519  0.2559
 3108TIP3    H230816   2.966   6.765  17.225 -0.3088 -1.8650  1.1317
 3109TIP3   OH230817   3.801   5.700  13.769  0.2904  0.1951 -0.4823
 3109TIP3    H130818   3.849   5.634  13.719  1.4102  1.8487 -1.6655
 3109TIP3    H230819   3.869   5.742  13.823 -0.5451 -0.1435  0.8456
 3110TIP3   OH230820   0.711   6.484   3.002 -0.2608  0.0577 -0.3633
 3110TIP3    H130821   0.721   6.559   3.061 -0.5417 -1.0735  1.1674
 3110TIP3    H230822   0.770   6.418   3.039  1.2860  0.0912 -2.6845
 3111TIP3   OH230823   1.382   6.326   4.193 -0.3758  0.1845  0.5698
 3111TIP3    H130824   1.343   6.413   4.185 -0.0666  0.4357  1.6551
 3111TIP3    H230825   1.373   6.305   4.286 -1.6394 -1.5088  0.0740
 3112TIP3   OH230826   4.596   3.006   1.948  0.0973  0.2818  0.9022
 3112TIP3    H130827   4.547   3.081   1.982 -1.1017  0.1346 -0.4377
 3112TIP3    H230828   4.578   3.007   1.854  1.7013 -0.5090  0.5711
 3113TIP3   OH230829   1.077   6.586   0.891  0.0678  0.2380 -0.2130
 3113TIP3    H130830   0.996   6.558   0.849  1.7423 -3.1208 -1.3647
 3113TIP3    H230831   1.129   6.624   0.820 -0.3614  2.2290  0.4900
 3114TIP3   OH230832   4.336   4.356   1.876  0.1079 -0.8338 -0.7166
 3114TIP3    H130833   4.398   4.328   1.943  0.5974  0.0496 -0.7783
 3114TIP3    H230834   4.390   4.408   1.815 -0.8092  0.4705 -0.4335
 3115TIP3   OH230835   5.862   5.386   2.421 -0.3662 -0.2547 -0.4292
 3115TIP3    H130836   5.885   5.346   2.504 -2.9654 -2.6104 -0.7908
 3115TIP3    H230837   5.781   5.434   2.437  1.5915  3.3317 -0.5190
 3116TIP3   OH230838   2.494   6.632   1.991 -0.0963  0.0814 -0.1552
 3116TIP3    H130839   2.420   6.693   1.989  0.2125  0.5268  1.4399
 3116TIP3    H230840   2.453   6.546   1.984 -0.6359  0.3950 -1.0115
 3117TIP3   OH230841   0.185   4.853  13.438 -0.0123 -0.1081  0.3588
 3117TIP3    H130842   0.123   4.786  13.409  0.5242 -0.7185  0.6105
 3117TIP3    H230843   0.236   4.874  13.359 -1.3459  1.2933 -0.1554
 3118TIP3   OH230844   5.736   2.648  11.812  0.2090  0.2692  0.0398
 3118TIP3    H130845   5.818   2.630  11.860 -0.2370  0.6797  0.9718
 3118TIP3    H230846   5.667   2.625  11.875 -0.4164 -1.1993 -1.1454
 3119TIP3   OH230847   3.625   2.308  16.015 -0.2239  0.1385  0.0263
 3119TIP3    H130848   3.685   2.348  16.078 -0.8213 -1.2179  1.4789
 3119TIP3    H230849   3.680   2.287  15.939  0.7658  0.5375  0.6340
 3120TIP3   OH230850   0.187   0.654  13.181 -0.1580 -0.3337 -0.5154
 3120TIP3    H130851   0.165   0.639  13.090  0.8967  1.3241 -1.0665
 3120TIP3    H230852   0.159   0.744  13.198  2.5624  0.4778 -0.1423
 3121TIP3   OH230853   0.788   0.973  13.988  0.0356 -0.2521 -0.2810
 3121TIP3    H130854   0.710   0.934  14.029 -0.3935  0.8928  0.0040
 3121TIP3    H230855   0.861   0.927  14.030 -0.4457 -0.2991  0.5367
 3122TIP3   OH230856   2.527   6.357  10.997 -0.6654  0.2139 -0.2666
 3122TIP3    H130857   2.592   6.377  10.930 -0.7420 -0.6778 -0.6070
 3122TIP3    H230858   2.494   6.270  10.975 -0.7674 -0.0493  0.8642
 3123TIP3   OH230859   3.558   1.370   2.960  0.3733 -0.3947  0.0227
 3123TIP3    H130860   3.515   1.291   2.992  1.6184 -2.2327 -2.6800
 3123TIP3    H230861   3.494   1.411   2.902  0.0333  0.1673  0.7840
 3124TIP3   OH230862   1.651   1.816  14.557 -0.1195  0.1390  0.2945
 3124TIP3    H130863   1.722   1.856  14.507  0.0208 -0.4327  0.0355
 3124TIP3    H230864   1.615   1.888  14.609 -0.9143  0.9794 -1.3636
 3125TIP3   OH230865   4.007   6.128   2.736  0.1296  0.7825 -0.0012
 3125TIP3    H130866   4.008   6.223   2.751 -1.1412  0.4812  2.2061
 3125TIP3    H230867   4.089   6.097   2.774  0.6375  0.9950 -0.8960
 3126TIP3   OH230868   2.679   5.622  15.152 -0.7669 -0.2028 -0.1807
 3126TIP3    H130869   2.635   5.581  15.226 -1.0270  0.1310 -0.1483
 3126TIP3    H230870   2.706   5.708  15.184  1.4392 -1.0655  0.3221
 3127TIP3   OH230871   3.957   3.122   6.287 -0.1908  0.8003  0.8316
 3127TIP3    H130872   4.046   3.095   6.264 -0.2158  0.0191  1.6614
 3127TIP3    H230873   3.957   3.126   6.382 -0.8540  1.4762  0.8083
 3128TIP3   OH230874   2.804   5.658  16.507  0.7171 -0.1051  0.2280
 3128TIP3    H130875   2.815   5.695  16.594  0.6285  0.6341 -0.0697
 3128TIP3    H230876   2.823   5.730  16.447 -0.2408 -0.3206 -0.3560
 3129TIP3   OH230877   4.036   6.400   5.039 -0.1205  0.5657 -0.2843
 3129TIP3    H130878   4.083   6.323   5.069 -0.8373 -0.6906 -2.2534
 3129TIP3    H230879   4.097   6.472   5.050  1.2773 -0.6060 -0.3120
 3130TIP3   OH230880   0.628   2.948  15.570  0.6187  0.2013 -0.0312
 3130TIP3    H130881   0.646   2.982  15.483  1.1874  1.0659  0.4066
 3130TIP3    H230882   0.533   2.952  15.579  0.6953  2.4104  0.2709
 3131TIP3   OH230883   5.809   3.359   6.044  0.0051 -0.4625  0.3997
 3131TIP3    H130884   5.877   3.341   6.108  0.4302 -1.3741 -0.2925
 3131TIP3    H230885   5.733   3.387   6.096  1.1536  1.4197  1.1260
 3132TIP3   OH230886   5.138   2.872   1.094 -0.5946 -0.4282 -0.3115
 3132TIP3    H130887   5.193   2.895   1.019  0.5068 -1.3501  0.1912
 3132TIP3    H230888   5.049   2.869   1.059 -0.2659  0.5198 -1.2649
 3133TIP3   OH230889   3.745   0.997   3.417  0.0389 -0.3271  0.0851
 3133TIP3    H130890   3.695   1.033   3.490  0.3892  0.0919  0.1266
 3133TIP3    H230891   3.775   0.912   3.447  0.0470 -0.2241  0.3719
 3134TIP3   OH230892   3.223   3.140   2.088  0.2374 -0.2429  0.3134
 3134TIP3    H130893   3.191   3.058   2.128 -0.3464 -0.2691 -0.2004
 3134TIP3    H230894   3.182   3.141   2.001 -1.8593  1.8761  1.2780
 3135TIP3   OH230895   1.369   0.610   1.522 -0.0816 -0.5156 -1.0278
 3135TIP3    H130896   1.294   0.665   1.498 -0.2041 -0.3950 -0.3885
 3135TIP3    H230897   1.341   0.564   1.601  1.0262  0.6317  0.0650
 3136TIP3   OH230898   0.879   6.430   1.988  0.3371  0.0125 -0.6203
 3136TIP3    H130899   0.821   6.503   2.006 -1.8247 -1.6460 -0.5905
 3136TIP3    H230900   0.934   6.423   2.066 -0.8726  0.2890  0.2733
 3137TIP3   OH230901   1.358   2.051  14.573  0.1213  0.4268  0.0493
 3137TIP3    H130902   1.292   2.005  14.625  0.9032 -1.0966 -0.2919
 3137TIP3    H230903   1.437   2.048  14.626  0.3626  0.7466 -0.2889
 3138TIP3   OH230904   2.637   1.689   4.337 -0.0688  0.1189  0.4501
 3138TIP3    H130905   2.626   1.612   4.282  2.5000 -1.3389  1.8815
 3138TIP3    H230906   2.648   1.761   4.275  0.9537 -1.2007 -0.9461
 3139TIP3   OH230907   1.685   5.466  16.249 -0.7147  0.8824 -0.1796
 3139TIP3    H130908   1.672   5.528  16.320 -1.0543  0.5815  0.0196
 3139TIP3    H230909   1.614   5.403  16.258  0.5993 -0.5003  0.6259
 3140TIP3   OH230910   3.510   3.775   5.639  0.4865  0.6882 -0.0073
 3140TIP3    H130911   3.560   3.712   5.691 -0.3042 -0.6022 -0.7823
 3140TIP3    H230912   3.562   3.786   5.559  0.2699  0.4415 -0.1870
 3141TIP3   OH230913   4.620   4.091  15.144 -0.1259 -0.0170  0.0285
 3141TIP3    H130914   4.661   4.078  15.059 -0.0782  1.4242 -0.1833
 3141TIP3    H230915   4.645   4.014  15.195 -0.8479 -1.2942 -1.5185
 3142TIP3   OH230916   2.291   1.212   2.552 -0.1528  0.0103  0.5162
 3142TIP3    H130917   2.281   1.123   2.517  0.3083  0.2913 -0.3625
 3142TIP3    H230918   2.225   1.264   2.506 -0.2230  0.1811  0.8085
 3143TIP3   OH230919   5.872   6.079   5.943  0.1229  0.2507 -0.1566
 3143TIP3    H130920   5.797   6.033   5.980 -1.1983  0.8955 -1.9150
 3143TIP3    H230921   5.902   6.137   6.013 -1.5835  0.6198  0.2957
 3144TIP3   OH230922   5.635   3.537  11.659 -0.1893  0.0257 -0.0117
 3144TIP3    H130923   5.571   3.576  11.599  1.3103  0.2879 -1.4750
 3144TIP3    H230924   5.652   3.606  11.724 -0.6839  0.2883 -0.1583
 3145TIP3   OH230925   6.702   2.003   4.606  0.0718 -0.3740 -0.5387
 3145TIP3    H130926   6.663   2.030   4.523  0.4689 -1.6438 -1.1629
 3145TIP3    H230927   6.723   1.910   4.593  2.4659  0.0549  0.0754
 3146TIP3   OH230928   4.122   5.242  16.141  0.2792 -0.2954  0.2378
 3146TIP3    H130929   4.034   5.257  16.107  0.8651 -0.4359 -1.3828
 3146TIP3    H230930   4.178   5.302  16.092  1.0798 -0.1081  1.3498
 3147TIP3   OH230931   0.934   1.763  15.657 -0.1229 -0.6792  0.2560
 3147TIP3    H130932   0.855   1.782  15.708 -0.7449 -1.5190 -0.3895
 3147TIP3    H230933   0.908   1.780  15.566  0.7012 -0.1055  0.1262
 3148TIP3   OH230934   4.607   4.559   4.154  0.1733 -0.1287  0.4242
 3148TIP3    H130935   4.584   4.645   4.118  1.0338 -0.4533 -0.9295
 3148TIP3    H230936   4.575   4.562   4.244 -0.7407  1.2270  0.0769
 3149TIP3   OH230937   0.361   2.383   5.018  0.4596 -0.4026 -0.6733
 3149TIP3    H130938   0.304   2.329   5.073  1.6255  0.8462  1.8511
 3149TIP3    H230939   0.449   2.352   5.037  1.0005  1.1651 -0.5930
 3150TIP3   OH230940   5.405   2.948  12.045  0.3806 -0.6941  0.1858
 3150TIP3    H130941   5.493   2.914  12.031 -1.0815 -3.9400 -1.9112
 3150TIP3    H230942   5.377   2.978  11.958 -1.6536 -2.5618  0.1500
 3151TIP3   OH230943   6.713   0.752  16.180  0.8467 -0.2869 -0.7681
 3151TIP3    H130944   6.782   0.815  16.202  0.8265 -0.4892 -0.0951
 3151TIP3    H230945   6.760   0.669  16.164  0.6396 -0.8597  1.4266
 3152TIP3   OH230946   5.009   5.652   3.693 -0.2720  0.4185 -0.2229
 3152TIP3    H130947   4.930   5.605   3.717 -0.1956  0.0679 -0.6382
 3152TIP3    H230948   5.080   5.601   3.732 -0.3389  1.5597  1.4131
 3153TIP3   OH230949   6.324   0.613   2.436 -0.1887  0.1188 -0.2398
 3153TIP3    H130950   6.284   0.550   2.496 -3.1188  2.0066 -0.0773
 3153TIP3    H230951   6.346   0.688   2.492 -0.2727  0.7394 -1.0314
 3154TIP3   OH230952   5.512   3.879   3.914 -0.6312 -0.0656 -0.3569
 3154TIP3    H130953   5.484   3.968   3.891 -1.7264 -0.6877 -1.4769
 3154TIP3    H230954   5.569   3.891   3.990 -2.2794  1.4409  0.7015
 3155TIP3   OH230955   1.793   2.819   4.607 -0.2114 -0.1327  0.4725
 3155TIP3    H130956   1.885   2.832   4.629 -0.5295  1.8685  0.7037
 3155TIP3    H230957   1.787   2.727   4.582  1.8732 -0.2503  0.3420
 3156TIP3   OH230958   3.114   0.072  14.346  0.4771  0.1569  0.0057
 3156TIP3    H130959   3.067   0.048  14.266  0.8624  2.4671 -0.9516
 3156TIP3    H230960   3.047   0.101  14.407  0.3246 -0.0702 -0.0555
 3157TIP3   OH230961   6.092   6.294  15.437  0.1635 -0.0849  0.1778
 3157TIP3    H130962   6.074   6.380  15.475 -1.6886 -0.6510  0.6054
 3157TIP3    H230963   6.128   6.243  15.510  1.9322  0.5132 -0.2482
 3158TIP3   OH230964   2.551   2.176   5.886 -0.0473  0.0545  0.0349
 3158TIP3    H130965   2.523   2.088   5.860 -2.1291  0.8778 -0.5919
 3158TIP3    H230966   2.614   2.201   5.819 -0.8152 -0.2428 -0.8053
 3159TIP3   OH230967   5.794   6.368   4.480  0.2906 -0.0105 -0.2085
 3159TIP3    H130968   5.841   6.369   4.397 -0.7596  0.9734 -0.8130
 3159TIP3    H230969   5.784   6.276   4.502  2.0899 -0.2438 -0.2937
 3160TIP3   OH230970   2.554   2.333   4.578  0.7427  0.0469 -0.1722
 3160TIP3    H130971   2.474   2.356   4.530  0.6458  2.0428  0.8825
 3160TIP3    H230972   2.625   2.367   4.524  0.6704  1.6369  0.7083
 3161TIP3   OH230973   3.798   2.801   5.619  0.5668  0.0363 -0.3268
 3161TIP3    H130974   3.772   2.869   5.683 -0.5597 -1.5788  0.9784
 3161TIP3    H230975   3.874   2.838   5.576  0.6599  1.6864  1.1533
 3162TIP3   OH230976   0.219   3.998   4.440 -0.4890 -0.5268  0.3877
 3162TIP3    H130977   0.214   3.942   4.517  0.5694 -0.4290  0.5271
 3162TIP3    H230978   0.255   3.941   4.372 -2.4251 -0.9281 -0.3435
 3163TIP3   OH230979   5.624   2.498   4.664  0.4403 -0.2716 -0.5539
 3163TIP3    H130980   5.714   2.509   4.635  0.9050  0.8024  1.2066
 3163TIP3    H230981   5.573   2.559   4.610  0.8449 -0.4531 -1.1425
 3164TIP3   OH230982   5.720   4.032  17.122  0.1258  0.2498 -0.3467
 3164TIP3    H130983   5.781   4.059  17.191  0.7094 -1.3730 -0.2020
 3164TIP3    H230984   5.692   3.944  17.149 -0.8465  0.2349 -1.3829
 3165TIP3   OH230985   1.043   1.513   0.577  0.4171 -0.6007 -0.2062
 3165TIP3    H130986   0.991   1.484   0.502 -0.1699  1.2034 -0.5194
 3165TIP3    H230987   1.055   1.434   0.630 -2.3752 -1.1228 -0.2896
 3166TIP3   OH230988   4.291   1.170  16.866 -0.2916 -0.1610  0.7227
 3166TIP3    H130989   4.263   1.253  16.826 -0.4550  0.0395  1.2555
 3166TIP3    H230990   4.219   1.146  16.924 -0.8911 -1.4235 -0.5189
 3167TIP3   OH230991   1.821   3.936   4.054  0.6113  0.7355 -0.4568
 3167TIP3    H130992   1.833   3.957   3.961  1.8606  0.5365 -0.3517
 3167TIP3    H230993   1.861   4.009   4.101  2.5102 -0.5095 -0.0928
 3168TIP3   OH230994   2.334   1.062   0.875  0.1034  0.0363 -0.4155
 3168TIP3    H130995   2.335   1.114   0.795 -0.2814  0.3441 -0.2238
 3168TIP3    H230996   2.399   1.103   0.932 -1.5115  1.4465  0.4423
 3169TIP3   OH230997   1.230   2.691   0.390  0.1371 -0.7047 -0.1820
 3169TIP3    H130998   1.292   2.698   0.317 -0.2049 -0.3191 -0.4378
 3169TIP3    H230999   1.265   2.621   0.445  1.9687  0.9148  0.7865
 3170TIP3   OH231000   1.563   3.960  15.791 -0.1483  0.1879 -0.2780
 3170TIP3    H131001   1.653   3.944  15.764 -0.6453 -0.5583 -1.5311
 3170TIP3    H231002   1.568   3.975  15.886  1.6191  2.7868 -0.7249
 3171TIP3   OH231003   1.219   6.547   4.188  0.0763  0.0182 -0.4033
 3171TIP3    H131004   1.138   6.498   4.175 -1.5948  2.1776  1.4726
 3171TIP3    H231005   1.195   6.638   4.170  1.3821  1.0405  2.5905
 3172TIP3   OH231006   1.295   3.838  12.881  0.4203  0.2775 -0.0582
 3172TIP3    H131007   1.284   3.865  12.972  1.3667  0.5114 -0.0109
 3172TIP3    H231008   1.211   3.860  12.840  1.1998  3.4718 -0.0786
 3173TIP3   OH231009   6.327   5.143  11.503  0.0359  0.1289 -0.1494
 3173TIP3    H131010   6.389   5.158  11.432 -0.6076 -0.4268 -0.8354
 3173TIP3    H231011   6.381   5.141  11.582  0.5930  2.2553 -0.4311
 3174TIP3   OH231012   5.851   3.074  13.404  0.1823 -0.8247 -0.2415
 3174TIP3    H131013   5.883   3.154  13.361 -0.3077 -0.8208 -0.6116
 3174TIP3    H231014   5.831   3.015  13.331 -0.0486 -1.0520  0.0058
 3175TIP3   OH231015   6.494   0.005  16.908  0.0505 -0.0491  0.3267
 3175TIP3    H131016   6.466  -0.061  16.844 -1.8391 -0.5687  1.6714
 3175TIP3    H231017   6.584   0.027  16.881  0.4470 -2.6229 -0.5812
 3176TIP3   OH231018   5.413   4.144   3.861  0.5527 -0.0130  0.6860
 3176TIP3    H131019   5.440   4.215   3.802  0.4421  0.2454  0.9433
 3176TIP3    H231020   5.376   4.189   3.937 -2.7405 -0.3138 -0.6213
 3177TIP3   OH231021   0.689   0.656  15.049 -0.0682 -0.3868 -0.0996
 3177TIP3    H131022   0.699   0.599  14.973 -0.8222 -1.5480  0.6648
 3177TIP3    H231023   0.777   0.662  15.086  0.1073 -0.6292 -0.4694
 3178TIP3   OH231024   4.005   2.688   0.364 -0.4421  0.1942  0.3036
 3178TIP3    H131025   3.939   2.713   0.428 -1.0660 -0.9977  0.1398
 3178TIP3    H231026   3.959   2.691   0.279 -0.3655 -0.8990  0.2215
 3179TIP3   OH231027   4.023   0.425  12.106  0.1686 -0.2531  0.1478
 3179TIP3    H131028   3.954   0.418  12.040  1.0504 -0.6989 -0.7395
 3179TIP3    H231029   4.102   0.446  12.057  1.2586 -2.6294  0.7906
 3180TIP3   OH231030   5.447   5.074   0.767 -0.0725 -0.2460 -0.8223
 3180TIP3    H131031   5.509   5.139   0.736  0.4089  0.1028  0.8212
 3180TIP3    H231032   5.495   4.992   0.765  0.1562 -0.1213 -0.3835
 3181TIP3   OH231033   2.246   5.688   0.107  1.2142  1.1834 -0.0862
 3181TIP3    H131034   2.325   5.726   0.068  1.1234  0.8177 -0.6389
 3181TIP3    H231035   2.176   5.710   0.044  0.9018  1.3751  0.3241
 3182TIP3   OH231036   5.896   2.289  14.313  0.1208 -0.1277 -0.6505
 3182TIP3    H131037   5.810   2.321  14.288  1.1809  1.0491 -2.8955
 3182TIP3    H231038   5.897   2.197  14.286 -0.7447 -0.4035  0.2356
 3183TIP3   OH231039   3.928   1.856   3.546  0.4217 -0.4941 -0.1887
 3183TIP3    H131040   3.895   1.810   3.469 -1.0674 -1.4700  1.0087
 3183TIP3    H231041   3.887   1.812   3.621  1.5918  0.6289  1.1624
 3184TIP3   OH231042   6.394   3.395  13.308 -0.2673  0.5832 -0.1230
 3184TIP3    H131043   6.428   3.409  13.220  1.4465 -2.3592  0.0266
 3184TIP3    H231044   6.318   3.338  13.296  0.6637 -0.7840  0.3804
 3185TIP3   OH231045   1.986   2.176  16.472 -0.8050  1.1019  0.4349
 3185TIP3    H131046   2.065   2.128  16.448 -1.5769 -1.5346  2.7862
 3185TIP3    H231047   1.914   2.115  16.454 -1.8437  1.3772  3.2820
 3186TIP3   OH231048   1.051   2.886   6.701  0.1382  0.1099  0.1752
 3186TIP3    H131049   1.101   2.900   6.782 -0.6692  1.5213  0.4459
 3186TIP3    H231050   0.994   2.812   6.720 -1.9440  2.0594  1.8458
 3187TIP3   OH231051   1.112   6.735  15.548 -0.0064  0.2254  0.1186
 3187TIP3    H131052   1.114   6.642  15.527 -0.1922 -0.2099  1.8812
 3187TIP3    H231053   1.192   6.770  15.511  1.8346 -1.3451  2.4369
 3188TIP3   OH231054   3.532   4.357  11.803 -0.2534  0.0623  0.1121
 3188TIP3    H131055   3.461   4.293  11.800 -0.3263  0.0472  1.4790
 3188TIP3    H231056   3.611   4.304  11.814  0.1163  0.0134 -2.6642
 3189TIP3   OH231057   3.839   2.059   4.065 -0.5579 -0.0117  0.0729
 3189TIP3    H131058   3.804   2.078   4.152  0.8382 -0.8429  0.8424
 3189TIP3    H231059   3.919   2.111   4.059 -1.8732  1.8948 -1.6681
 3190TIP3   OH231060   5.160   4.494  10.669 -0.5257  0.5075 -0.1108
 3190TIP3    H131061   5.183   4.408  10.705  1.2157  1.1466  0.3617
 3190TIP3    H231062   5.065   4.500  10.680 -0.7306 -1.4966 -0.4598
 3191TIP3   OH231063   2.912   4.606   2.005 -0.1021 -0.5799 -0.0331
 3191TIP3    H131064   2.986   4.665   2.018 -0.0482 -0.7805  0.5912
 3191TIP3    H231065   2.845   4.660   1.964 -0.0856 -0.0570  0.6229
 3192TIP3   OH231066   1.269   3.370   4.698 -0.5808 -0.0386  0.1374
 3192TIP3    H131067   1.304   3.314   4.629 -2.4898 -0.6400 -0.3780
 3192TIP3    H231068   1.178   3.386   4.673 -1.3419 -0.3361  2.5364
 3193TIP3   OH231069   2.802   0.320   1.116  0.1698 -0.2578  0.3817
 3193TIP3    H131070   2.821   0.350   1.205 -0.9548 -0.9400  0.8526
 3193TIP3    H231071   2.725   0.264   1.124  1.4552 -2.2644 -0.6736
 3194TIP3   OH231072   0.422   3.084  12.568  0.2699 -0.0657  0.0159
 3194TIP3    H131073   0.395   3.164  12.521 -1.0320 -0.2200  0.4670
 3194TIP3    H231074   0.514   3.074  12.546  0.4245  1.4950 -0.1646
 3195TIP3   OH231075   5.218   1.701  16.024 -0.0375  0.2317  0.3149
 3195TIP3    H131076   5.284   1.743  16.081 -2.2624  1.8071  1.8157
 3195TIP3    H231077   5.168   1.774  15.987 -1.0325 -0.9458 -0.7011
 3196TIP3   OH231078   5.020   0.504  14.068  0.0457  0.2596  0.6368
 3196TIP3    H131079   4.964   0.568  14.025 -2.3208 -1.9155  0.3350
 3196TIP3    H231080   5.081   0.476  14.000  0.0054  0.9882  0.3012
 3197TIP3   OH231081   1.211   5.799  11.280  0.6255 -0.4883 -0.2679
 3197TIP3    H131082   1.226   5.840  11.195  2.7745 -1.7293 -0.4949
 3197TIP3    H231083   1.196   5.707  11.261 -0.7815 -0.4496  0.5491
 3198TIP3   OH231084   0.636   5.878   2.517  0.1635  0.5004  0.1921
 3198TIP3    H131085   0.546   5.893   2.490 -0.1815  1.7800  1.9472
 3198TIP3    H231086   0.684   5.956   2.489  0.6498  0.0205 -0.3411
 3199TIP3   OH231087   1.832   5.182  12.955 -0.3412  0.1347 -0.4026
 3199TIP3    H131088   1.837   5.215  12.865 -1.4047  0.1846 -0.4495
 3199TIP3    H231089   1.886   5.243  13.005  0.7089 -0.2188 -1.0977
 3200TIP3   OH231090   1.773   4.766   0.079  0.0656  0.3893  0.4023
 3200TIP3    H131091   1.821   4.848   0.093  2.6430 -1.1001  0.5630
 3200TIP3    H231092   1.817   4.725   0.005 -0.0622 -1.6578  1.4168
 3201TIP3   OH231093   2.838   3.857  12.883  0.7415  0.4929 -0.1383
 3201TIP3    H131094   2.803   3.946  12.882  1.4175  0.7632 -0.3182
 3201TIP3    H231095   2.803   3.818  12.963 -1.9544 -0.0669 -1.5355
 3202TIP3   OH231096   4.167   4.398   5.156  0.0159  0.1032  0.6497
 3202TIP3    H131097   4.258   4.369   5.164  0.3142  0.6655 -0.5928
 3202TIP3    H231098   4.120   4.350   5.225  0.9977 -1.1949  0.4291
 3203TIP3   OH231099   6.382   3.793   1.265 -0.3074  0.1622 -0.9441
 3203TIP3    H131100   6.457   3.758   1.218  0.2633  0.0783  0.0047
 3203TIP3    H231101   6.335   3.715   1.295  0.5706  0.1819  0.5495
 3204TIP3   OH231102   2.031   1.024  14.816  0.6546  0.0260  0.1911
 3204TIP3    H131103   2.035   0.934  14.850  0.0688 -0.8592 -1.9932
 3204TIP3    H231104   1.940   1.051  14.831  0.3892 -0.3732 -0.7074
 3205TIP3   OH231105   3.952   4.411  13.573  0.6776 -0.7014 -0.6113
 3205TIP3    H131106   3.967   4.477  13.505  0.4526 -0.6328 -0.5965
 3205TIP3    H231107   4.039   4.379  13.595  0.8439  0.0505 -0.1674
 3206TIP3   OH231108   3.580   6.737   5.052 -0.3522 -0.1103  0.0619
 3206TIP3    H131109   3.598   6.831   5.057 -1.0528 -0.0461  1.9397
 3206TIP3    H231110   3.621   6.701   5.131  0.3446 -1.4722 -0.8979
 3207TIP3   OH231111   6.603   3.707   3.275 -0.4173  0.2612  0.4360
 3207TIP3    H131112   6.573   3.666   3.356 -2.5110  0.5536 -0.1519
 3207TIP3    H231113   6.597   3.638   3.209 -2.0662  0.9082 -0.1478
 3208TIP3   OH231114   3.766   1.082   3.159  0.0430 -0.0477 -0.3668
 3208TIP3    H131115   3.780   1.024   3.234  1.2056 -0.2778 -0.7547
 3208TIP3    H231116   3.673   1.104   3.163  0.3335  0.8421  1.8008
 3209TIP3   OH231117   4.671   2.763  16.552 -0.2498 -0.0939  0.7395
 3209TIP3    H131118   4.657   2.844  16.503 -1.1932 -0.6247  0.1161
 3209TIP3    H231119   4.736   2.786  16.618  1.3093  0.5384 -0.9648
 3210TIP3   OH231120   1.027   6.117   3.352 -0.0191  0.3012  0.0608
 3210TIP3    H131121   1.046   6.207   3.326 -0.0624  0.1614 -0.4670
 3210TIP3    H231122   0.983   6.079   3.276  0.1416 -0.2108  0.2210
 3211TIP3   OH231123   0.892   3.537   5.582  0.3330 -0.7352  0.3401
 3211TIP3    H131124   0.805   3.528   5.622  0.4544 -1.5930  0.4071
 3211TIP3    H231125   0.875   3.563   5.492 -0.0075 -1.4303  0.2044
 3212TIP3   OH231126   0.018   1.452  16.316 -0.4081  0.0907 -0.0982
 3212TIP3    H131127  -0.063   1.423  16.357 -0.4265  2.9208  2.0205
 3212TIP3    H231128  -0.010   1.516  16.251  0.0183 -0.3885 -0.7615
 3213TIP3   OH231129   1.626   0.234  16.132 -0.1812  0.2311  0.1033
 3213TIP3    H131130   1.598   0.206  16.045  1.0251 -1.4128  0.2243
 3213TIP3    H231131   1.721   0.228  16.129 -0.1947 -1.1024  1.9527
 3214TIP3   OH231132   6.360   4.101   4.633  0.2339  0.1461 -0.4555
 3214TIP3    H131133   6.434   4.113   4.573  0.0597  2.6031 -0.2470
 3214TIP3    H231134   6.400   4.106   4.720  0.1323 -0.8339 -0.3531
 3215TIP3   OH231135   5.433   3.373  15.398 -0.0398  0.4897  0.5671
 3215TIP3    H131136   5.496   3.417  15.455  1.9789 -2.1167  0.4453
 3215TIP3    H231137   5.375   3.327  15.458  0.7608 -0.5093  0.5781
 3216TIP3   OH231138   1.970   4.250  12.276 -0.2898 -0.2108  0.3055
 3216TIP3    H131139   2.043   4.194  12.301 -0.5634 -1.1223 -0.8694
 3216TIP3    H231140   1.925   4.269  12.359  0.7009 -0.4482  0.9083
 3217TIP3   OH231141   1.681   5.927   5.155  0.4369  0.0622 -0.3409
 3217TIP3    H131142   1.695   5.835   5.130 -3.3924 -0.3229 -1.3689
 3217TIP3    H231143   1.623   5.922   5.231  1.4888  1.6326  0.5924
 3218TIP3   OH231144   3.401   1.598   5.662  0.0462 -0.3104 -0.6565
 3218TIP3    H131145   3.328   1.585   5.601 -1.1253  1.1403  0.4119
 3218TIP3    H231146   3.382   1.537   5.734 -0.5689  0.6440  0.0060
 3219TIP3   OH231147   1.723   0.788   3.380 -0.0496  0.0540  0.2042
 3219TIP3    H131148   1.646   0.749   3.339  1.3852  0.6810 -3.2761
 3219TIP3    H231149   1.792   0.722   3.369  0.7229  0.8282  0.3240
 3220TIP3   OH231150   5.565   4.057   0.263 -0.5938  0.5073 -0.0439
 3220TIP3    H131151   5.538   3.999   0.192 -1.1591  0.3105  0.3321
 3220TIP3    H231152   5.513   4.030   0.338  2.5483 -1.6990  1.4532
 3221TIP3   OH231153   0.170   0.524  15.774 -0.2413 -0.3417  0.3820
 3221TIP3    H131154   0.212   0.597  15.729 -0.6997 -1.1483 -1.4200
 3221TIP3    H231155   0.197   0.447  15.724 -0.7255 -1.2758  1.5394
 3222TIP3   OH231156   0.194   2.215   3.461 -0.1823 -0.1119 -0.3285
 3222TIP3    H131157   0.105   2.209   3.496 -0.3257 -0.7051 -0.7820
 3222TIP3    H231158   0.251   2.203   3.536 -0.4774 -2.3489 -0.4246
 3223TIP3   OH231159   6.460   1.194   4.337 -0.4298  0.2570  0.0643
 3223TIP3    H131160   6.398   1.153   4.276  2.1790 -1.9113 -1.2739
 3223TIP3    H231161   6.433   1.162   4.423 -1.9180  0.3367 -0.3570
 3224TIP3   OH231162   2.316   0.665   2.717 -0.0652  0.0183  0.3737
 3224TIP3    H131163   2.362   0.620   2.646 -0.1687 -0.8898  0.8683
 3224TIP3    H231164   2.238   0.702   2.676 -0.7935 -1.6066  0.2598
 3225TIP3   OH231165   6.308   1.745  12.406  0.1308 -0.3775 -0.0344
 3225TIP3    H131166   6.300   1.838  12.426 -2.1461 -0.5167 -0.1660
 3225TIP3    H231167   6.372   1.741  12.334 -0.8092  1.2102 -0.9859
 3226TIP3   OH231168   4.634   4.353   0.312  0.1422 -0.2709  0.1169
 3226TIP3    H131169   4.719   4.310   0.304  1.8113  2.5812  1.7099
 3226TIP3    H231170   4.570   4.282   0.304  2.6698 -2.5481 -0.5400
 3227TIP3   OH231171   3.472   6.105  13.998 -0.3994  0.0288  0.0880
 3227TIP3    H131172   3.480   6.196  14.026 -0.4678  0.3456 -0.9163
 3227TIP3    H231173   3.562   6.077  13.982 -0.3814 -0.0664  0.3566
 3228TIP3   OH231174   0.539   4.314  14.953  0.0694  0.2387 -0.1940
 3228TIP3    H131175   0.568   4.222  14.948 -0.3537  0.1456 -1.1623
 3228TIP3    H231176   0.607   4.358  15.004  0.1398 -0.6652  0.5058
 3229TIP3   OH231177   2.749   3.258   3.934 -0.8358 -0.0308  0.2826
 3229TIP3    H131178   2.727   3.264   3.841 -0.9340  4.2703  0.4891
 3229TIP3    H231179   2.665   3.260   3.979 -0.8051 -2.4537  0.5049
 3230TIP3   OH231180   6.224   4.502  15.883 -0.0896 -0.2128  0.0333
 3230TIP3    H131181   6.208   4.579  15.938  0.4985  0.1774 -0.3230
 3230TIP3    H231182   6.213   4.534  15.794  3.5865  0.3732 -0.3078
 3231TIP3   OH231183   3.919   2.383   5.854  0.0206  0.2058 -0.3752
 3231TIP3    H131184   3.949   2.452   5.795 -1.0020 -0.2052 -1.4044
 3231TIP3    H231185   3.827   2.404   5.870 -0.1081 -0.5286 -0.1257
 3232TIP3   OH231186   6.514   5.692  16.294 -0.0583 -0.2257 -0.0821
 3232TIP3    H131187   6.556   5.605  16.290 -0.0196 -0.2402  0.6991
 3232TIP3    H231188   6.429   5.676  16.334  0.2689  0.2209  0.7980
 3233TIP3   OH231189   4.665   4.157   3.802  0.1493  0.6378 -0.0764
 3233TIP3    H131190   4.633   4.220   3.737  0.4623  1.4807  0.5847
 3233TIP3    H231191   4.622   4.075   3.778 -0.1395  1.0569 -1.0410
 3234TIP3   OH231192   5.131   2.274  12.883 -0.4157  1.3321 -0.3153
 3234TIP3    H131193   5.156   2.182  12.870 -0.0152  1.1840  1.3617
 3234TIP3    H231194   5.158   2.318  12.802 -0.0491  0.0851 -0.8841
 3235TIP3   OH231195   0.057   5.338   6.569 -0.4221 -0.0218  0.0313
 3235TIP3    H131196   0.135   5.374   6.611  0.5765 -1.4048 -0.5924
 3235TIP3    H231197   0.009   5.294   6.640 -1.2327  1.7825  0.6321
 3236TIP3   OH231198   3.108   5.412   2.836 -0.2984  0.3112 -0.1551
 3236TIP3    H131199   3.116   5.384   2.745  1.3491 -0.4266  0.1987
 3236TIP3    H231200   3.092   5.506   2.831  1.3145  0.5525 -1.1788
 3237TIP3   OH231201   0.863   6.571  16.181 -0.3681  0.1664 -0.6114
 3237TIP3    H131202   0.772   6.590  16.159 -1.1201 -1.3872  0.9764
 3237TIP3    H231203   0.877   6.617  16.264  0.1505  0.0478 -0.6310
 3238TIP3   OH231204   1.264   2.211  13.917  0.2156 -0.4704  0.1432
 3238TIP3    H131205   1.340   2.188  13.864 -0.4748 -1.7353 -0.3265
 3238TIP3    H231206   1.293   2.203  14.008  0.8124 -0.3415 -0.0402
 3239TIP3   OH231207   6.443   3.829   4.074 -0.3989 -0.2090  0.3088
 3239TIP3    H131208   6.513   3.791   4.021 -0.8827 -1.6404  0.6530
 3239TIP3    H231209   6.471   3.813   4.165 -0.2355  0.9690  0.4670
 3240TIP3   OH231210   0.686   6.633   5.087 -0.1945  0.2507 -0.0437
 3240TIP3    H131211   0.615   6.620   5.150 -0.4106  1.2237 -0.0880
 3240TIP3    H231212   0.653   6.700   5.027  0.6739  0.5429 -0.2004
 3241TIP3   OH231213   4.506   2.696  14.917 -0.1329 -0.4006 -0.0832
 3241TIP3    H131214   4.524   2.754  14.843 -0.0228 -0.2945  0.0239
 3241TIP3    H231215   4.440   2.635  14.885 -0.8164  0.2627  0.0310
 3242TIP3   OH231216   4.038   6.154  15.975 -0.0099 -0.1427  0.1249
 3242TIP3    H131217   4.112   6.214  15.972 -0.6221  0.5629 -0.8300
 3242TIP3    H231218   4.067   6.077  15.926  0.8392 -0.7094  1.5026
 3243TIP3   OH231219   3.768   6.263   1.258  0.0091  0.0818  0.8582
 3243TIP3    H131220   3.711   6.219   1.322 -0.2274  0.1218  0.6766
 3243TIP3    H231221   3.813   6.191   1.213 -0.8330 -0.0062  0.1399
 3244TIP3   OH231222   5.357   1.676  13.353  0.0590  0.8252 -0.8570
 3244TIP3    H131223   5.315   1.719  13.279 -1.6919  0.9511  0.1588
 3244TIP3    H231224   5.285   1.660  13.415  1.0501 -1.4931 -0.2368
 3245TIP3   OH231225   4.646   5.514  12.113  0.0267 -0.0070 -0.7428
 3245TIP3    H131226   4.686   5.460  12.045  1.1388  0.9412 -0.8625
 3245TIP3    H231227   4.691   5.598  12.107 -0.3522  0.3240  0.6924
 3246TIP3   OH231228   4.039   4.944   1.266  0.8765  0.0809  0.2853
 3246TIP3    H131229   4.071   4.854   1.273  1.1530  0.2009  0.5725
 3246TIP3    H231230   3.966   4.948   1.329  1.8125  0.4743  1.3585
 3247TIP3   OH231231   3.977   0.503  14.614 -0.0165 -0.1269 -0.9868
 3247TIP3    H131232   3.932   0.452  14.547  0.1143 -0.7742 -0.5810
 3247TIP3    H231233   4.052   0.449  14.639 -0.1320  0.0547 -0.2283
 3248TIP3   OH231234   4.428   5.450   2.577  0.0180  0.1918  0.0167
 3248TIP3    H131235   4.506   5.423   2.528  1.3968  1.4765  1.4383
 3248TIP3    H231236   4.359   5.392   2.545  1.5140 -0.8991 -1.3711
 3249TIP3   OH231237   2.968   3.614   4.127  0.2809 -0.0972  0.3489
 3249TIP3    H131238   2.965   3.557   4.050  1.5593  1.5399 -0.9454
 3249TIP3    H231239   2.920   3.565   4.194 -2.5415 -0.7341 -2.0072
 3250TIP3   OH231240   0.181   6.080   0.105 -0.0134  0.0675 -0.2522
 3250TIP3    H131241   0.099   6.130   0.098  0.1985  0.4071 -0.3065
 3250TIP3    H231242   0.209   6.093   0.196  0.1791  0.2651 -0.3385
 3251TIP3   OH231243   0.123   1.147   0.681 -0.1200 -0.1589  0.0538
 3251TIP3    H131244   0.033   1.114   0.691  0.3805 -1.5589 -0.0001
 3251TIP3    H231245   0.167   1.080   0.629  0.5246  1.3339 -1.3571
 3252TIP3   OH231246   0.692   0.843  14.438 -0.3581  0.7507 -0.2802
 3252TIP3    H131247   0.638   0.894  14.499 -1.7902 -0.2855 -0.6378
 3252TIP3    H231248   0.716   0.765  14.488  2.0505  1.8557  0.3551
 3253TIP3   OH231249   5.408   6.606   5.443  0.0746 -0.0105 -0.1244
 3253TIP3    H131250   5.477   6.646   5.389  1.5474 -1.3458  0.7208
 3253TIP3    H231251   5.439   6.517   5.459 -0.6248  0.1595  2.4116
 3254TIP3   OH231252   0.411   4.471   5.166 -0.5998  0.1582 -0.2134
 3254TIP3    H131253   0.371   4.481   5.252  1.0021 -0.0290  0.5684
 3254TIP3    H231254   0.486   4.530   5.167 -0.1664 -0.3501 -1.2260
 3255TIP3   OH231255   1.874   5.290  16.157  0.2832  0.6199  0.9067
 3255TIP3    H131256   1.797   5.328  16.200 -0.8646 -0.6441 -0.0190
 3255TIP3    H231257   1.923   5.249  16.229 -1.1691 -0.7078  1.1606
 3256TIP3   OH231258   2.932   2.018   0.153 -0.1049  0.1759  0.3853
 3256TIP3    H131259   2.943   2.048   0.243  2.8035  3.0392 -0.8348
 3256TIP3    H231260   2.938   1.922   0.158  2.1609  0.4146  2.9742
 3257TIP3   OH231261   5.922   4.424   0.792  0.3644  0.1902 -0.7947
 3257TIP3    H131262   5.943   4.331   0.799 -1.2355 -0.0202  1.9227
 3257TIP3    H231263   5.984   4.458   0.728  2.3061 -2.3547 -0.3308
 3258TIP3   OH231264   4.013   3.542  14.809  0.4964 -0.1438  0.4226
 3258TIP3    H131265   3.998   3.583  14.894 -0.7027 -1.8236  1.0312
 3258TIP3    H231266   4.039   3.452  14.829 -0.4348 -0.7487 -0.9946
 3259TIP3   OH231267   2.019   0.413   2.210 -0.0125  0.0558 -0.1188
 3259TIP3    H131268   1.933   0.407   2.252 -0.6534 -1.1506 -1.5406
 3259TIP3    H231269   2.018   0.499   2.166 -0.0863  0.4836  0.7147
 3260TIP3   OH231270   4.454   3.669   4.994  0.1490 -0.7766  0.4713
 3260TIP3    H131271   4.520   3.731   5.025 -2.5339  1.6357  1.5772
 3260TIP3    H231272   4.438   3.611   5.069  2.2679 -2.5230 -0.3884
 3261TIP3   OH231273   3.199   5.271   3.190 -0.9271  0.4201 -0.1052
 3261TIP3    H131274   3.239   5.358   3.185 -0.4250  0.1290 -1.4905
 3261TIP3    H231275   3.266   5.213   3.154 -0.2769 -0.9001  3.0799
 3262TIP3   OH231276   3.084   0.854  11.915 -0.3928  0.2350  0.2672
 3262TIP3    H131277   3.042   0.853  12.001  0.2960 -0.6505  0.6076
 3262TIP3    H231278   3.126   0.768  11.908 -0.2101  0.4030 -0.8382
 3263TIP3   OH231279   5.295   2.357  14.316 -0.2715 -0.2471 -0.0824
 3263TIP3    H131280   5.210   2.401  14.305 -1.0716 -1.4360  1.1067
 3263TIP3    H231281   5.330   2.396  14.397 -0.1141 -0.4320 -0.0638
 3264TIP3   OH231282   5.570   2.802   3.342  0.2270 -0.9003 -0.2074
 3264TIP3    H131283   5.617   2.876   3.304 -3.1736  0.1273 -2.6539
 3264TIP3    H231284   5.604   2.725   3.296  1.8541 -0.5916  0.4533
 3265TIP3   OH231285   5.028   3.583   3.239 -0.2463  0.1595  0.4515
 3265TIP3    H131286   5.111   3.621   3.211  0.9214 -1.6906  1.2911
 3265TIP3    H231287   5.039   3.566   3.332 -0.8116 -1.9487  0.1735
 3266TIP3   OH231288   6.778   3.642   1.823 -0.1551  0.1417  0.5517
 3266TIP3    H131289   6.873   3.644   1.813 -0.3737  0.0926 -1.7366
 3266TIP3    H231290   6.752   3.734   1.826 -0.1666  0.1683 -0.2706
 3267TIP3   OH231291   6.254   0.107  16.669  0.1185  0.3695  0.3755
 3267TIP3    H131292   6.307   0.028  16.679 -1.4434 -0.7488  0.0830
 3267TIP3    H231293   6.269   0.156  16.749 -1.1624 -1.6507  1.9066
 3268TIP3   OH231294   2.102   2.654  12.268  0.1435  0.0226  0.1296
 3268TIP3    H131295   2.140   2.617  12.188 -0.0450  2.8414 -1.3483
 3268TIP3    H231296   2.133   2.745  12.269 -0.6004  0.2864  2.8028
 3269TIP3   OH231297   3.579   1.557   6.112  0.2229  0.1245  1.1559
 3269TIP3    H131298   3.533   1.587   6.190 -0.1071  2.8146 -0.0104
 3269TIP3    H231299   3.518   1.495   6.071  0.1329 -0.8151  2.6830
 3270TIP3   OH231300   4.038   2.988  14.889  0.1623 -0.1296 -0.0039
 3270TIP3    H131301   3.984   3.064  14.865 -0.7113 -1.2875 -1.8776
 3270TIP3    H231302   4.087   3.016  14.966 -2.2466  1.3628  1.0405
 3271TIP3   OH231303   2.383   6.403   3.202 -0.1138  0.1610 -0.4819
 3271TIP3    H131304   2.445   6.397   3.130 -0.1982  2.3793 -0.7922
 3271TIP3    H231305   2.327   6.478   3.180 -0.8130  0.2210  1.3578
 3272TIP3   OH231306   0.813   5.795   4.374  0.4492 -0.4994 -0.1002
 3272TIP3    H131307   0.874   5.740   4.423  1.6591 -0.4009 -1.4400
 3272TIP3    H231308   0.728   5.752   4.384  1.0315 -1.5204  0.5029
 3273TIP3   OH231309   5.837   3.439   4.685  0.3004 -0.1309  0.0241
 3273TIP3    H131310   5.886   3.480   4.755 -0.1936  1.5258 -0.5913
 3273TIP3    H231311   5.869   3.348   4.683  1.0546  0.0960  1.6761
 3274TIP3   OH231312   3.783   3.109   4.648  0.6043 -0.1755  0.6674
 3274TIP3    H131313   3.800   3.204   4.645  2.1535 -0.4492  0.4948
 3274TIP3    H231314   3.766   3.092   4.741 -1.4534  0.5549  0.4486
 3275TIP3   OH231315   5.284   3.792   2.252 -0.2092  0.1907 -0.3752
 3275TIP3    H131316   5.368   3.828   2.223 -0.2254  0.7921  0.2922
 3275TIP3    H231317   5.225   3.805   2.178 -0.0931  1.1343 -0.3084
 3276TIP3   OH231318   1.435   5.511  14.234 -0.0832 -0.1565  0.7428
 3276TIP3    H131319   1.495   5.558  14.176 -0.9328 -0.0982 -0.0964
 3276TIP3    H231320   1.485   5.435  14.264  0.8436  0.5679  1.0664
 3277TIP3   OH231321   6.035   4.426   5.234  0.3446 -0.0218 -0.3211
 3277TIP3    H131322   5.996   4.424   5.147 -2.0405  1.9712  0.6387
 3277TIP3    H231323   6.093   4.350   5.237 -1.5092 -1.5773 -2.7393
 3278TIP3   OH231324   5.182   5.369  16.457  0.1043 -0.3035  0.2636
 3278TIP3    H131325   5.238   5.388  16.381 -0.6539 -0.6529 -0.3875
 3278TIP3    H231326   5.157   5.277  16.445 -0.6143 -0.1431  0.5519
 3279TIP3   OH231327   1.810   2.159   6.037 -0.0951 -0.1046 -0.0968
 3279TIP3    H131328   1.797   2.108   5.957  1.5908 -1.6529  0.5938
 3279TIP3    H231329   1.895   2.202   6.024  0.8469 -1.4591  1.4297
 3280TIP3   OH231330   4.455   5.729  16.944  0.7309  0.2940  0.2868
 3280TIP3    H131331   4.488   5.639  16.943 -1.1908 -0.4606  0.9944
 3280TIP3    H231332   4.498   5.771  16.870  0.1206 -1.8202 -1.3351
 3281TIP3   OH231333   5.924   5.479   2.183 -0.3543  0.4068 -0.0970
 3281TIP3    H131334   5.902   5.414   2.250  0.9608 -1.7263 -1.6459
 3281TIP3    H231335   5.979   5.542   2.229 -0.2387 -0.5198  1.0715
 3282TIP3   OH231336   6.543   2.698  13.270  0.2626 -0.2788  0.1433
 3282TIP3    H131337   6.560   2.637  13.198 -0.6070 -1.2124  0.7069
 3282TIP3    H231338   6.568   2.783  13.236 -0.3582 -0.6773 -1.3426
 3283TIP3   OH231339   2.774   5.681  10.768  0.7454  0.1137  0.0143
 3283TIP3    H131340   2.833   5.620  10.724  0.9783  1.3758 -1.4304
 3283TIP3    H231341   2.829   5.757  10.789  0.6130 -0.4012  2.3686
 3284TIP3   OH231342   3.201   5.479  12.419  0.4511 -0.0034 -0.7855
 3284TIP3    H131343   3.292   5.448  12.412 -0.0249 -1.5012 -0.6521
 3284TIP3    H231344   3.154   5.405  12.458 -0.4353  1.5297  1.0979
 3285TIP3   OH231345   4.374   2.568   1.899 -0.5416  0.1397  0.5195
 3285TIP3    H131346   4.419   2.540   1.979 -0.7707 -0.6824  0.3673
 3285TIP3    H231347   4.439   2.622   1.853 -0.3789  0.5482  1.2112
 3286TIP3   OH231348   2.321   5.485  11.686  0.1400  0.0684 -0.2813
 3286TIP3    H131349   2.326   5.390  11.689  0.8064  0.1134 -0.0417
 3286TIP3    H231350   2.412   5.514  11.677 -0.1292  0.6511 -1.1979
 3287TIP3   OH231351   0.082   0.315   5.137 -0.1825 -0.0131  0.4790
 3287TIP3    H131352  -0.011   0.295   5.122  0.0022  0.1930 -1.0051
 3287TIP3    H231353   0.092   0.406   5.109  0.5600 -0.1777  0.1922
 3288TIP3   OH231354   0.398   3.083   2.713  0.4297 -0.7187 -0.0113
 3288TIP3    H131355   0.467   3.139   2.678  0.3537 -1.4144 -1.3057
 3288TIP3    H231356   0.354   3.048   2.635 -0.2538 -1.6635  0.7929
 3289TIP3   OH231357   0.634   3.026   4.022  0.1413  0.1160  0.2485
 3289TIP3    H131358   0.678   3.067   3.948  0.7326 -0.1662  0.4452
 3289TIP3    H231359   0.668   3.072   4.099  2.0589 -1.8272  0.6061
 3290TIP3   OH231360   0.428   2.736   3.338  0.1174 -0.1024 -0.5412
 3290TIP3    H131361   0.417   2.817   3.287  1.5665  0.0789 -0.5851
 3290TIP3    H231362   0.343   2.692   3.331 -0.8985  1.7112 -0.0073
 3291TIP3   OH231363   2.577   4.953   5.695  0.0567 -0.1156 -0.4926
 3291TIP3    H131364   2.546   5.012   5.764  0.1186 -0.1804 -0.4107
 3291TIP3    H231365   2.533   4.984   5.616 -0.6217 -0.5366 -0.2816
 3292TIP3   OH231366   3.601   5.323  14.971  0.3529 -0.3848  0.9202
 3292TIP3    H131367   3.589   5.258  15.040  1.0030 -0.7311  0.7110
 3292TIP3    H231368   3.581   5.276  14.890  0.6550 -0.2847  0.7849
 3293TIP3   OH231369   6.241   4.648   2.116 -0.0495 -0.0947 -0.1154
 3293TIP3    H131370   6.230   4.620   2.026 -0.0291  0.3099 -0.2467
 3293TIP3    H231371   6.285   4.575   2.159  1.1949  0.2562 -0.7634
 3294TIP3   OH231372   2.412   3.006  10.717  0.9023 -0.0965  0.3307
 3294TIP3    H131373   2.322   3.040  10.714  1.1669  0.9585  3.0187
 3294TIP3    H231374   2.409   2.927  10.663 -1.0242  1.2697 -1.6745
 3295TIP3   OH231375   4.769   6.201  16.526 -0.3285  0.2355 -0.0133
 3295TIP3    H131376   4.734   6.229  16.610 -2.3351  0.2784 -0.8290
 3295TIP3    H231377   4.704   6.139  16.493  1.4960 -1.4327 -0.5755
 3296TIP3   OH231378   4.324   1.802  10.752 -0.1990  0.1237  0.3365
 3296TIP3    H131379   4.339   1.861  10.679 -0.6692  0.2195  0.3179
 3296TIP3    H231380   4.346   1.715  10.718 -1.0178  0.0847 -0.1104
 3297TIP3   OH231381   1.540   5.391   1.405 -0.2220  0.3048  1.0829
 3297TIP3    H131382   1.630   5.395   1.373 -1.6194  2.7356 -2.9350
 3297TIP3    H231383   1.537   5.456   1.475  0.6057  2.1393 -0.5108
 3298TIP3   OH231384   1.597   2.113  15.744  0.7950  0.8321 -0.3480
 3298TIP3    H131385   1.617   2.106  15.838  1.5583 -1.8488 -0.6648
 3298TIP3    H231386   1.503   2.129  15.741  0.8839  1.6758  0.9037
 3299TIP3   OH231387   1.044   0.040   5.536 -0.1607  0.3153  0.3381
 3299TIP3    H131388   1.044  -0.052   5.513  0.9546 -0.4575  3.1574
 3299TIP3    H231389   0.952   0.060   5.555 -0.4110 -0.1935 -0.3322
 3300TIP3   OH231390   3.900   2.768   2.168 -0.1498 -0.1923 -0.0824
 3300TIP3    H131391   3.897   2.706   2.095  2.5601  0.0436 -0.4476
 3300TIP3    H231392   3.890   2.714   2.246 -2.1538 -0.5490 -0.5519
 3301TIP3   OH231393   0.192   1.510   3.895 -0.0374  0.0825 -0.8246
 3301TIP3    H131394   0.198   1.417   3.918  1.7002  0.5130  0.5533
 3301TIP3    H231395   0.270   1.527   3.842  0.8062  1.2190  0.7211
 3302TIP3   OH231396   5.961   3.095   1.950 -0.4360 -0.4689 -0.3910
 3302TIP3    H131397   5.976   3.073   2.042  2.1167  0.8604 -0.4482
 3302TIP3    H231398   5.938   3.188   1.951  2.0319  0.1825 -1.2723
 3303TIP3   OH231399   0.905   0.075  15.357  0.3322  0.4757 -0.0425
 3303TIP3    H131400   0.865   0.151  15.315 -0.0598 -0.0510 -0.6370
 3303TIP3    H231401   0.857   0.066  15.439  1.1353  1.5376  0.5491
 3304TIP3   OH231402   0.260   1.579  13.864  0.4607 -0.1311  0.1138
 3304TIP3    H131403   0.231   1.625  13.785  0.4064  1.5237  1.0603
 3304TIP3    H231404   0.196   1.510  13.877  0.0271  0.0793 -0.8428
 3305TIP3   OH231405   0.215   1.295   2.183 -0.7218 -0.6929  0.1300
 3305TIP3    H131406   0.281   1.228   2.164  1.8951  1.3616  1.6080
 3305TIP3    H231407   0.197   1.335   2.098  1.3002 -0.1271 -0.0698
 3306TIP3   OH231408   0.727   4.754   0.648 -0.9595 -0.4210 -0.0042
 3306TIP3    H131409   0.706   4.820   0.715 -0.4482 -0.2127 -0.0491
 3306TIP3    H231410   0.648   4.750   0.594 -0.7265  0.6892 -0.4397
 3307TIP3   OH231411   6.693   0.653  10.786  0.3502  0.0392 -0.4195
 3307TIP3    H131412   6.600   0.647  10.763  0.2392 -0.6157  0.1751
 3307TIP3    H231413   6.736   0.674  10.703 -0.2505 -0.4087 -0.8561
 3308TIP3   OH231414   5.890   5.084  15.934  0.3448  0.0388  0.3981
 3308TIP3    H131415   5.915   5.023  16.003 -2.4830 -2.8854 -1.0423
 3308TIP3    H231416   5.826   5.142  15.976  0.9589  0.2742  1.0285
 3309TIP3   OH231417   0.024   2.955  15.334 -0.0304 -0.0231  0.5404
 3309TIP3    H131418  -0.024   2.873  15.322 -0.5600  0.2406  0.8250
 3309TIP3    H231419  -0.041   3.016  15.367  0.6250  0.1943  1.4555
 3310TIP3   OH231420   2.620   4.727  15.299  0.0219  0.6673 -0.1413
 3310TIP3    H131421   2.651   4.815  15.276  0.2429  0.9742  1.2589
 3310TIP3    H231422   2.529   4.741  15.324 -0.3844  0.2460 -1.3389
 3311TIP3   OH231423   0.473   0.737  13.248  0.2120 -0.3666 -0.3173
 3311TIP3    H131424   0.440   0.826  13.261 -0.2701 -0.4960 -0.6354
 3311TIP3    H231425   0.400   0.690  13.209  1.1175 -0.3892 -2.0474
 3312TIP3   OH231426   3.676   3.789  14.022 -0.1558 -0.6968  0.1977
 3312TIP3    H131427   3.601   3.847  14.010  0.2745 -0.2865 -0.4984
 3312TIP3    H231428   3.660   3.716  13.962 -0.4299 -1.0484  0.6881
 3313TIP3   OH231429   3.642   2.910  12.698 -0.2277 -0.1630 -0.0715
 3313TIP3    H131430   3.592   2.982  12.661 -1.2303 -0.1025  1.3533
 3313TIP3    H231431   3.724   2.951  12.727  0.7172 -0.2761 -2.4544
 3314TIP3   OH231432   5.382   6.523  12.751 -0.0319  0.1609 -0.2699
 3314TIP3    H131433   5.362   6.560  12.837  2.2120 -0.1773  0.4345
 3314TIP3    H231434   5.473   6.548  12.735  0.9738 -3.4183 -0.5935
 3315TIP3   OH231435   4.680   2.665   3.886  0.4576 -0.1360 -0.3664
 3315TIP3    H131436   4.668   2.756   3.910  0.9186 -0.4667  1.1567
 3315TIP3    H231437   4.774   2.657   3.868  0.6565 -0.6142  0.8424
 3316TIP3   OH231438   5.864   4.512   3.038 -0.0779 -0.4875 -0.1958
 3316TIP3    H131439   5.841   4.600   3.008  0.2130 -0.5099 -0.4946
 3316TIP3    H231440   5.787   4.481   3.086 -0.1351 -0.0224  0.0122
 3317TIP3   OH231441   6.298   2.243   2.630 -0.2018 -0.1342 -0.1749
 3317TIP3    H131442   6.301   2.238   2.534 -2.4322  0.4626 -0.3106
 3317TIP3    H231443   6.316   2.154   2.659 -1.6772 -0.7910 -1.2333
 3318TIP3   OH231444   4.338   4.143   0.496  0.5486  0.2708  0.0013
 3318TIP3    H131445   4.373   4.212   0.553 -1.1135 -0.8902  2.5199
 3318TIP3    H231446   4.406   4.076   0.494  0.7081  0.4203  0.4446
 3319TIP3   OH231447   6.570   6.462   5.896 -0.1579  0.2304 -0.7799
 3319TIP3    H131448   6.599   6.404   5.966  0.5828  1.2149 -0.2458
 3319TIP3    H231449   6.537   6.540   5.941  2.2171  1.7363 -1.5174
 3320TIP3   OH231450   3.456   5.646   5.257  0.6813 -0.1895  0.3286
 3320TIP3    H131451   3.437   5.625   5.165 -1.3888  1.9492  0.2072
 3320TIP3    H231452   3.493   5.734   5.254  1.3740 -0.4403  1.4686
 3321TIP3   OH231453   5.189   2.775  13.162 -0.5975  0.1277  0.0524
 3321TIP3    H131454   5.239   2.812  13.235 -1.1634  1.0838 -0.0394
 3321TIP3    H231455   5.138   2.704  13.202  3.2284 -3.0500 -0.4321
 3322TIP3   OH231456   2.337   0.351  16.498  0.7422 -0.4398  0.3419
 3322TIP3    H131457   2.358   0.417  16.432 -0.0965  0.0271  0.5354
 3322TIP3    H231458   2.404   0.283  16.486  1.1220  0.0553 -0.3965
 3323TIP3   OH231459   0.652   4.100  16.194 -0.0462  0.3084  0.5006
 3323TIP3    H131460   0.667   4.186  16.234  1.5341  0.5390 -0.5480
 3323TIP3    H231461   0.595   4.118  16.119  0.0112  0.4028  0.4789
 3324TIP3   OH231462   4.114   3.575  15.436  0.3533  0.2563  0.2693
 3324TIP3    H131463   4.169   3.649  15.412  0.3869 -0.1303 -0.8824
 3324TIP3    H231464   4.027   3.613  15.452  0.5586  0.6443  0.4566
 3325TIP3   OH231465   5.058   1.070  11.886  0.2279 -0.2803  0.0906
 3325TIP3    H131466   5.084   0.996  11.830 -1.6125  0.4156 -1.7353
 3325TIP3    H231467   5.032   1.029  11.968 -1.5497 -1.8035 -1.1764
 3326TIP3   OH231468   3.773   5.478   4.134 -0.2191 -0.7924  0.1786
 3326TIP3    H131469   3.771   5.382   4.138 -1.0135 -0.7541  0.7799
 3326TIP3    H231470   3.769   5.506   4.225  0.1330 -0.1855  0.0087
 3327TIP3   OH231471   6.314   3.395  16.007  0.1115 -0.2162 -0.0549
 3327TIP3    H131472   6.284   3.482  15.979  2.0394  0.7858  0.8550
 3327TIP3    H231473   6.409   3.404  16.012  0.4234 -2.7422 -1.0668
 3328TIP3   OH231474   5.795   1.163   1.913  0.0138  0.4522 -0.5802
 3328TIP3    H131475   5.865   1.099   1.921  0.3481  0.9508  0.5383
 3328TIP3    H231476   5.779   1.193   2.002  0.0596  2.1257 -1.1186
 3329TIP3   OH231477   0.931   6.164  13.765  0.4145 -0.1109 -0.2733
 3329TIP3    H131478   1.003   6.223  13.788  1.5151 -0.3345 -2.9247
 3329TIP3    H231479   0.964   6.077  13.786  0.5496 -0.1398 -0.6064
 3330TIP3   OH231480   6.778   2.284  16.475 -0.0512 -0.5130  0.6662
 3330TIP3    H131481   6.836   2.255  16.545 -1.3557 -1.2976  1.4544
 3330TIP3    H231482   6.697   2.234  16.490 -0.9971  0.7194 -0.2689
 3331TIP3   OH231483   0.909   2.140  11.124 -1.2288 -0.1110 -0.3974
 3331TIP3    H131484   0.982   2.169  11.179 -0.6723  0.7566 -1.5695
 3331TIP3    H231485   0.831   2.177  11.165 -0.8867 -0.0001  0.1539
 3332TIP3   OH231486   1.595   0.635   3.655 -0.1213 -0.2127  0.0861
 3332TIP3    H131487   1.524   0.579   3.686  0.0129 -0.3643  0.1203
 3332TIP3    H231488   1.654   0.576   3.609  0.4341 -0.2380  0.8257
 3333TIP3   OH231489   4.980   4.870  12.684  0.5815  0.2824 -0.2415
 3333TIP3    H131490   5.036   4.924  12.739 -0.0381  0.3181  0.3630
 3333TIP3    H231491   5.013   4.781  12.696 -0.6734  0.0425  1.6051
 3334TIP3   OH231492   3.194   2.735  17.159 -0.2083  0.3835  0.7849
 3334TIP3    H131493   3.230   2.778  17.082 -1.1647 -0.8696 -0.3749
 3334TIP3    H231494   3.144   2.660  17.125  0.4686 -0.9777  2.6834
 3335TIP3   OH231495   0.353   3.179  17.249  0.4290  0.2833  0.2686
 3335TIP3    H131496   0.377   3.211  17.336 -1.1140  0.9874  0.4579
 3335TIP3    H231497   0.417   3.110  17.230 -0.0457 -0.8269  2.5273
 3336TIP3   OH231498   3.467   1.024   4.355  0.3025 -0.3027  0.6444
 3336TIP3    H131499   3.392   0.996   4.303 -0.3449  0.5544  1.1141
 3336TIP3    H231500   3.512   1.088   4.299  1.9248 -2.4244 -0.5343
 3337TIP3   OH231501   0.281   4.123  16.687 -0.0301 -0.8027 -0.1197
 3337TIP3    H131502   0.215   4.192  16.695  0.5972 -0.4347  2.2072
 3337TIP3    H231503   0.364   4.170  16.684  0.3630 -1.4268  0.8949
 3338TIP3   OH231504   2.301   1.217   2.051  0.3271  0.3859 -0.0353
 3338TIP3    H131505   2.254   1.294   2.019 -1.1973 -0.5507 -0.0848
 3338TIP3    H231506   2.369   1.253   2.108 -0.4464  1.7657  0.0419
 3339TIP3   OH231507   1.815   5.341   1.312  0.1157  0.6095  0.2316
 3339TIP3    H131508   1.875   5.410   1.284  0.2753 -0.2425 -1.5336
 3339TIP3    H231509   1.872   5.267   1.333 -0.4261 -1.0485 -3.8593
 3340TIP3   OH231510   6.162   3.614   0.087 -0.6010  0.0439  0.0691
 3340TIP3    H131511   6.195   3.619   0.177 -0.6378 -1.3975  0.1673
 3340TIP3    H231512   6.238   3.586   0.036 -0.6400  0.6509 -0.3196
 3341TIP3   OH231513   6.229   5.940  11.951 -0.4212 -0.3538 -0.5830
 3341TIP3    H131514   6.225   6.036  11.946  0.9030 -0.2598 -0.0105
 3341TIP3    H231515   6.319   5.919  11.929 -0.9681 -1.5585 -1.7362
 3342TIP3   OH231516   2.521   0.796  14.656 -0.1981 -0.9836  0.5432
 3342TIP3    H131517   2.523   0.730  14.587 -4.5037 -0.4813 -0.1496
 3342TIP3    H231518   2.499   0.878  14.612  2.3013  0.4561  1.8099
 3343TIP3   OH231519   4.983   2.250   0.209  0.2237  0.0237 -0.4782
 3343TIP3    H131520   5.061   2.254   0.263  0.1073 -0.2582 -0.2881
 3343TIP3    H231521   4.922   2.311   0.250  0.4915  0.5592 -0.8677
 3344TIP3   OH231522   3.534   1.036  16.280  0.2149 -0.2541  0.1956
 3344TIP3    H131523   3.488   1.112  16.316 -2.5372 -2.2200  1.0932
 3344TIP3    H231524   3.607   1.022  16.340 -0.6527  0.2963  1.4199
 3345TIP3   OH231525   1.858   0.584  14.461 -0.2247 -0.5930 -0.3793
 3345TIP3    H131526   1.821   0.498  14.439 -0.3705 -0.6191 -0.0330
 3345TIP3    H231527   1.838   0.596  14.554  1.1568 -0.8796 -0.0247
 3346TIP3   OH231528   1.295   2.997   4.787  0.1386  0.9131  0.4457
 3346TIP3    H131529   1.253   3.030   4.707  0.8475  0.8868  0.0620
 3346TIP3    H231530   1.365   2.939   4.756 -0.5499 -0.3057  1.1017
 3347TIP3   OH231531   5.474   2.994  13.046 -0.4162 -0.5606 -0.6328
 3347TIP3    H131532   5.399   3.016  12.992 -0.4732 -0.2942 -0.4416
 3347TIP3    H231533   5.437   2.975  13.132 -0.3915 -1.5601 -0.8362
 3348TIP3   OH231534   1.554   0.449   1.676  0.8303  0.0062  0.4135
 3348TIP3    H131535   1.547   0.474   1.584  1.3803 -0.1426  0.3275
 3348TIP3    H231536   1.487   0.382   1.688 -2.5413  3.3352  1.3177
 3349TIP3   OH231537   1.926   0.308   5.481 -0.2780  0.1299  0.0768
 3349TIP3    H131538   1.959   0.310   5.392 -1.1626  0.5818 -0.2495
 3349TIP3    H231539   1.985   0.248   5.528  1.1808  1.1725 -0.4005
 3350TIP3   OH231540   6.657   3.408  15.005  0.1226  0.0519  0.1658
 3350TIP3    H131541   6.724   3.461  15.049 -0.6448  0.8048  0.4425
 3350TIP3    H231542   6.580   3.416  15.062 -0.5035  0.0359 -0.6805
 3351TIP3   OH231543   5.535   1.746  12.150  0.1140  0.0460  0.5953
 3351TIP3    H131544   5.544   1.786  12.236  0.6335 -0.5928  0.8437
 3351TIP3    H231545   5.464   1.683  12.161  0.4339 -0.3052  0.6598
 3352TIP3   OH231546   1.762   0.555  16.074 -0.7036 -0.2001 -0.0356
 3352TIP3    H131547   1.791   0.646  16.069  0.4202 -0.4863  1.1922
 3352TIP3    H231548   1.740   0.532  15.984 -0.7045  1.1901 -0.4030
 3353TIP3   OH231549   5.060   1.293  14.547 -0.0844 -0.2152  0.5562
 3353TIP3    H131550   5.124   1.336  14.490  1.9112 -3.8469 -0.0974
 3353TIP3    H231551   5.083   1.324  14.635  1.4328 -0.0728  0.1309
 3354TIP3   OH231552   4.651   4.497   2.880 -0.3660 -0.1442  0.0527
 3354TIP3    H131553   4.598   4.539   2.948  0.7246  2.0645 -0.4127
 3354TIP3    H231554   4.670   4.567   2.818 -0.3341 -1.8574 -1.9149
 3355TIP3   OH231555   2.789   1.918  12.289  0.4676  0.9030  0.2141
 3355TIP3    H131556   2.844   1.883  12.359  0.0485  0.7712  0.4844
 3355TIP3    H231557   2.777   2.010  12.310  1.2392  1.1128 -0.2761
 3356TIP3   OH231558   2.558   5.341   5.753  0.1088  0.0011  0.0840
 3356TIP3    H131559   2.517   5.329   5.667 -0.1246 -1.9527  0.4567
 3356TIP3    H231560   2.531   5.264   5.804  0.6098  0.9147  1.7670
 3357TIP3   OH231561   2.871   3.910  11.269 -0.0082 -0.0835 -0.0325
 3357TIP3    H131562   2.840   3.824  11.239  0.0966 -0.6063  1.3071
 3357TIP3    H231563   2.962   3.896  11.294  0.4568  0.7760 -1.2055
 3358TIP3   OH231564   5.571   3.105  11.527  0.1005  0.4370 -0.1375
 3358TIP3    H131565   5.623   3.045  11.581 -0.1009  0.0180 -0.4125
 3358TIP3    H231566   5.606   3.095  11.439 -0.2230  0.4065 -0.2612
 3359TIP3   OH231567   1.969   0.343  14.952  0.1391 -0.1535 -0.6906
 3359TIP3    H131568   1.905   0.414  14.943 -0.6061 -0.6785  0.3541
 3359TIP3    H231569   2.054   0.384  14.934 -0.2944  0.9899 -0.1617
 3360TIP3   OH231570   1.625   6.268   4.741  0.1488 -0.0693 -0.1104
 3360TIP3    H131571   1.544   6.218   4.733  0.0310  0.1889 -0.5717
 3360TIP3    H231572   1.681   6.214   4.797 -0.5923  0.0784  0.7724
 3361TIP3   OH231573   5.262   4.617  12.348  0.6116  0.2658 -0.1378
 3361TIP3    H131574   5.167   4.605  12.357  0.5057  1.5551  0.5673
 3361TIP3    H231575   5.282   4.581  12.261 -0.2443 -1.5275  0.3796
 3362TIP3   OH231576   4.945   4.290   5.422 -0.1630 -0.2851 -0.0281
 3362TIP3    H131577   4.919   4.372   5.465  0.5198  0.1131 -0.3595
 3362TIP3    H231578   5.023   4.262   5.469  1.4909  0.9771 -1.9935
 3363TIP3   OH231579   1.844   6.153   4.098 -0.0155 -1.4212  0.8842
 3363TIP3    H131580   1.818   6.134   4.008 -1.4996  1.2853  0.6777
 3363TIP3    H231581   1.938   6.138   4.100  0.1436 -0.7994 -1.3201
 3364TIP3   OH231582   3.475   5.325   2.589  0.2193 -0.0876 -0.3234
 3364TIP3    H131583   3.446   5.328   2.681 -0.9949 -0.0864 -0.7012
 3364TIP3    H231584   3.469   5.232   2.566  0.7472 -0.1198 -0.3349
 3365TIP3   OH231585   4.899   3.589  13.980 -0.4585 -0.4368  0.6158
 3365TIP3    H131586   4.842   3.662  13.953  0.7353  0.6623  1.0407
 3365TIP3    H231587   4.943   3.622  14.058  2.1158 -0.6012 -0.7379
 3366TIP3   OH231588   0.645   0.164   3.988 -0.2624 -0.2882 -0.5493
 3366TIP3    H131589   0.654   0.162   4.083  2.7798 -1.9732 -0.7678
 3366TIP3    H231590   0.603   0.081   3.966  0.4195 -0.5962 -0.7337
 3367TIP3   OH231591   2.378   1.443  15.407 -0.0968 -0.3818 -0.5476
 3367TIP3    H131592   2.360   1.357  15.443  0.8679 -0.1536  0.5165
 3367TIP3    H231593   2.308   1.458  15.343 -1.5829 -1.0076  0.8808
 3368TIP3   OH231594   3.555   1.918  16.530 -0.3257 -0.4593  0.4017
 3368TIP3    H131595   3.523   1.992  16.582 -1.6394 -0.5040 -0.2982
 3368TIP3    H231596   3.541   1.841  16.586 -0.7789 -0.3920  0.3831
 3369TIP3   OH231597   3.597   5.766  11.228  0.2303 -0.2306 -0.6662
 3369TIP3    H131598   3.528   5.750  11.164 -1.0440  0.2960  0.5487
 3369TIP3    H231599   3.617   5.679  11.264 -0.8940 -0.1783  0.0860
 3370TIP3   OH231600   4.217   3.344   4.707  0.2698  0.1013  0.3219
 3370TIP3    H131601   4.136   3.371   4.750  0.8176  0.7973  0.9256
 3370TIP3    H231602   4.193   3.334   4.615 -0.7830 -0.8503  0.6770
 3371TIP3   OH231603   5.457   4.194  12.741 -0.4094 -0.7234  0.1122
 3371TIP3    H131604   5.374   4.153  12.716 -0.4168  1.4106 -3.8488
 3371TIP3    H231605   5.522   4.124  12.732 -1.0869 -1.1202 -1.9930
 3372TIP3   OH231606   4.434   0.571  12.951  0.5622 -0.5267 -0.3368
 3372TIP3    H131607   4.342   0.597  12.939  0.2227 -1.6470 -0.1870
 3372TIP3    H231608   4.455   0.599  13.040  0.9075  1.3159 -0.9766
 3373TIP3   OH231609   5.750   4.265  13.249  0.5434 -0.0428  0.5542
 3373TIP3    H131610   5.845   4.267  13.243  0.4178  0.8742 -1.4125
 3373TIP3    H231611   5.723   4.357  13.254 -0.3086 -0.2210 -0.4703
 3374TIP3   OH231612   5.548   6.390   5.212 -0.4992 -0.0457 -0.2885
 3374TIP3    H131613   5.619   6.445   5.181 -0.6611  0.1290 -0.3475
 3374TIP3    H231614   5.501   6.365   5.133 -0.8544  0.3190 -0.1934
 3375TIP3   OH231615   3.086   4.707   4.503  0.2899 -0.0659  0.4893
 3375TIP3    H131616   3.087   4.625   4.453 -0.4453 -0.0736  0.4741
 3375TIP3    H231617   2.994   4.734   4.502  0.4760  0.5816  0.7871
 3376TIP3   OH231618   5.336   0.972   1.901 -0.1330 -0.3848 -0.1501
 3376TIP3    H131619   5.371   0.971   1.812 -0.0118 -1.9686 -0.0908
 3376TIP3    H231620   5.410   1.000   1.955 -0.1088  0.2373 -0.5001
 3377TIP3   OH231621   0.058   1.513  14.143  0.0001 -0.0890  0.5834
 3377TIP3    H131622   0.099   1.518  14.056  0.7687 -1.6833  0.8302
 3377TIP3    H231623   0.063   1.602  14.177 -1.8663  0.9357 -1.6933
 3378TIP3   OH231624   6.068   5.785   2.916 -0.6386 -0.5363  0.2747
 3378TIP3    H131625   6.161   5.765   2.926 -0.0841  1.7647 -0.1503
 3378TIP3    H231626   6.025   5.729   2.981  1.1246 -0.8611  1.1929
 3379TIP3   OH231627   4.009   3.766   0.813 -0.3629 -0.0690 -0.4964
 3379TIP3    H131628   4.011   3.672   0.800  0.5443 -0.1717  0.3115
 3379TIP3    H231629   3.916   3.790   0.806 -0.8623 -1.3316  1.3533
 3380TIP3   OH231630   0.576   0.705   5.011 -0.7772  0.3827 -0.0982
 3380TIP3    H131631   0.515   0.686   4.940 -0.1034  0.9607 -0.8463
 3380TIP3    H231632   0.662   0.689   4.972 -0.3834  1.1714  0.4449
 3381TIP3   OH231633   6.063   1.665  13.778 -0.1557 -0.2091 -0.1136
 3381TIP3    H131634   5.993   1.640  13.838 -2.8127  1.5333 -2.3814
 3381TIP3    H231635   6.111   1.583  13.763 -1.2136 -1.2794  2.0289
 3382TIP3   OH231636   0.678   3.670   0.063  0.0986  0.3710 -0.5374
 3382TIP3    H131637   0.662   3.669  -0.032 -1.4256  1.3236 -0.2834
 3382TIP3    H231638   0.768   3.703   0.071 -0.2664  1.6265 -1.5709
 3383TIP3   OH231639   1.968   0.519   5.802  0.1468  0.3245  0.0976
 3383TIP3    H131640   1.887   0.515   5.852  0.6589  0.1088  0.9086
 3383TIP3    H231641   1.993   0.427   5.789 -1.3434  0.2798 -2.7680
 3384TIP3   OH231642   3.013   4.031  15.169  0.8263 -0.2002  0.0887
 3384TIP3    H131643   3.024   3.942  15.203 -2.0347  0.1815  2.1997
 3384TIP3    H231644   2.920   4.037  15.148  1.0205  2.2353 -0.2343
 3385TIP3   OH231645   6.512   2.682  12.645 -0.6351  0.0769 -0.1290
 3385TIP3    H131646   6.532   2.694  12.737 -0.5052  0.5744 -0.2207
 3385TIP3    H231647   6.419   2.703  12.637 -0.8073 -0.6202  0.0060
 3386TIP3   OH231648   3.382   6.318   6.427 -0.1581 -0.0526  0.3724
 3386TIP3    H131649   3.461   6.297   6.477 -0.0140  2.0976  1.1062
 3386TIP3    H231650   3.415   6.348   6.342 -0.1042  1.8478  1.0423
 3387TIP3   OH231651   5.213   3.595  13.533 -0.8389 -0.6770 -0.1214
 3387TIP3    H131652   5.124   3.579  13.567 -1.3315 -1.0488 -1.5599
 3387TIP3    H231653   5.269   3.592  13.610 -2.0990 -0.3152  0.8239
 3388TIP3   OH231654   6.001   2.552   2.212  0.1907  0.6556 -0.1935
 3388TIP3    H131655   5.957   2.483   2.163 -2.2889  1.9395  0.1204
 3388TIP3    H231656   6.073   2.580   2.155 -0.3745 -0.3978 -1.4544
 3389TIP3   OH231657   1.318   2.829   2.357  0.1383  0.1494 -0.1499
 3389TIP3    H131658   1.395   2.820   2.414  0.5640 -1.1744 -0.9103
 3389TIP3    H231659   1.253   2.874   2.411 -0.5272 -3.7174  2.4375
 3390TIP3   OH231660   2.187   1.321   0.997  0.2923  0.4757 -0.2261
 3390TIP3    H131661   2.243   1.243   1.003  0.1068  0.2191 -1.5740
 3390TIP3    H231662   2.234   1.379   0.938 -0.1098  0.9195 -0.1081
 3391TIP3   OH231663   5.806   0.542   4.861  0.1477 -0.2262  0.8466
 3391TIP3    H131664   5.805   0.625   4.907 -0.4806  0.3969 -0.2600
 3391TIP3    H231665   5.891   0.538   4.819 -0.3857  0.5501 -0.3191
 3392TIP3   OH231666   3.613   0.101   4.019 -0.7160 -0.3300 -0.3457
 3392TIP3    H131667   3.660   0.171   3.974  0.5964 -0.9535  0.0274
 3392TIP3    H231668   3.548   0.147   4.073  1.9526  0.8255  2.0402
 3393TIP3   OH231669   3.874   2.497  15.133 -0.1203 -0.4425 -0.6970
 3393TIP3    H131670   3.893   2.587  15.155  0.1976 -0.2343 -1.7725
 3393TIP3    H231671   3.779   2.489  15.142 -0.1369 -0.0204 -0.5263
 3394TIP3   OH231672   4.047   1.658   0.565 -0.7511 -0.2465  0.6236
 3394TIP3    H131673   3.966   1.679   0.520  1.5757 -0.6181 -4.0776
 3394TIP3    H231674   4.038   1.567   0.592 -2.1479 -0.0958  0.6544
 3395TIP3   OH231675   2.845   0.221   2.612 -0.3873 -0.0456  0.5611
 3395TIP3    H131676   2.763   0.246   2.570  0.1694  0.5689 -0.1647
 3395TIP3    H231677   2.906   0.292   2.591  1.0419 -1.6797 -1.0015
 3396TIP3   OH231678   5.549   5.301  11.778 -0.2660 -0.2511  0.0076
 3396TIP3    H131679   5.584   5.375  11.828  0.0536 -0.5010  0.1524
 3396TIP3    H231680   5.454   5.312  11.783 -0.2372 -0.2249  0.5991
 3397TIP3   OH231681   5.434   1.604   0.726 -0.0914  0.3990  0.1170
 3397TIP3    H131682   5.346   1.602   0.690  0.0532  1.3694 -0.3219
 3397TIP3    H231683   5.424   1.645   0.812 -0.2554 -0.7313  0.6399
 3398TIP3   OH231684   3.765   4.348  13.257 -0.9800 -0.0792 -0.1210
 3398TIP3    H131685   3.670   4.347  13.241 -0.6446 -0.2245 -2.2494
 3398TIP3    H231686   3.787   4.440  13.267 -1.0926  0.0909 -1.3617
 3399TIP3   OH231687   5.800   2.607  14.090 -0.3485 -0.2230  0.1636
 3399TIP3    H131688   5.715   2.563  14.095 -0.8538  0.8521  1.0291
 3399TIP3    H231689   5.850   2.553  14.028 -0.7981 -2.2755  1.5290
 3400TIP3   OH231690   1.617   1.662   6.552 -0.0364 -0.0409  0.0865
 3400TIP3    H131691   1.630   1.705   6.467  1.5098 -0.1944  0.2201
 3400TIP3    H231692   1.524   1.672   6.571 -0.8196 -1.7126 -2.5528
 3401TIP3   OH231693   6.363   1.262  10.957 -0.4010 -0.5111  0.5116
 3401TIP3    H131694   6.356   1.204  10.881  0.1354 -0.6560  0.5666
 3401TIP3    H231695   6.351   1.350  10.921  1.5487 -0.4412 -0.0203
 3402TIP3   OH231696   1.680   3.526  11.096  0.3752  0.2240 -0.5793
 3402TIP3    H131697   1.681   3.448  11.152  2.0842  0.5685 -0.1039
 3402TIP3    H231698   1.687   3.491  11.007  0.9102 -0.1848 -0.3814
 3403TIP3   OH231699   3.001   3.820  14.157 -0.2759  0.4662  0.3592
 3403TIP3    H131700   3.082   3.775  14.135  0.2579  1.1363  0.9168
 3403TIP3    H231701   3.015   3.910  14.127 -0.3470  0.8758  1.5293
 3404TIP3   OH231702   1.644   5.387   5.216  0.0140  0.2023  0.2488
 3404TIP3    H131703   1.596   5.392   5.299  0.4230 -0.1957  0.5139
 3404TIP3    H231704   1.724   5.437   5.232  0.1147  0.0836  0.1092
 3405TIP3   OH231705   4.898   0.655  13.193 -0.2711  0.6355 -0.1313
 3405TIP3    H131706   4.853   0.739  13.185 -0.1988  0.8513  1.5671
 3405TIP3    H231707   4.976   0.664  13.138 -0.9473  1.1916 -1.0124
 3406TIP3   OH231708   0.592   1.116   5.672  0.1183  0.1434 -0.3649
 3406TIP3    H131709   0.514   1.117   5.728 -0.3106 -1.6247 -0.9080
 3406TIP3    H231710   0.651   1.054   5.713  0.3099 -0.2315 -1.1866
 3407TIP3   OH231711   5.307   0.312   2.612  0.6206  0.0599  0.6743
 3407TIP3    H131712   5.321   0.372   2.539 -1.2356  1.7804  1.6718
 3407TIP3    H231713   5.212   0.296   2.612  0.9123 -1.7213  1.3165
 3408TIP3   OH231714   5.037   1.738   2.445 -0.3877 -0.6153  0.3122
 3408TIP3    H131715   4.990   1.808   2.399 -0.8237 -2.0730 -1.5428
 3408TIP3    H231716   4.970   1.692   2.494 -0.6649 -1.7184 -1.0716
 3409TIP3   OH231717   0.806   4.084  17.180  0.2355  0.6215 -0.4279
 3409TIP3    H131718   0.883   4.039  17.144  2.2326  1.0719  3.0500
 3409TIP3    H231719   0.751   4.014  17.215  1.4164  0.5883  1.3992
 3410TIP3   OH231720   6.581   6.329  13.674 -0.1614 -0.1724 -0.3895
 3410TIP3    H131721   6.563   6.292  13.588 -1.7466 -1.9119  0.6681
 3410TIP3    H231722   6.618   6.257  13.725 -1.4114  0.2016  1.0863
 3411TIP3   OH231723   4.205   3.407  13.969  0.3584  0.1052 -0.4102
 3411TIP3    H131724   4.115   3.390  13.998  0.1553 -0.9314 -1.6020
 3411TIP3    H231725   4.209   3.372  13.880  0.5354  4.5898 -2.2937
 3412TIP3   OH231726   2.338   3.911  13.560  0.0532  0.2383 -0.2130
 3412TIP3    H131727   2.431   3.934  13.567 -0.3560  2.5200 -1.6760
 3412TIP3    H231728   2.307   3.908  13.651  1.4779 -0.3319  0.2742
 3413TIP3   OH231729   2.529   4.458   3.372 -0.2144  0.4284  0.2074
 3413TIP3    H131730   2.540   4.505   3.290 -2.6493  1.0482  0.1805
 3413TIP3    H231731   2.616   4.457   3.411  0.7571  1.0542 -1.8776
 3414TIP3   OH231732   1.608   2.408  14.943 -0.1185  0.0659  0.3513
 3414TIP3    H131733   1.652   2.459  14.875 -0.7890  0.2488  0.0488
 3414TIP3    H231734   1.530   2.373  14.900  0.8970 -2.1259  0.2631
 3415TIP3   OH231735   3.508   6.631  12.864 -0.0890  0.2175 -0.1961
 3415TIP3    H131736   3.484   6.616  12.955 -0.1146  0.6247 -0.1360
 3415TIP3    H231737   3.426   6.652  12.820 -0.2930 -1.3456 -0.6037
 3416TIP3   OH231738   0.886   3.040  14.949  0.0058 -0.0916 -0.5376
 3416TIP3    H131739   0.938   3.009  14.875  1.0667 -2.3135  1.0537
 3416TIP3    H231740   0.952   3.072  15.011 -0.7867  0.6950 -0.1068
 3417TIP3   OH231741   5.842   3.077  10.918 -0.0833 -0.2240 -0.1680
 3417TIP3    H131742   5.795   3.040  10.993 -0.4027 -0.5699 -0.5354
 3417TIP3    H231743   5.914   3.126  10.957 -2.3490  2.6758  0.5686
 3418TIP3   OH231744   2.297   0.522   3.483 -0.1960  0.2160 -0.2715
 3418TIP3    H131745   2.275   0.565   3.400  0.9576  0.7739 -0.2941
 3418TIP3    H231746   2.358   0.452   3.459 -0.4300 -0.0873  0.0192
 3419TIP3   OH231747   6.727   5.961  16.702  0.4624 -0.5249 -0.3387
 3419TIP3    H131748   6.729   5.888  16.641  0.9314 -0.6675 -0.1577
 3419TIP3    H231749   6.699   6.036  16.650 -0.6459 -0.9687 -0.3760
 3420TIP3   OH231750   2.501   1.077   4.183  0.3071 -0.2632  0.7852
 3420TIP3    H131751   2.474   1.148   4.124  0.4779  1.1360  2.3393
 3420TIP3    H231752   2.586   1.105   4.217  2.0391 -2.8840 -1.2330
 3421TIP3   OH231753   5.724   6.553   5.089  0.1227 -0.8076  0.1224
 3421TIP3    H131754   5.737   6.521   4.999 -1.8428 -1.2510 -0.0174
 3421TIP3    H231755   5.661   6.625   5.080 -0.9487 -1.5801  1.2658
 3422TIP3   OH231756   6.225   2.711   5.946 -0.3493 -0.3279 -0.2908
 3422TIP3    H131757   6.247   2.619   5.932  0.9575 -0.1517  0.4816
 3422TIP3    H231758   6.241   2.726   6.039 -0.0567  0.8005 -0.5095
 3423TIP3   OH231759   6.698   0.479   4.245  0.1935  0.5249  0.1937
 3423TIP3    H131760   6.618   0.518   4.280  0.2950  0.1227  0.8882
 3423TIP3    H231761   6.687   0.385   4.260  1.0931  0.5234  0.9233
 3424TIP3   OH231762   4.331   5.460  13.265  0.2788 -0.0721 -0.2160
 3424TIP3    H131763   4.424   5.456  13.288  0.7382  1.6096 -1.7120
 3424TIP3    H231764   4.299   5.371  13.280  1.8137 -0.3559  1.5680
 3425TIP3   OH231765   2.348   2.032   0.569  0.3181 -0.1414  0.3473
 3425TIP3    H131766   2.291   2.055   0.642 -0.8048  0.8368 -0.8183
 3425TIP3    H231767   2.394   2.113   0.548  1.1580 -0.5914  0.3967
 3426TIP3   OH231768   5.091   3.277  16.338  0.2936 -0.2228 -0.0708
 3426TIP3    H131769   5.181   3.264  16.308  0.8349  1.9898  0.4988
 3426TIP3    H231770   5.082   3.219  16.414  1.8637  0.9016  1.0091
 3427TIP3   OH231771   4.793   5.308  14.533  0.4793 -0.2404 -0.0383
 3427TIP3    H131772   4.857   5.370  14.497  0.8867 -0.5118  0.2189
 3427TIP3    H231773   4.777   5.247  14.461 -0.6340  0.7076 -0.6129
 3428TIP3   OH231774   5.038   3.292  11.159  0.2236 -0.2458 -0.4051
 3428TIP3    H131775   5.028   3.211  11.209  1.2572  0.3545  0.7915
 3428TIP3    H231776   5.047   3.361  11.225  0.5453  0.6925 -1.4093
 3429TIP3   OH231777   3.321   4.160  16.360 -0.5222 -0.3997 -0.1552
 3429TIP3    H131778   3.383   4.214  16.310 -0.9050  1.4460  1.3332
 3429TIP3    H231779   3.337   4.071  16.328  1.4508  0.3218 -1.2885
 3430TIP3   OH231780   2.504   6.055  10.954 -0.0037  0.4067  0.4013
 3430TIP3    H131781   2.420   6.023  10.921 -0.8465  2.9182  0.0301
 3430TIP3    H231782   2.496   6.049  11.049  0.1727 -1.2160  0.3304
 3431TIP3   OH231783   3.201   4.732   4.950  0.3871  0.0058  0.2981
 3431TIP3    H131784   3.296   4.739   4.941  0.4218 -0.3927  0.3705
 3431TIP3    H231785   3.168   4.817   4.920  0.9210  1.1719  2.8680
 3432TIP3   OH231786   1.134   1.191   2.545  0.3786  0.4540  0.1282
 3432TIP3    H131787   1.137   1.097   2.524  1.2081  0.2954  0.9207
 3432TIP3    H231788   1.050   1.203   2.589  0.2362  0.0959 -0.0410
 3433TIP3   OH231789   5.878   5.090   2.507 -0.4673  0.1307  0.1000
 3433TIP3    H131790   5.871   5.150   2.581 -1.0210 -0.3080  0.4176
 3433TIP3    H231791   5.883   5.003   2.548 -0.2721 -0.0778 -0.3645
 3434TIP3   OH231792   0.976   2.967   1.993 -0.1000 -0.5257 -0.2482
 3434TIP3    H131793   0.953   2.874   1.998  2.1902 -1.0963  0.2372
 3434TIP3    H231794   1.041   2.979   2.062  0.0249  1.3308 -0.6727
 3435TIP3   OH231795   0.323   1.004  15.135 -0.6218 -0.6330  0.2385
 3435TIP3    H131796   0.383   1.070  15.102 -0.5650 -1.0699 -0.5404
 3435TIP3    H231797   0.251   1.004  15.072 -0.8746 -0.9421  0.5258
 3436TIP3   OH231798   4.796   1.139  11.750  0.4958 -0.8785 -0.1894
 3436TIP3    H131799   4.876   1.120  11.799  2.7141  2.5438 -2.3346
 3436TIP3    H231800   4.766   1.223  11.784 -2.7792 -2.4677  1.1602
 3437TIP3   OH231801   0.768   6.151   0.227  0.7234 -0.2958 -0.1572
 3437TIP3    H131802   0.712   6.213   0.181 -0.3807 -0.3714  1.0396
 3437TIP3    H231803   0.815   6.203   0.292  0.6508 -0.5115  0.0740
 3438TIP3   OH231804   4.144   0.810   2.518  0.7931  0.3816  0.2526
 3438TIP3    H131805   4.186   0.888   2.481 -0.3972  0.8397 -0.1864
 3438TIP3    H231806   4.095   0.843   2.593  0.3239  0.0544  0.0967
 3439TIP3   OH231807   1.438   3.732  12.318  0.1589 -0.3570  0.5078
 3439TIP3    H131808   1.419   3.662  12.380 -1.5550 -0.0908  0.3182
 3439TIP3    H231809   1.384   3.711  12.241 -1.0090  1.5930  0.7613
 3440TIP3   OH231810   1.137   3.728   2.834 -0.0182 -0.1820  0.3091
 3440TIP3    H131811   1.117   3.707   2.743 -0.4845 -0.4568  0.4750
 3440TIP3    H231812   1.116   3.821   2.842 -0.6319 -0.3260  0.3220
 3441TIP3   OH231813   4.064   6.283  15.306  0.3379 -0.1524 -0.6712
 3441TIP3    H131814   3.997   6.310  15.369  0.6629 -1.4679  0.2809
 3441TIP3    H231815   4.104   6.364  15.276 -0.3753  0.5391  0.2222
 3442TIP3   OH231816   6.361   5.279  14.151 -0.2422 -0.3964  0.2599
 3442TIP3    H131817   6.376   5.324  14.068 -0.7345  1.2889  1.0544
 3442TIP3    H231818   6.338   5.189  14.126 -1.5593  0.3945 -1.4752
 3443TIP3   OH231819   5.959   1.903  12.746  0.2764  0.2476  1.0291
 3443TIP3    H131820   5.916   1.984  12.774 -0.9950 -0.5196  1.3207
 3443TIP3    H231821   5.897   1.862  12.685  1.6088  0.2807 -0.3819
 3444TIP3   OH231822   2.967   4.054  14.014 -0.3524  0.6787  0.1549
 3444TIP3    H131823   2.918   4.086  13.938  0.0100  2.5141  0.6909
 3444TIP3    H231824   2.933   4.104  14.088  0.3255 -0.0764  0.9861
 3445TIP3   OH231825   0.365   1.352  16.631 -0.4788 -0.1229 -0.3487
 3445TIP3    H131826   0.377   1.287  16.700 -2.6251  1.2262  1.3804
 3445TIP3    H231827   0.270   1.363  16.626 -0.1437  3.8881  0.4148
 3446TIP3   OH231828   1.199   0.556  16.582 -0.1007  0.0937  0.1830
 3446TIP3    H131829   1.285   0.592  16.563 -0.3544  1.3707  1.3733
 3446TIP3    H231830   1.216   0.482  16.639  0.2622 -0.2018 -0.3051
 3447TIP3   OH231831   2.905   6.076   2.856 -0.1160 -0.0595  0.0663
 3447TIP3    H131832   2.882   6.056   2.766  0.4504  2.5613 -0.7186
 3447TIP3    H231833   2.822   6.067   2.904 -0.3889 -1.5953 -0.6814
 3448TIP3   OH231834   6.446   5.093   2.677  0.3156 -0.4753  0.3763
 3448TIP3    H131835   6.455   5.138   2.593 -0.7569 -0.0863  0.4696
 3448TIP3    H231836   6.414   5.006   2.655 -3.6152  0.8374  0.6183
 3449TIP3   OH231837   2.453   6.337  16.969  0.2067 -0.0593  0.0845
 3449TIP3    H131838   2.408   6.410  17.013  1.5882  1.7233 -1.3491
 3449TIP3    H231839   2.490   6.285  17.041 -1.2342  0.3566  1.1575
 3450TIP3   OH231840   4.817   3.437   5.615  1.0474 -0.3363  0.1533
 3450TIP3    H131841   4.844   3.529   5.614  1.4782 -0.4606 -3.1352
 3450TIP3    H231842   4.845   3.405   5.701 -1.3023  3.1920  2.3659
 3451TIP3   OH231843   0.629   4.891   4.228 -0.6984 -0.3007  0.7382
 3451TIP3    H131844   0.536   4.884   4.251 -2.2759 -2.5573 -5.3640
 3451TIP3    H231845   0.666   4.808   4.257 -1.1979 -0.5161  0.7802
 3452TIP3   OH231846   6.035   4.230  11.141  0.7798  0.4621 -0.2334
 3452TIP3    H131847   6.097   4.205  11.073  2.0835 -0.3308  1.2076
 3452TIP3    H231848   6.022   4.149  11.192 -0.8207  0.8237 -0.0495
 3453TIP3   OH231849   1.864   1.000   3.360 -0.3264 -0.0093  0.8382
 3453TIP3    H131850   1.794   0.935   3.355  0.0792 -0.3083 -1.4811
 3453TIP3    H231851   1.941   0.956   3.326 -0.0349  1.6638 -0.7507
 3454TIP3   OH231852   2.931   0.699  15.019  0.5771 -0.6712 -0.2409
 3454TIP3    H131853   2.966   0.786  15.005 -1.0916 -0.1760 -1.5104
 3454TIP3    H231854   2.921   0.692  15.114  2.3333 -0.1600 -0.0009
 3455TIP3   OH231855   5.859   1.161  13.301 -0.6568 -0.7713 -0.2207
 3455TIP3    H131856   5.865   1.081  13.352 -0.6001 -0.3215  0.4826
 3455TIP3    H231857   5.768   1.162  13.269 -0.7913 -0.8828  0.1543
 3456TIP3   OH231858   5.021   2.220   0.523 -0.1075  0.2732  0.3908
 3456TIP3    H131859   4.982   2.307   0.527  1.2187  0.9836 -1.4071
 3456TIP3    H231860   5.097   2.231   0.467 -0.9070 -2.4117 -1.3068
 3457TIP3   OH231861   4.521   5.596   3.310 -0.4734 -0.2621  0.6028
 3457TIP3    H131862   4.498   5.562   3.397  2.5078 -1.4176  0.9943
 3457TIP3    H231863   4.610   5.630   3.321 -0.4952  0.6036 -1.7438
 3458TIP3   OH231864   1.599   5.348  13.260 -0.3784  0.1242  0.0046
 3458TIP3    H131865   1.583   5.304  13.344  0.0213  0.8470  0.4638
 3458TIP3    H231866   1.668   5.411  13.279 -1.6804  1.7154 -0.3977
 3459TIP3   OH231867   2.815   1.195  15.374  0.9271 -0.1103 -0.3516
 3459TIP3    H131868   2.822   1.254  15.450 -0.9961 -0.7904  0.3743
 3459TIP3    H231869   2.883   1.130  15.389  0.6439 -0.1744  0.7522
 3460TIP3   OH231870   0.420   5.378   3.411 -0.6292 -0.7080 -0.0917
 3460TIP3    H131871   0.393   5.436   3.340  0.1557  0.1983  0.3396
 3460TIP3    H231872   0.367   5.404   3.486 -0.3221 -0.5918  0.0855
 3461TIP3   OH231873   2.959   3.745   2.869  0.0493 -0.3230 -0.3207
 3461TIP3    H131874   2.910   3.752   2.950 -2.0651  0.5296 -1.6268
 3461TIP3    H231875   2.993   3.656   2.869 -3.2126 -1.6578 -0.2721
 3462TIP3   OH231876   3.339   0.955   1.848 -0.6345 -0.5672  0.1716
 3462TIP3    H131877   3.277   0.899   1.803  0.5616  0.2753 -2.6299
 3462TIP3    H231878   3.401   0.895   1.889  0.5488 -1.3337 -2.6747
 3463TIP3   OH231879   5.267   2.238  16.758 -0.0614 -0.8686 -0.0923
 3463TIP3    H131880   5.227   2.306  16.704  3.4138  0.0279 -1.6789
 3463TIP3    H231881   5.217   2.241  16.840 -1.0547  2.4823 -0.7104
 3464TIP3   OH231882   0.938   4.450  14.007  0.3833  0.4746 -0.1241
 3464TIP3    H131883   0.881   4.377  13.981 -1.5117  2.1814 -0.9387
 3464TIP3    H231884   1.025   4.425  13.975 -0.2972 -1.2305 -0.7307
 3465TIP3   OH231885   1.198   2.607  10.774 -0.7100 -0.3257 -0.1130
 3465TIP3    H131886   1.124   2.551  10.795  0.6208 -2.0810  0.0901
 3465TIP3    H231887   1.246   2.558  10.706 -0.2792  1.2265 -0.9462
 3466TIP3   OH231888   3.163   1.413  15.495  0.0024 -0.6006  0.2955
 3466TIP3    H131889   3.256   1.390  15.503 -0.1120 -0.8226  1.0177
 3466TIP3    H231890   3.138   1.379  15.409  0.8078  0.2439 -0.2849
 3467TIP3   OH231891   6.764   6.086  17.104 -0.0778 -0.6806  0.3043
 3467TIP3    H131892   6.848   6.091  17.058 -1.4278  1.0094 -2.1355
 3467TIP3    H231893   6.713   6.023  17.052 -0.6282 -1.0031  1.2340
 3468TIP3   OH231894   4.258   1.408   5.779 -0.1590  0.0336 -0.4165
 3468TIP3    H131895   4.289   1.498   5.769  0.3839 -0.0432  0.5374
 3468TIP3    H231896   4.328   1.364   5.827 -0.8905 -0.6313  0.0495
 3469TIP3   OH231897   3.850   4.511  17.103 -0.5035 -0.5307  0.0935
 3469TIP3    H131898   3.762   4.498  17.137 -1.0873  1.8420 -0.4001
 3469TIP3    H231899   3.890   4.424  17.105 -3.0693 -1.7643 -0.2910
 3470TIP3   OH231900   2.729   0.702   1.030  0.2871 -0.5049 -0.2070
 3470TIP3    H131901   2.808   0.684   0.979  0.4725 -2.1170  0.5890
 3470TIP3    H231902   2.702   0.615   1.061 -1.4322  0.1145  0.0517
 3471TIP3   OH231903   1.718   5.154   4.852 -0.1144  0.2314 -0.3227
 3471TIP3    H131904   1.731   5.230   4.795  2.2472 -0.8089 -1.1906
 3471TIP3    H231905   1.759   5.179   4.935  0.4062  0.0106 -0.5144
 3472TIP3   OH231906   1.305   2.572   4.560  0.1785 -0.2730  0.2979
 3472TIP3    H131907   1.339   2.640   4.501 -0.8398  0.4030  0.4705
 3472TIP3    H231908   1.325   2.605   4.648  2.0212 -1.4517  0.3563
 3473TIP3   OH231909   2.765   3.560  14.390  0.6048  0.7856  0.4692
 3473TIP3    H131910   2.819   3.518  14.323  0.3753  0.3548  0.5524
 3473TIP3    H231911   2.733   3.641  14.349 -1.2219 -0.4784 -0.6817
 3474TIP3   OH231912   4.945   6.291  12.673  0.3776 -0.1183 -0.3387
 3474TIP3    H131913   4.973   6.211  12.718  0.5930 -0.2058 -0.6298
 3474TIP3    H231914   4.922   6.351  12.744  1.1355 -0.1046 -0.1008
 3475TIP3   OH231915   0.380   5.280   1.370 -0.3677 -0.1262  0.4445
 3475TIP3    H131916   0.432   5.281   1.290  0.3729 -0.5360  0.9129
 3475TIP3    H231917   0.352   5.371   1.382 -1.4667 -0.2687 -0.9014
 3476TIP3   OH231918   2.575   3.124   0.630  0.6800 -0.1864 -0.2284
 3476TIP3    H131919   2.565   3.111   0.725 -0.4910 -0.6446 -0.4059
 3476TIP3    H231920   2.652   3.073   0.607  1.0465  0.0327  0.5089
 3477TIP3   OH231921   3.468   1.970  15.574 -0.1713 -0.4247  0.0373
 3477TIP3    H131922   3.426   2.039  15.523 -0.2298 -1.5988 -1.5448
 3477TIP3    H231923   3.559   1.997  15.582  0.0854 -0.7664 -1.6624
 3478TIP3   OH231924   2.473   2.910  13.061  0.4145  0.6022 -0.3102
 3478TIP3    H131925   2.542   2.913  13.127  0.2205  2.1034 -0.1562
 3478TIP3    H231926   2.404   2.966  13.097 -0.8265 -0.7809 -0.5222
 3479TIP3   OH231927   2.942   6.563  14.603 -0.3707  0.6039 -0.1976
 3479TIP3    H131928   2.943   6.494  14.537  0.6686 -0.4007  0.8449
 3479TIP3    H231929   2.977   6.640  14.558  1.2014 -0.3136 -0.5603
 3480TIP3   OH231930   4.944   6.109  15.639 -0.0846  0.3306 -0.6059
 3480TIP3    H131931   4.956   6.101  15.544  0.1597  1.7917 -0.7069
 3480TIP3    H231932   5.030   6.134  15.672  0.0198 -0.9519  0.1017
 3481TIP3   OH231933   3.503   3.861   3.080 -0.1963  0.2639  0.1482
 3481TIP3    H131934   3.565   3.798   3.114  0.0102 -0.4322 -1.4548
 3481TIP3    H231935   3.417   3.823   3.098 -0.1118  0.2863  0.5994
 3482TIP3   OH231936   6.113   2.184  11.663  0.4762  0.2198  0.3598
 3482TIP3    H131937   6.036   2.170  11.607  1.5984 -0.4371 -1.0753
 3482TIP3    H231938   6.089   2.257  11.720 -0.2041  1.8597 -1.9517
 3483TIP3   OH231939   5.691   4.321  12.486 -0.1983 -0.1304  0.1666
 3483TIP3    H131940   5.737   4.249  12.529 -2.5160 -2.2720 -0.7708
 3483TIP3    H231941   5.734   4.329  12.401  2.4218  2.0981  1.6152
 3484TIP3   OH231942   2.365   5.211   3.721  0.1406 -0.2491 -0.7506
 3484TIP3    H131943   2.428   5.165   3.777 -0.2818 -1.6840 -1.4371
 3484TIP3    H231944   2.418   5.274   3.672  0.7537 -0.1088  0.0783
 3485TIP3   OH231945   4.470   0.043  15.903 -0.2293  0.0460 -0.1678
 3485TIP3    H131946   4.432   0.131  15.912 -0.2624 -0.1262  1.5185
 3485TIP3    H231947   4.559   0.051  15.938 -0.3223 -0.6495  0.2438
 3486TIP3   OH231948   3.399   2.889  12.386  0.2175 -0.0089  0.6375
 3486TIP3    H131949   3.363   2.912  12.472 -1.4813  0.7347 -0.2308
 3486TIP3    H231950   3.471   2.951  12.373 -2.8021  3.4485 -0.6359
 3487TIP3   OH231951   2.804   3.222  15.823  0.0247  0.0266  0.1547
 3487TIP3    H131952   2.826   3.260  15.908  0.3580  0.7215 -0.2290
 3487TIP3    H231953   2.731   3.163  15.840  0.8925 -0.7733  1.1174
 3488TIP3   OH231954   3.265   0.117   2.919 -0.7968 -0.2168 -0.3610
 3488TIP3    H131955   3.299   0.100   3.007 -2.4264  1.8809  0.7195
 3488TIP3    H231956   3.172   0.096   2.925 -1.5550  2.8718 -0.6884
 3489TIP3   OH231957   4.368   1.124  15.155  0.4675 -0.1201  0.2994
 3489TIP3    H131958   4.364   1.134  15.060 -0.4300 -0.2766  0.3113
 3489TIP3    H231959   4.278   1.139  15.184  0.2416 -2.4850  0.8931
 3490TIP3   OH231960   0.507   6.387  15.915  0.0213 -0.0374 -0.6106
 3490TIP3    H131961   0.580   6.439  15.882  2.1597 -0.1238  3.7581
 3490TIP3    H231962   0.540   6.297  15.915 -0.7286 -0.3150 -0.2212
 3491TIP3   OH231963   6.078   6.032  13.073 -0.2511 -0.0109  0.3653
 3491TIP3    H131964   6.020   6.078  13.134 -1.3081 -0.8594  0.0228
 3491TIP3    H231965   6.049   6.061  12.986 -0.0552 -0.3249  0.1954
 3492TIP3   OH231966   3.600   6.704  11.672 -0.1125  0.4902  1.2203
 3492TIP3    H131967   3.597   6.800  11.671  0.1983  0.5166  2.4954
 3492TIP3    H231968   3.688   6.683  11.702  0.9896 -0.2287 -2.3764
 3493TIP3   OH231969   2.409   1.775   3.474 -0.0673  0.3714  0.4225
 3493TIP3    H131970   2.491   1.785   3.523 -0.0863  0.4298  0.4424
 3493TIP3    H231971   2.399   1.681   3.462 -0.6590  0.2910  1.5342
 3494TIP3   OH231972   1.489   1.572  11.652  0.0660  0.1803 -0.8754
 3494TIP3    H131973   1.403   1.591  11.689  0.2002  0.2071 -0.5776
 3494TIP3    H231974   1.538   1.533  11.724  0.6226  1.0476 -0.7762
 3495TIP3   OH231975   3.172   1.838   0.047  0.2507  0.2226  0.3962
 3495TIP3    H131976   3.174   1.782  -0.030 -0.6126  4.2031 -2.6714
 3495TIP3    H231977   3.089   1.817   0.091  0.7119 -2.0052  0.2348
 3496TIP3   OH231978   5.527   1.494   1.630 -0.3578 -0.1838  0.7571
 3496TIP3    H131979   5.463   1.497   1.701 -0.1805  3.9188  0.8782
 3496TIP3    H231980   5.611   1.482   1.675 -0.4496  0.4250  1.1069
 3497TIP3   OH231981   3.317   1.977   4.635 -0.0178 -0.0442 -0.0598
 3497TIP3    H131982   3.290   1.889   4.661 -0.9946  0.6333  1.2554
 3497TIP3    H231983   3.392   1.963   4.577 -1.0603 -1.8081 -1.0122
 3498TIP3   OH231984   4.336   0.804   3.982  0.4968 -0.1738 -0.3524
 3498TIP3    H131985   4.275   0.826   4.053  0.4076  1.3892 -0.9094
 3498TIP3    H231986   4.351   0.886   3.936  1.2686 -0.9987 -1.6094
 3499TIP3   OH231987   4.483   1.200   1.916 -0.1545 -0.1227  0.3715
 3499TIP3    H131988   4.426   1.126   1.936 -1.9341  1.2748  0.6350
 3499TIP3    H231989   4.547   1.200   1.987  1.8179 -3.2548 -1.3023
 3500TIP3   OH231990   3.160   5.286   1.156 -0.3082  0.0305  0.1915
 3500TIP3    H131991   3.162   5.191   1.140  0.5990  0.1169 -0.2434
 3500TIP3    H231992   3.199   5.296   1.243  0.8752  0.1052 -0.3287
 3501TIP3   OH231993   5.279   2.270  13.532  0.3020  0.2792  0.0773
 3501TIP3    H131994   5.278   2.343  13.471  2.3501 -0.1025 -0.4369
 3501TIP3    H231995   5.349   2.291  13.594  0.8909 -1.2146 -0.0486
 3502TIP3   OH231996   1.163   5.397   4.798 -0.0142 -0.3010 -0.3392
 3502TIP3    H131997   1.072   5.421   4.779 -0.1187 -0.4230  0.0229
 3502TIP3    H231998   1.201   5.379   4.711  0.3163  2.0356 -0.7229
 3503TIP3   OH231999   3.803   0.085  11.898  0.1535 -0.2004  1.1316
 3503TIP3    H132000   3.758   0.086  11.983 -3.2159 -2.2389 -0.5244
 3503TIP3    H232001   3.762   0.155  11.848  0.7180 -0.3095  0.5138
 3504TIP3   OH232002   5.953   4.375  16.354 -0.1789 -0.4310  0.2727
 3504TIP3    H132003   5.963   4.425  16.273 -0.6491  1.0492  1.1196
 3504TIP3    H232004   5.916   4.291  16.326 -1.0393  0.3499 -0.9692
 3505TIP3   OH232005   3.939   5.108  14.696  0.3640 -0.0658 -0.7146
 3505TIP3    H132006   3.871   5.173  14.679  0.7234  0.6292  0.5142
 3505TIP3    H232007   4.019   5.159  14.708  0.1884 -0.5135  2.8736
 3506TIP3   OH232008   0.883   1.788  16.170  0.2641  0.2458  0.0738
 3506TIP3    H132009   0.862   1.707  16.216 -1.5227  0.9224  0.4924
 3506TIP3    H232010   0.952   1.764  16.108  1.9620 -0.9150  2.3497
 3507TIP3   OH232011   2.278   2.048  11.444 -0.2504 -0.5876 -0.6571
 3507TIP3    H132012   2.236   2.061  11.529 -0.4378 -1.5687 -0.5917
 3507TIP3    H232013   2.218   2.087  11.381 -0.1398  0.0877 -0.3512
 3508TIP3   OH232014   1.500   6.115   5.795 -0.4272  0.8275  0.2039
 3508TIP3    H132015   1.486   6.020   5.793  1.0582  0.6125 -0.7392
 3508TIP3    H232016   1.503   6.137   5.888 -1.0205 -0.0151  0.4280
 3509TIP3   OH232017   5.769   6.320   1.140 -0.0845 -0.4018 -0.6691
 3509TIP3    H132018   5.702   6.252   1.139 -0.1109 -0.3799 -0.4851
 3509TIP3    H232019   5.826   6.296   1.213 -1.3778  1.0169  0.8443
 3510TIP3   OH232020   5.978   5.415   3.946 -0.3950  0.4875  0.6743
 3510TIP3    H132021   6.016   5.419   4.034  0.8237 -0.6729  0.2178
 3510TIP3    H232022   6.046   5.452   3.889 -0.8383  0.4510  0.1214
 3511TIP3   OH232023   6.638   5.291   1.043  0.2475 -0.5898  0.4086
 3511TIP3    H132024   6.678   5.367   1.086  1.3788 -1.4310  0.8667
 3511TIP3    H232025   6.682   5.286   0.958 -1.8553  0.9614 -0.8139
 3512TIP3   OH232026   3.027   6.137   0.315  0.4026 -0.4053  0.3572
 3512TIP3    H132027   3.090   6.202   0.345  1.5762 -1.8290  1.0365
 3512TIP3    H232028   3.028   6.144   0.220  0.6813  0.3892  0.4133
 3513TIP3   OH232029   2.578   5.019  10.888 -0.0704  0.3221  0.2660
 3513TIP3    H132030   2.525   5.088  10.926 -0.4022  0.7899 -0.9973
 3513TIP3    H232031   2.568   5.031  10.793  1.7269 -0.0201  0.0177
 3514TIP3   OH232032   5.670   6.553  15.949  0.5178  0.5479  0.1629
 3514TIP3    H132033   5.691   6.466  15.983  0.7296  0.0010 -1.2910
 3514TIP3    H232034   5.721   6.613  16.002  1.9122 -0.3885 -0.0813
 3515TIP3   OH232035   2.965   2.080   1.272 -0.1342  0.5993 -0.0149
 3515TIP3    H132036   2.898   2.014   1.293  0.5188 -0.4660 -1.1874
 3515TIP3    H232037   3.044   2.048   1.316 -0.2603  1.5795  0.9379
 3516TIP3   OH232038   3.477   4.437   4.603 -0.2958  0.4581 -0.1909
 3516TIP3    H132039   3.428   4.376   4.658  0.5692  0.5501  0.6893
 3516TIP3    H232040   3.409   4.483   4.552 -1.0448 -0.1780  0.2201
 3517TIP3   OH232041   0.811   2.130  13.226 -0.4273 -0.1011 -0.7111
 3517TIP3    H132042   0.871   2.057  13.232 -0.8153 -0.3763 -0.0099
 3517TIP3    H232043   0.850   2.198  13.281  0.6001  0.7037 -2.4259
 3518TIP3   OH232044   0.409   3.554  14.961  0.0670  0.0398  0.6870
 3518TIP3    H132045   0.374   3.465  14.963 -0.8815  0.4199  0.8752
 3518TIP3    H232046   0.335   3.611  14.981 -0.3272  1.1847 -3.5029
 3519TIP3   OH232047   4.692   5.947   5.180  0.0253 -0.7111 -0.0454
 3519TIP3    H132048   4.757   5.878   5.198 -0.6910 -1.2943  0.3632
 3519TIP3    H232049   4.611   5.899   5.162  0.1614 -0.0522 -2.5592
 3520TIP3   OH232050   3.449   5.854   5.478  0.5083  0.2498 -0.0072
 3520TIP3    H132051   3.432   5.826   5.388  1.0852  1.7429 -0.5982
 3520TIP3    H232052   3.362   5.864   5.517  0.2736 -0.9845 -0.2179
 3521TIP3   OH232053   2.067   1.281  12.011 -0.0897  0.2004 -0.4783
 3521TIP3    H132054   2.062   1.257  11.918  0.9043  1.2934 -0.8234
 3521TIP3    H232055   2.057   1.377  12.011  2.2175  0.4539  0.3463
 3522TIP3   OH232056   3.444   2.348   4.569 -0.0890 -0.2331  0.0505
 3522TIP3    H132057   3.350   2.357   4.584 -0.0188  0.2985  0.1922
 3522TIP3    H232058   3.483   2.417   4.623  0.4096 -0.7665  0.3763
 3523TIP3   OH232059   6.539   6.652  15.021  0.2276 -0.2861 -0.3925
 3523TIP3    H132060   6.628   6.617  15.013 -0.6524 -2.2586 -2.1884
 3523TIP3    H232061   6.509   6.619  15.106  0.7645 -0.7219 -0.3618
 3524TIP3   OH232062   0.832   6.189   5.884 -0.9323 -0.2509  0.1339
 3524TIP3    H132063   0.844   6.101   5.919  0.3031  0.0922  0.5885
 3524TIP3    H232064   0.827   6.176   5.789 -2.1160 -0.9430  0.2745
 3525TIP3   OH232065   3.778   4.117  14.061 -0.3267 -0.2303  0.4722
 3525TIP3    H132066   3.717   4.113  14.135  0.6058  1.3085  1.3748
 3525TIP3    H232067   3.861   4.144  14.101  0.7065 -1.3506 -0.8710
 3526TIP3   OH232068   3.837   3.289  13.626  0.0567 -0.4039  0.2196
 3526TIP3    H132069   3.775   3.252  13.563 -0.1329  1.2385 -0.5935
 3526TIP3    H232070   3.919   3.295  13.578  0.3568 -0.7592  0.6849
 3527TIP3   OH232071   0.237   2.442   6.260 -0.4411 -0.7999 -0.0960
 3527TIP3    H132072   0.149   2.408   6.248 -1.1382  0.2953  1.7111
 3527TIP3    H232073   0.259   2.420   6.351  0.4253  0.5290  0.0354
 3528TIP3   OH232074   5.225   6.750   2.614  0.2532  0.0047  0.0681
 3528TIP3    H132075   5.180   6.820   2.567  2.5308  0.0035 -2.2151
 3528TIP3    H232076   5.243   6.787   2.701 -2.3459  0.6753  0.3595
 3529TIP3   OH232077   1.135   5.643  12.092 -0.0789 -0.5860 -0.6530
 3529TIP3    H132078   1.156   5.736  12.088 -1.1119 -0.4050 -2.2515
 3529TIP3    H232079   1.218   5.599  12.070  0.8230 -0.1175  1.6677
 3530TIP3   OH232080   2.592   3.900   2.449 -0.0600 -0.0229 -0.4991
 3530TIP3    H132081   2.606   3.868   2.360  3.2900 -0.2413  0.0288
 3530TIP3    H232082   2.568   3.992   2.439  1.4608  0.2652 -1.6153
 3531TIP3   OH232083   4.711   3.528  11.294  0.6461  0.6360  0.2208
 3531TIP3    H132084   4.731   3.460  11.229  0.1937 -0.0461  0.7815
 3531TIP3    H232085   4.754   3.607  11.260  1.2956  0.0430 -0.3711
 3532TIP3   OH232086   2.610   3.672   1.046 -0.4971 -0.2401  0.3705
 3532TIP3    H132087   2.629   3.582   1.074  0.9365 -0.3634 -0.9475
 3532TIP3    H232088   2.669   3.726   1.099  0.3547 -0.2666 -0.5518
 3533TIP3   OH232089   0.449   1.731   2.904 -0.8625 -0.1824 -0.0419
 3533TIP3    H132090   0.397   1.790   2.958 -0.3677  0.9556 -0.7788
 3533TIP3    H232091   0.540   1.757   2.922 -0.5641 -1.6795  0.7087
 3534TIP3   OH232092   1.754   2.156  14.957  0.2150 -0.4553  0.2303
 3534TIP3    H132093   1.839   2.183  14.993  0.6318  0.5908 -1.4706
 3534TIP3    H232094   1.700   2.235  14.963 -0.3162 -0.8331  0.3751
 3535TIP3   OH232095   2.070   1.907  10.617 -0.0152  0.3293  0.3077
 3535TIP3    H132096   2.156   1.922  10.578 -0.4566 -0.1983 -0.8641
 3535TIP3    H232097   2.062   1.976  10.684  0.4763  1.6094 -0.9393
 3536TIP3   OH232098   0.330   4.102  11.621 -0.1931 -0.8623  1.2221
 3536TIP3    H132099   0.314   4.021  11.668  1.1372 -5.0990 -5.0278
 3536TIP3    H232100   0.426   4.109  11.617 -0.2711 -0.2169 -0.0867
 3537TIP3   OH232101   0.346   0.144  12.149 -0.6226 -0.1754 -0.2977
 3537TIP3    H132102   0.408   0.090  12.099 -0.5705 -0.4222  0.0306
 3537TIP3    H232103   0.317   0.211  12.088 -1.2080 -0.9821 -0.9183
 3538TIP3   OH232104   6.689   5.343   1.975 -1.2449 -0.2898 -0.4234
 3538TIP3    H132105   6.658   5.301   2.055 -1.9736  1.9082  0.5030
 3538TIP3    H232106   6.771   5.299   1.955 -1.0081 -0.8187  1.5955
 3539TIP3   OH232107   1.068   6.246   5.459 -0.2473  0.7767 -0.6025
 3539TIP3    H132108   1.069   6.200   5.375 -1.2404  2.4892 -1.5763
 3539TIP3    H232109   1.081   6.338   5.437 -1.6722  1.3942  1.0052
 3540TIP3   OH232110   1.747   5.960  14.220 -0.0307 -0.3965 -0.1548
 3540TIP3    H132111   1.826   6.011  14.238 -0.3485  0.0858 -0.1020
 3540TIP3    H232112   1.675   6.017  14.249 -0.4240 -0.6024 -0.7154
 3541TIP3   OH232113   3.740   5.038  15.124 -0.2819  0.0124  0.8190
 3541TIP3    H132114   3.755   4.960  15.178  2.2041  0.3345  0.6762
 3541TIP3    H232115   3.700   5.004  15.044 -0.3407 -0.9784  1.2606
 3542TIP3   OH232116   6.120   3.208  14.593 -0.1370 -0.2194 -0.7334
 3542TIP3    H132117   6.078   3.240  14.673 -1.4732  0.6792 -1.7678
 3542TIP3    H232118   6.096   3.115  14.588 -0.3954 -0.1745 -0.3084
 3543TIP3   OH232119   0.837   0.484  11.431 -0.1224  0.4012  0.0165
 3543TIP3    H132120   0.822   0.559  11.489  3.5933  0.3222  1.1937
 3543TIP3    H232121   0.883   0.521  11.356 -2.0567 -0.0443 -1.4251
 3544TIP3   OH232122   6.696   3.176  11.918  0.5597  0.3156 -0.1855
 3544TIP3    H132123   6.689   3.126  12.000 -0.2938 -1.2027 -1.1669
 3544TIP3    H232124   6.673   3.114  11.850 -1.2296  2.2391 -1.4014
 3545TIP3   OH232125   5.469   1.430  13.236  0.0305 -0.1088  0.2949
 3545TIP3    H132126   5.471   1.519  13.273  1.7943  0.3115 -0.7561
 3545TIP3    H232127   5.409   1.382  13.292  2.2309  0.6427  3.4135
 3546TIP3   OH232128   0.230   1.481  15.585 -0.5000  0.4809  0.4907
 3546TIP3    H132129   0.205   1.574  15.581  0.4691  0.7043 -1.3487
 3546TIP3    H232130   0.151   1.434  15.556 -1.0365  0.7157  1.5576
 3547TIP3   OH232131   3.508   0.567  15.241  0.1883 -0.3282 -0.0565
 3547TIP3    H132132   3.542   0.650  15.274 -1.0307  0.0765  0.2311
 3547TIP3    H232133   3.556   0.500  15.289 -0.1153  0.2422  1.0651
 3548TIP3   OH232134   3.825   5.483  14.822 -0.3866  0.5704 -0.2121
 3548TIP3    H132135   3.821   5.454  14.731  0.0725 -0.6689  0.1527
 3548TIP3    H232136   3.762   5.426  14.868  1.4734 -0.7555  0.7450
 3549TIP3   OH232137   4.649   0.827   6.278  0.0713  0.3324 -0.7953
 3549TIP3    H132138   4.682   0.902   6.328  2.3169 -1.0832 -0.0470
 3549TIP3    H232139   4.699   0.829   6.196  1.9154 -1.6347  0.2027
 3550TIP3   OH232140   2.390   2.917  16.524 -0.0492  0.7510 -0.1199
 3550TIP3    H132141   2.331   2.843  16.513  0.1510  0.4738  0.6722
 3550TIP3    H232142   2.346   2.989  16.478 -0.0706  0.0658 -1.2050
 3551TIP3   OH232143   6.529   6.163   4.318 -0.4906  0.2056 -0.6884
 3551TIP3    H132144   6.548   6.232   4.255 -0.5714 -0.1415 -1.0914
 3551TIP3    H232145   6.573   6.192   4.399 -1.3902  1.2414 -0.5522
 3552TIP3   OH232146   2.510   2.268   5.123  0.3170 -0.4953  0.4338
 3552TIP3    H132147   2.574   2.332   5.092 -0.8966  0.7350  0.4585
 3552TIP3    H232148   2.482   2.301   5.208 -0.2109 -1.1262  0.5073
 3553TIP3   OH232149   1.869   3.630   0.336  0.4475  0.5758 -1.1137
 3553TIP3    H132150   1.919   3.574   0.277  1.1478  0.8410 -0.7799
 3553TIP3    H232151   1.837   3.700   0.279 -2.4155 -1.3844 -2.0001
 3554TIP3   OH232152   4.255   0.415  16.315 -0.1142  0.4342  0.2181
 3554TIP3    H132153   4.229   0.470  16.241 -0.0234 -1.0448 -0.9442
 3554TIP3    H232154   4.300   0.475  16.374 -2.2031  2.1169  0.1737
 3555TIP3   OH232155   2.133   6.071   5.358 -0.5303 -0.6946  0.7282
 3555TIP3    H132156   2.124   6.068   5.263 -1.7819 -2.8681  0.8764
 3555TIP3    H232157   2.080   6.147   5.385 -0.2370 -0.1223 -0.2911
 3556TIP3   OH232158   2.208   0.780  13.369  0.1892 -0.0654 -0.9173
 3556TIP3    H132159   2.144   0.847  13.393 -0.1081 -0.4382 -0.6505
 3556TIP3    H232160   2.293   0.819  13.388 -0.0193 -0.1581  0.2483
 3557TIP3   OH232161   1.275   4.992   3.247  0.3037 -0.0997  0.5269
 3557TIP3    H132162   1.220   4.996   3.325 -0.9244 -2.7974 -0.1518
 3557TIP3    H232163   1.217   4.960   3.178  1.7109  0.9367 -1.2002
 3558TIP3   OH232164   2.983   3.077   5.784 -0.3391  0.6831  0.5795
 3558TIP3    H132165   3.038   3.107   5.856 -1.9080 -1.2144  2.6113
 3558TIP3    H232166   2.898   3.118   5.800 -0.9071 -0.3438  0.2316
 3559TIP3   OH232167   2.651   2.750  15.913  0.0758  0.5489  0.0160
 3559TIP3    H132168   2.722   2.694  15.945  0.5382  0.5051 -1.0638
 3559TIP3    H232169   2.572   2.712  15.951  0.5176 -0.0817  0.3117
 3560TIP3   OH232170   2.617   6.455  14.148  0.4372  0.1707  0.0451
 3560TIP3    H132171   2.586   6.380  14.097  2.1856 -1.2126  0.9455
 3560TIP3    H232172   2.549   6.469  14.214 -0.7122  0.4816 -1.1891
 3561TIP3   OH232173   5.044   6.568   3.248  0.0818  0.3663 -0.6243
 3561TIP3    H132174   4.957   6.604   3.228  0.1325  0.8769  0.0596
 3561TIP3    H232175   5.097   6.644   3.272  0.4588 -0.0451 -0.1374
 3562TIP3   OH232176   0.253   6.356  12.249 -0.1507  0.8275 -0.3287
 3562TIP3    H132177   0.347   6.373  12.250  0.1187 -0.6611  0.5754
 3562TIP3    H232178   0.242   6.282  12.190 -0.4707 -0.5341  1.4099
 3563TIP3   OH232179   3.157   6.672   2.071 -0.1466 -0.2412  0.4265
 3563TIP3    H132180   3.138   6.760   2.037 -2.0085 -0.3993  1.0050
 3563TIP3    H232181   3.071   6.631   2.081  0.7217 -2.2750 -0.1847
 3564TIP3   OH232182   0.288   6.136   5.391 -0.2636  0.4085 -0.1168
 3564TIP3    H132183   0.324   6.223   5.408 -1.8500  0.7528  1.7113
 3564TIP3    H232184   0.240   6.114   5.471 -0.2277 -1.9830 -0.7046
 3565TIP3   OH232185   2.387   5.180   0.624 -0.4695  0.2277  0.0946
 3565TIP3    H132186   2.357   5.202   0.536 -0.6629 -0.4138  0.0009
 3565TIP3    H232187   2.472   5.137   0.611 -0.1475  0.8037  0.2715
 3566TIP3   OH232188   4.072   5.861  10.746  0.1736  0.4163  0.4057
 3566TIP3    H132189   4.101   5.927  10.683  0.3869 -1.2591 -1.2858
 3566TIP3    H232190   3.978   5.850  10.729  0.2920 -0.2576  0.1818
 3567TIP3   OH232191   6.569   1.212   1.717 -0.4549  1.1773  0.4004
 3567TIP3    H132192   6.593   1.173   1.801 -0.3287 -0.4383 -0.3528
 3567TIP3    H232193   6.476   1.233   1.726 -0.5625  0.5519  0.7765
 3568TIP3   OH232194   5.931   1.500  14.881 -0.0942 -0.3107 -0.3171
 3568TIP3    H132195   5.874   1.465  14.949 -0.1716  0.4883  0.0344
 3568TIP3    H232196   5.997   1.550  14.929  1.5389 -2.0988 -0.6407
 3569TIP3   OH232197   6.295   3.651   3.443 -0.2914 -0.3066  0.0972
 3569TIP3    H132198   6.322   3.673   3.532  1.5909 -0.2788 -0.4520
 3569TIP3    H232199   6.322   3.560   3.432  0.1504 -0.0870 -0.6804
 3570TIP3   OH232200   1.476   3.203   5.390 -0.6393 -0.4830  0.0689
 3570TIP3    H132201   1.506   3.131   5.446  0.9035  1.4636  1.8083
 3570TIP3    H232202   1.508   3.180   5.303 -1.8619 -2.8646  0.2063
 3571TIP3   OH232203   0.755   4.798  14.625  0.2329 -0.4115  0.1671
 3571TIP3    H132204   0.764   4.765  14.714  2.1451 -0.3363  0.0271
 3571TIP3    H232205   0.666   4.833  14.620 -0.1267 -1.0945  1.8135
 3572TIP3   OH232206   2.937   2.389  13.418 -0.0066 -0.6423 -0.4004
 3572TIP3    H132207   2.864   2.363  13.475  0.1098 -0.5012 -0.1859
 3572TIP3    H232208   2.896   2.444  13.351  0.2798  1.6354  1.2316
 3573TIP3   OH232209   1.797   2.367   4.834  0.1764 -0.5094 -0.3200
 3573TIP3    H132210   1.838   2.437   4.784  1.8896  0.3985  2.2297
 3573TIP3    H232211   1.734   2.412   4.890 -1.3516 -1.4478 -1.2606
 3574TIP3   OH232212   2.895   1.324  15.955  0.2164 -0.2331 -0.2162
 3574TIP3    H132213   2.880   1.315  15.861  0.0081  0.6572 -0.2721
 3574TIP3    H232214   2.850   1.248  15.994 -0.1219 -0.3316 -0.7887
 3575TIP3   OH232215   2.539   5.668   3.199  0.2597 -0.2963  0.0530
 3575TIP3    H132216   2.611   5.730   3.201 -0.5122  0.6014  0.2402
 3575TIP3    H232217   2.537   5.636   3.108 -1.1917  2.1627 -0.8368
 3576TIP3   OH232218   3.461   5.559  15.128 -0.5459 -0.0961  0.1300
 3576TIP3    H132219   3.369   5.541  15.146 -0.4715  0.6671  1.3280
 3576TIP3    H232220   3.481   5.505  15.052 -2.5024  1.1709 -1.3511
 3577TIP3   OH232221   5.696   0.204   0.822 -0.3065  0.5827  0.3095
 3577TIP3    H132222   5.784   0.169   0.806 -1.2033 -1.6438  0.0206
 3577TIP3    H232223   5.690   0.209   0.918  0.4604  1.6631  0.3133
 3578TIP3   OH232224   4.869   6.079  11.872 -0.6896 -0.0576 -0.3183
 3578TIP3    H132225   4.778   6.051  11.869 -0.3509 -1.3537  1.0140
 3578TIP3    H232226   4.899   6.055  11.960  0.6138  1.3797 -0.3387
 3579TIP3   OH232227   5.270   4.779  11.621 -0.6099 -0.1582 -0.3611
 3579TIP3    H132228   5.306   4.864  11.645 -0.3218 -0.6541  1.0123
 3579TIP3    H232229   5.322   4.751  11.545 -1.5105  1.4236 -1.5804
 3580TIP3   OH232230   3.213   5.944   5.093 -0.0157 -0.0588  0.6624
 3580TIP3    H132231   3.266   5.909   5.021 -0.7558 -0.2479  0.2118
 3580TIP3    H232232   3.153   6.005   5.050 -0.5796 -0.3074  1.1046
 3581TIP3   OH232233   2.530   0.830   1.299 -0.1489  0.3727  0.4093
 3581TIP3    H132234   2.477   0.801   1.224 -1.7928  3.1760  0.3949
 3581TIP3    H232235   2.576   0.751   1.328 -0.2505 -0.9974 -2.9031
 3582TIP3   OH232236   6.026   0.854  15.952 -0.2913 -0.0679  0.1040
 3582TIP3    H132237   5.993   0.919  16.014  0.0840  0.1181  0.1073
 3582TIP3    H232238   6.011   0.770  15.996 -2.2160 -0.0881 -0.5722
 3583TIP3   OH232239   2.251   0.212  12.976 -0.1693  0.0316  0.0134
 3583TIP3    H132240   2.321   0.259  13.022 -0.3592 -1.3665  1.8099
 3583TIP3    H232241   2.265   0.233  12.883  0.0712  3.1271  0.6996
 3584TIP3   OH232242   3.382   0.045  13.104  0.2121 -0.5946  0.0009
 3584TIP3    H132243   3.405   0.106  13.035 -0.1032 -3.0042 -2.3291
 3584TIP3    H232244   3.293   0.069  13.130 -0.1724 -0.4911 -1.3912
 3585TIP3   OH232245   0.116   6.818   2.916 -0.6125 -0.5580 -0.5884
 3585TIP3    H132246   0.090   6.861   2.998  0.8512  1.7685 -1.2770
 3585TIP3    H232247   0.050   6.846   2.853  1.2085  2.1664 -1.4190
 3586TIP3   OH232248   2.826   2.942   2.378  0.5653 -0.3558 -0.1577
 3586TIP3    H132249   2.768   2.890   2.434  0.1231 -0.2848 -0.5461
 3586TIP3    H232250   2.814   3.032   2.408  0.4843 -0.3421 -0.2319
 3587TIP3   OH232251   0.735   3.643  12.129  0.1533  0.2122  0.5948
 3587TIP3    H132252   0.826   3.660  12.153 -0.0435  0.4596  1.1910
 3587TIP3    H232253   0.720   3.696  12.051 -0.0603  1.7439  1.6584
 3588TIP3   OH232254   6.722   3.386  13.562 -0.5379  0.0141  0.6325
 3588TIP3    H132255   6.682   3.360  13.479 -2.7710  0.9948  1.3655
 3588TIP3    H232256   6.731   3.304  13.611  1.2746 -0.6428 -0.7507
 3589TIP3   OH232257   4.495   2.260  12.646 -0.2988 -0.4768 -0.4471
 3589TIP3    H132258   4.475   2.243  12.554 -1.5033 -1.9152  0.0631
 3589TIP3    H232259   4.453   2.188  12.694  0.1990  0.3213  1.2401
 3590TIP3   OH232260   5.447   3.309   5.167  0.0676  0.0753  0.5425
 3590TIP3    H132261   5.409   3.237   5.115 -0.6027  0.0218  1.0933
 3590TIP3    H232262   5.512   3.349   5.109 -1.2891  0.5748 -0.6660
 3591TIP3   OH232263   1.573   0.982  16.987  0.3110  0.8749  0.1013
 3591TIP3    H132264   1.533   0.961  16.902  1.2574 -0.8070  0.0390
 3591TIP3    H232265   1.545   0.910  17.044  2.1584  0.3687  0.3938
 3592TIP3   OH232266   6.164   2.632  12.377 -0.0637  0.1893  0.0576
 3592TIP3    H132267   6.179   2.602  12.466 -2.1806 -1.9756 -0.2797
 3592TIP3    H232268   6.088   2.690  12.383  0.5990  1.0907 -0.1501
 3593TIP3   OH232269   0.261   5.235   0.515  0.3193  0.0608 -0.2434
 3593TIP3    H132270   0.257   5.326   0.544 -1.3122  0.1450 -0.6633
 3593TIP3    H232271   0.350   5.224   0.482  1.2592  0.8252  1.9209
 3594TIP3   OH232272   1.702   6.336   1.243  0.1136  0.1470 -0.5530
 3594TIP3    H132273   1.662   6.302   1.163 -3.0489 -0.8394  1.3334
 3594TIP3    H232274   1.708   6.259   1.300  0.9519  1.1309  0.6950
 3595TIP3   OH232275   0.653   0.059   3.543 -0.2161 -0.0819  0.8005
 3595TIP3    H132276   0.604   0.141   3.540  0.8568  0.5724  1.1175
 3595TIP3    H232277   0.626   0.012   3.464  1.1529  1.7245 -0.7727
 3596TIP3   OH232278   3.494   4.628  14.899  1.0991 -0.4779  0.1908
 3596TIP3    H132279   3.447   4.556  14.941 -0.0101 -0.0024 -0.1900
 3596TIP3    H232280   3.586   4.608  14.910  0.8042 -2.3463 -0.5733
 3597TIP3   OH232281   4.301   5.775  15.187  0.0344 -0.7814  0.2767
 3597TIP3    H132282   4.395   5.792  15.176  0.2355 -1.6338  0.6390
 3597TIP3    H232283   4.268   5.853  15.231  0.5926 -0.5109  0.2275
 3598TIP3   OH232284   2.529   2.995  15.621  0.3103  0.0898 -0.1623
 3598TIP3    H132285   2.584   3.034  15.554 -0.2882 -0.0048 -0.7116
 3598TIP3    H232286   2.477   2.929  15.575 -0.4320  0.3407  0.3074
 3599TIP3   OH232287   1.865   5.218   3.742 -0.8501  0.2654 -0.0839
 3599TIP3    H132288   1.955   5.223   3.708 -1.2631  0.7992 -1.1024
 3599TIP3    H232289   1.857   5.296   3.797 -0.8870  0.5319 -0.4680
 3600TIP3   OH232290   1.882   0.207   6.346 -0.0912 -0.3702  0.3072
 3600TIP3    H132291   1.942   0.164   6.286  0.6937 -1.6176  1.9324
 3600TIP3    H232292   1.938   0.240   6.416 -0.8675  1.9544 -0.1215
 3601TIP3   OH232293   4.854   2.259  16.473  0.3604  0.0052  0.1129
 3601TIP3    H132294   4.818   2.348  16.478 -0.4269 -0.3422  0.6938
 3601TIP3    H232295   4.875   2.248  16.380  0.2381  0.7103 -0.0059
 3602TIP3   OH232296   6.706   1.015  11.358 -0.4599  0.0306 -0.3560
 3602TIP3    H132297   6.763   1.059  11.295  1.0263  0.3879  1.2037
 3602TIP3    H232298   6.617   1.029  11.324  0.3295 -0.1627 -2.5770
 3603TIP3   OH232299   0.474   3.347  17.080 -0.3328 -0.0337  0.1919
 3603TIP3    H132300   0.514   3.420  17.128  2.9326 -2.1210  0.7848
 3603TIP3    H232301   0.421   3.302  17.146  1.0990 -0.6741  0.9296
 3604TIP3   OH232302   2.823   1.251  16.512 -0.2086 -0.3458 -0.1930
 3604TIP3    H132303   2.865   1.227  16.429  1.0669  0.9016  0.0742
 3604TIP3    H232304   2.769   1.327  16.491 -0.0096 -0.1277  0.0766
 3605TIP3   OH232305   6.658   1.839  10.592  0.1229  0.0390 -0.0872
 3605TIP3    H132306   6.602   1.831  10.515  0.3027  1.0851 -0.3326
 3605TIP3    H232307   6.597   1.851  10.665 -0.0249 -0.4175 -0.1321
 3606TIP3   OH232308   2.441   0.246  15.539 -0.0256 -0.2239 -0.4939
 3606TIP3    H132309   2.532   0.214  15.536 -0.0677 -0.4925  0.7669
 3606TIP3    H232310   2.392   0.174  15.579 -0.2749  1.0503  1.5586
 3607TIP3   OH232311   5.502   2.543   2.939 -0.0022 -0.0064  0.9728
 3607TIP3    H132312   5.417   2.587   2.938  1.3116  2.6606  1.4681
 3607TIP3    H232313   5.538   2.558   2.852  0.0265 -1.0416  0.7954
 3608TIP3   OH232314   6.424   6.171   6.086  0.0632  0.7371 -0.0251
 3608TIP3    H132315   6.335   6.179   6.051  0.0772  1.6181  0.1448
 3608TIP3    H232316   6.413   6.175   6.181  0.1734 -0.2961  0.0451
 3609TIP3   OH232317   2.847   4.682   2.823  0.1911 -0.7290 -0.3010
 3609TIP3    H132318   2.853   4.599   2.872  1.1136 -1.2648 -1.3007
 3609TIP3    H232319   2.923   4.681   2.764 -0.2766  0.4274 -0.9429
 3610TIP3   OH232320   6.491   1.079   2.473 -0.0292  0.0764  0.1427
 3610TIP3    H132321   6.565   1.018   2.475  0.9605  1.2238 -0.6132
 3610TIP3    H232322   6.417   1.026   2.444 -0.5691 -2.1742  5.1338
 3611TIP3   OH232323   5.491   4.936  16.220 -0.1462 -0.5179 -0.3730
 3611TIP3    H132324   5.585   4.920  16.229 -0.5823 -2.3577  1.1128
 3611TIP3    H232325   5.482   4.980  16.135  2.1848  0.8371  0.0538
 3612TIP3   OH232326   2.717   6.212   0.482 -0.1866 -0.3283  0.2676
 3612TIP3    H132327   2.773   6.259   0.420  1.3649 -1.4012  0.8307
 3612TIP3    H232328   2.765   6.214   0.565 -1.8397  0.3443  1.2480
 3613TIP3   OH232329   5.289   3.969  15.786  0.0651 -0.3596 -0.1040
 3613TIP3    H132330   5.249   3.885  15.762  1.0330 -0.6747 -0.6639
 3613TIP3    H232331   5.382   3.948  15.796  0.2057  0.5174  0.3968
 3614TIP3   OH232332   2.582   1.229  11.144 -0.3437  0.4343 -0.1518
 3614TIP3    H132333   2.543   1.249  11.059 -0.6606  1.5672  0.2533
 3614TIP3    H232334   2.508   1.230  11.205 -0.0630 -0.0087  0.2022
 3615TIP3   OH232335   4.108   6.776   5.540 -0.2856  0.5568  0.0863
 3615TIP3    H132336   4.200   6.755   5.556 -0.0642 -0.4696 -2.3091
 3615TIP3    H232337   4.071   6.791   5.627  1.9553  0.1768  1.1256
 3616TIP3   OH232338   6.324   1.825   0.492 -0.0990 -0.0773 -0.2223
 3616TIP3    H132339   6.269   1.827   0.571 -2.0805  0.3728 -1.5793
 3616TIP3    H232340   6.376   1.906   0.497 -0.1688 -0.0834  0.6471
 3617TIP3   OH232341   6.225   0.341   2.816 -0.9562  0.0996 -0.5406
 3617TIP3    H132342   6.261   0.268   2.764 -0.0144  1.2822 -1.5717
 3617TIP3    H232343   6.239   0.314   2.907 -0.3793 -0.9000 -0.9090
 3618TIP3   OH232344   5.473   0.667  14.489 -0.6331  0.0234  0.0538
 3618TIP3    H132345   5.485   0.658  14.583 -1.7730  0.3176  0.2356
 3618TIP3    H232346   5.497   0.758  14.471 -0.7573  0.0693  0.1188
 3619TIP3   OH232347   4.947   2.008   2.771  0.1751 -0.0162  0.4895
 3619TIP3    H132348   4.972   2.096   2.741 -0.1001  0.2818  1.1200
 3619TIP3    H232349   4.913   1.964   2.693  0.2949  0.4465  0.1761
 3620TIP3   OH232350   6.153   0.229  14.052 -0.5711  0.3126 -0.2894
 3620TIP3    H132351   6.146   0.164  13.982  0.5170 -0.4247  0.2673
 3620TIP3    H232352   6.067   0.229  14.094 -1.2166  0.7227 -1.5750
 3621TIP3   OH232353   5.336   4.839  16.660 -0.1206 -0.3573  0.2440
 3621TIP3    H132354   5.409   4.779  16.645 -0.4314 -0.5920 -0.3381
 3621TIP3    H232355   5.342   4.901  16.588  1.0994  1.2165  1.6545
 3622TIP3   OH232356   4.343   5.758  11.493 -0.1668  0.9134 -0.1031
 3622TIP3    H132357   4.337   5.853  11.506  1.3294  0.9732  0.2577
 3622TIP3    H232358   4.367   5.723  11.579 -1.2205  0.1476 -0.1142
 3623TIP3   OH232359   6.644   2.766  15.238  0.0656  0.8753 -0.5859
 3623TIP3    H132360   6.682   2.751  15.152  3.2113  0.4674  0.8023
 3623TIP3    H232361   6.629   2.678  15.273 -0.2561  1.0381 -0.3087
 3624TIP3   OH232362   5.160   1.857  11.400 -0.3368  0.2128 -0.1655
 3624TIP3    H132363   5.245   1.843  11.360 -0.5692  0.5200 -0.7661
 3624TIP3    H232364   5.149   1.952  11.401 -0.5083  0.1900  0.2575
 3625TIP3   OH232365   5.053   3.380  13.367 -0.3963 -0.5331 -0.5179
 3625TIP3    H132366   4.996   3.391  13.443  1.2729 -0.2782  0.7096
 3625TIP3    H232367   5.016   3.439  13.301 -0.2928  1.2680  0.9990
 3626TIP3   OH232368   3.878   3.035  12.785  0.2021 -0.3020  0.5134
 3626TIP3    H132369   3.917   3.115  12.819  1.1615 -1.0319  1.1447
 3626TIP3    H232370   3.951   2.984  12.752 -0.2770 -1.3742  1.0789
 3627TIP3   OH232371   6.039   0.608  12.950  0.1582 -0.2130  0.1672
 3627TIP3    H132372   6.101   0.552  12.904 -1.7018 -0.7996 -1.7170
 3627TIP3    H232373   6.028   0.566  13.035  1.5804 -0.6384  0.1576
 3628TIP3   OH232374   0.164   2.856  14.152  0.1011  0.3868 -0.0096
 3628TIP3    H132375   0.106   2.871  14.077 -0.3557  1.2771  0.5073
 3628TIP3    H232376   0.221   2.933  14.154  0.0892  0.3810  0.5837
 3629TIP3   OH232377   0.377   3.046   3.379  0.4768  0.6021 -0.2279
 3629TIP3    H132378   0.366   3.034   3.285  0.7675 -1.5712 -0.0012
 3629TIP3    H232379   0.295   3.013   3.417  1.3291 -0.7784  0.4342
 3630TIP3   OH232380   4.727   3.857   2.315  0.4438 -0.0118  0.1522
 3630TIP3    H132381   4.649   3.888   2.269  0.9828  0.3775 -0.5154
 3630TIP3    H232382   4.707   3.766   2.338 -0.0435 -0.0383 -0.3687
 3631TIP3   OH232383   5.803   5.426  13.304  0.2518  0.6701 -0.1962
 3631TIP3    H132384   5.787   5.516  13.274  0.0118  1.0854  1.1750
 3631TIP3    H232385   5.717   5.385  13.300  0.6061  0.0689 -2.1990
 3632TIP3   OH232386   6.400   2.850  13.562 -0.1676  0.1915 -0.3672
 3632TIP3    H132387   6.439   2.930  13.527  0.3968 -0.4362 -1.1982
 3632TIP3    H232388   6.381   2.870  13.654 -1.2234  1.7026 -0.9153
 3633TIP3   OH232389   5.898   0.106  13.636  0.0752  0.0454  0.6069
 3633TIP3    H132390   5.821   0.050  13.625  0.3340 -0.3067  0.5790
 3633TIP3    H232391   5.970   0.056  13.599  0.7500 -0.6539  2.7431
 3634TIP3   OH232392   6.364   0.933  13.320 -0.4491 -0.1206 -0.3914
 3634TIP3    H132393   6.392   1.014  13.276 -0.2054  0.8959  1.5999
 3634TIP3    H232394   6.401   0.939  13.408 -2.3907 -1.3197  0.5370
 3635TIP3   OH232395   1.664   2.901  12.129  0.2457  0.1278  0.8065
 3635TIP3    H132396   1.695   2.813  12.150 -0.8796 -0.8847 -1.6236
 3635TIP3    H232397   1.743   2.947  12.100  0.7574 -0.1952  1.6549
 3636TIP3   OH232398   5.576   4.446   4.521  0.7087 -0.5524 -0.6946
 3636TIP3    H132399   5.484   4.464   4.504  0.4264 -0.6306  0.6875
 3636TIP3    H232400   5.598   4.373   4.464 -0.4186 -1.3130 -0.1666
 3637TIP3   OH232401   1.889   2.203   3.265  0.4040 -0.5281  0.5207
 3637TIP3    H132402   1.840   2.142   3.209 -0.1387 -0.4456  0.8926
 3637TIP3    H232403   1.979   2.197   3.234 -0.0573  0.2483 -0.9944
 3638TIP3   OH232404   5.667   0.931   4.261  0.0074  0.8295  0.5818
 3638TIP3    H132405   5.672   0.843   4.298 -2.0894  0.1099 -0.7206
 3638TIP3    H232406   5.583   0.966   4.293 -1.2141  0.6891 -2.2859
 3639TIP3   OH232407   6.681   3.161  15.490  0.3571 -0.4521  0.2415
 3639TIP3    H132408   6.614   3.229  15.491 -0.0459 -0.8262 -0.7109
 3639TIP3    H232409   6.638   3.084  15.528 -0.0892 -0.9854 -1.3030
 3640TIP3   OH232410   6.377   5.978  14.766 -0.6823 -0.0958 -0.0783
 3640TIP3    H132411   6.472   5.973  14.757 -0.3544  0.2935  2.9246
 3640TIP3    H232412   6.356   6.071  14.756 -0.7014 -0.1041 -0.1177
 3641TIP3   OH232413   0.746   4.082   3.386 -0.5512 -0.4090 -0.0755
 3641TIP3    H132414   0.788   4.138   3.452 -1.3025 -0.4243  0.4228
 3641TIP3    H232415   0.654   4.109   3.387 -0.3754  0.3551 -1.9054
 3642TIP3   OH232416   5.582   1.696  13.973 -0.3159  0.7374 -0.0693
 3642TIP3    H132417   5.538   1.773  14.009 -2.1855 -0.3576  0.0652
 3642TIP3    H232418   5.536   1.679  13.891 -0.4176 -0.6613  0.2661
 3643TIP3   OH232419   6.314   4.383   2.914 -0.3732 -0.0363 -0.5747
 3643TIP3    H132420   6.370   4.333   2.974 -0.8762  1.4910  1.2079
 3643TIP3    H232421   6.227   4.344   2.924  0.2977 -2.4011 -3.3352
 3644TIP3   OH232422   1.546   6.134   3.815  0.3356 -0.0630  0.1084
 3644TIP3    H132423   1.569   6.042   3.827 -3.2825 -0.8680  1.3312
 3644TIP3    H232424   1.495   6.136   3.734  0.7664  0.9621 -0.1563
 3645TIP3   OH232425   1.184   2.325  12.837  0.6400  0.5409 -0.1382
 3645TIP3    H132426   1.224   2.303  12.922  0.6717  0.4996 -0.1641
 3645TIP3    H232427   1.096   2.289  12.842  1.1303 -0.7446 -0.6911
 3646TIP3   OH232428   6.470   6.579   5.004  0.2110 -0.7625 -0.1580
 3646TIP3    H132429   6.428   6.658   4.968  0.9805  0.1531  0.9105
 3646TIP3    H232430   6.430   6.568   5.089  0.3475 -1.3411 -0.1695
 3647TIP3   OH232431   4.481   0.067   3.367 -0.1573 -0.3260 -0.3351
 3647TIP3    H132432   4.465  -0.024   3.343 -2.8499  0.3359 -1.1685
 3647TIP3    H232433   4.482   0.115   3.284  0.7657  0.4704  0.1243
 3648TIP3   OH232434   5.841   4.521  16.719  0.3051  0.1695  0.5581
 3648TIP3    H132435   5.926   4.488  16.747  0.9501  0.6270 -0.8516
 3648TIP3    H232436   5.861   4.598  16.666 -0.9075 -0.5112 -0.9296
 3649TIP3   OH232437   4.697   4.148   0.665 -0.0695  0.4182  0.2987
 3649TIP3    H132438   4.639   4.219   0.638  0.1710 -0.0914 -1.6374
 3649TIP3    H232439   4.668   4.125   0.753 -2.6470  0.3426 -0.5226
 3650TIP3   OH232440   6.637   2.919   5.434 -0.5866 -0.1810 -0.1890
 3650TIP3    H132441   6.553   2.958   5.410  0.1448  0.6372 -1.4474
 3650TIP3    H232442   6.680   2.902   5.351  0.9549  0.4109  0.4768
 3651TIP3   OH232443   3.613   5.196  17.225  0.4029  0.2758  0.1667
 3651TIP3    H132444   3.610   5.281  17.268 -1.0525 -0.0258  0.6803
 3651TIP3    H232445   3.676   5.146  17.277 -0.9243  0.0953  1.6371
 3652TIP3   OH232446   4.001   5.232   2.640  0.4916  0.5063 -0.3376
 3652TIP3    H132447   3.979   5.140   2.627  2.0970  0.0918 -0.1529
 3652TIP3    H232448   3.998   5.244   2.735  1.8993  0.2386 -0.2592
 3653TIP3   OH232449   6.032   2.178  10.809 -0.0484  0.5718  0.0028
 3653TIP3    H132450   5.958   2.231  10.781  0.2263  0.6388 -0.5985
 3653TIP3    H232451   5.997   2.089  10.813  0.0079  0.5089 -0.9117
 3654TIP3   OH232452   1.363   1.536   3.370  0.4182  0.3145  0.4492
 3654TIP3    H132453   1.317   1.618   3.348 -1.6046 -1.1508 -1.0242
 3654TIP3    H232454   1.388   1.499   3.286  1.5229 -0.4928  1.1177
 3655TIP3   OH232455   4.626   6.011   2.949  0.3792 -0.8510  0.0927
 3655TIP3    H132456   4.573   5.933   2.935  2.4260 -2.0026 -1.3942
 3655TIP3    H232457   4.569   6.084   2.924 -1.5137 -1.8243  1.4267
 3656TIP3   OH232458   4.184   5.639   1.947  0.0551  0.9327  0.9376
 3656TIP3    H132459   4.256   5.695   1.918  0.4336  0.0017  0.0763
 3656TIP3    H232460   4.118   5.648   1.878  0.9062 -1.1970 -0.1862
 3657TIP3   OH232461   1.243   5.790  11.779  0.9004  0.0268  0.1354
 3657TIP3    H132462   1.337   5.794  11.764  1.2362  1.9674  2.5360
 3657TIP3    H232463   1.217   5.880  11.797 -1.2992 -0.5916  0.2553
 3658TIP3   OH232464   6.158   4.196  15.755 -0.0306 -0.4079 -0.2999
 3658TIP3    H132465   6.239   4.150  15.778  0.8460  0.0028 -2.4013
 3658TIP3    H232466   6.177   4.288  15.774 -0.6711 -0.5280  0.9470
 3659TIP3   OH232467   3.711   1.741  15.222  0.8574  0.6685  0.2690
 3659TIP3    H132468   3.774   1.760  15.153  0.3949  2.0603  0.2261
 3659TIP3    H232469   3.681   1.652  15.203  1.4431  0.6877 -0.7614
 3660TIP3   OH232470   4.057   2.635   5.764 -0.1040 -0.7397  0.3119
 3660TIP3    H132471   4.089   2.632   5.854 -0.2305 -0.4494  0.3648
 3660TIP3    H232472   4.033   2.726   5.749  0.5424 -0.6548 -0.2340
 3661TIP3   OH232473   0.446   5.991   6.318 -0.4535 -0.5342  0.4969
 3661TIP3    H132474   0.389   5.919   6.347 -1.0834 -0.5883 -0.8264
 3661TIP3    H232475   0.497   6.015   6.395 -0.4525 -2.2146  1.0371
 3662TIP3   OH232476   4.632   2.827  14.654 -0.2753 -0.0487  0.7369
 3662TIP3    H132477   4.708   2.774  14.678  0.3951  0.0365 -1.0889
 3662TIP3    H232478   4.669   2.909  14.621 -1.2284  0.7024  1.5029
 3663TIP3   OH232479   3.973   4.444  12.753 -0.2634 -0.4045 -0.0954
 3663TIP3    H132480   3.922   4.465  12.831  0.3265  0.2683  0.1189
 3663TIP3    H232481   4.064   4.449  12.782 -0.0388 -0.0789 -0.8418
 3664TIP3   OH232482   3.679   0.570   5.330 -0.4099  0.6928  0.0477
 3664TIP3    H132483   3.679   0.665   5.339 -0.9168  0.6701  0.3216
 3664TIP3    H232484   3.750   0.540   5.386 -0.5136  0.8785  0.2772
 3665TIP3   OH232485   2.470   0.962   4.430  0.9864 -0.2458  0.3922
 3665TIP3    H132486   2.565   0.952   4.430  0.9143 -1.2119 -1.2043
 3665TIP3    H232487   2.451   1.012   4.351  0.2127  0.4038  0.9858
 3666TIP3   OH232488   4.155   3.172   5.274  0.2932 -0.4364  0.0137
 3666TIP3    H132489   4.111   3.241   5.226  0.2773 -0.9955 -0.7854
 3666TIP3    H232490   4.199   3.120   5.207  1.0319 -0.6824  0.6827
 3667TIP3   OH232491   2.868   3.285   0.583  0.4703 -0.1775 -0.4979
 3667TIP3    H132492   2.857   3.196   0.616 -1.4168  0.5016  0.7764
 3667TIP3    H232493   2.796   3.335   0.622  1.6288  1.9698 -1.0052
 3668TIP3   OH232494   6.339   6.159   5.103  0.5838 -0.0474 -0.1155
 3668TIP3    H132495   6.298   6.222   5.162  1.0795  1.4888 -1.3988
 3668TIP3    H232496   6.409   6.208   5.059  2.7733 -2.1670  0.8254
 3669TIP3   OH232497   4.189   3.845  14.850 -0.3734 -0.3477 -0.0447
 3669TIP3    H132498   4.207   3.939  14.846  0.1804 -0.4631 -0.3234
 3669TIP3    H232499   4.176   3.819  14.759 -2.5881 -0.1563  0.1903
 3670TIP3   OH232500   1.294   4.839  11.659  0.1011  0.0966 -0.0193
 3670TIP3    H132501   1.274   4.915  11.604  1.7538 -0.2311 -1.1240
 3670TIP3    H232502   1.379   4.809  11.628 -0.9714 -2.8540 -0.3220
 3671TIP3   OH232503   5.540   3.919  15.314 -0.1933  0.0070 -0.3127
 3671TIP3    H132504   5.505   3.849  15.370 -1.0589 -0.3049 -1.2500
 3671TIP3    H232505   5.471   3.985  15.312  1.3164  1.7729  2.0581
 3672TIP3   OH232506   1.719   0.114   2.507  0.1495  0.2183  0.3695
 3672TIP3    H132507   1.661   0.184   2.538 -0.3219  0.3110 -0.6851
 3672TIP3    H232508   1.782   0.102   2.578 -0.3554  1.0423  0.9726
 3673TIP3   OH232509   2.866   5.043  16.758 -0.6740  0.0948  0.1154
 3673TIP3    H132510   2.785   5.089  16.781  0.3747  1.6029  0.9309
 3673TIP3    H232511   2.931   5.113  16.752  0.2938 -0.9382 -1.8614
 3674TIP3   OH232512   6.119   6.511   3.675  0.4716 -0.0487  0.1666
 3674TIP3    H132513   6.047   6.513   3.738  1.6941 -0.6914  1.6125
 3674TIP3    H232514   6.130   6.419   3.653  1.1176  0.0007  0.2649
 3675TIP3   OH232515   0.446   0.649  15.208 -0.5727 -0.1497 -0.1995
 3675TIP3    H132516   0.521   0.688  15.163 -0.4235 -2.2795 -1.8935
 3675TIP3    H232517   0.370   0.685  15.163 -0.5544  1.2856  0.9020
 3676TIP3   OH232518   6.469   1.682  15.023  0.4876 -0.3733 -0.4321
 3676TIP3    H132519   6.475   1.708  15.115  1.8813  0.5126 -0.7657
 3676TIP3    H232520   6.467   1.586  15.025 -0.8311 -0.3336  0.5865
 3677TIP3   OH232521   4.880   2.639   4.910  0.4425  0.9229  0.0597
 3677TIP3    H132522   4.795   2.672   4.938 -0.0546  0.3344 -0.7256
 3677TIP3    H232523   4.935   2.644   4.988 -0.1891  1.7026  0.4647
 3678TIP3   OH232524   2.930   4.748  13.217 -0.4168 -0.4879 -0.1513
 3678TIP3    H132525   2.883   4.712  13.292  0.3501 -0.4902  0.3312
 3678TIP3    H232526   3.022   4.734  13.237 -0.1987 -0.3630 -1.0329
 3679TIP3   OH232527   2.830   6.611   2.115 -0.8173 -0.2826  0.4405
 3679TIP3    H132528   2.839   6.524   2.154 -1.4876  0.0128  1.2752
 3679TIP3    H232529   2.798   6.666   2.187 -1.5847  0.3873 -0.3973
 3680TIP3   OH232530   5.394   4.668   1.699 -0.0183 -0.7924 -0.7321
 3680TIP3    H132531   5.454   4.681   1.772  0.9573  0.9548 -1.8052
 3680TIP3    H232532   5.323   4.615   1.735 -0.4299  1.4866  1.9149
 3681TIP3   OH232533   5.655   2.354  12.251 -0.2699 -0.1490 -0.2547
 3681TIP3    H132534   5.649   2.283  12.315 -0.6647  1.6861  1.7980
 3681TIP3    H232535   5.576   2.406  12.265  0.1718  0.8855 -1.5086
 3682TIP3   OH232536   2.039   2.798   1.322  0.3972 -0.4622  0.0151
 3682TIP3    H132537   2.122   2.829   1.286 -0.9335  2.4300 -0.7581
 3682TIP3    H232538   2.029   2.709   1.289  1.9700  0.0939 -2.0275
 3683TIP3   OH232539   4.995   6.269  12.221  0.1320 -0.2183 -0.2488
 3683TIP3    H132540   4.963   6.308  12.139 -0.7136 -0.7138 -0.1613
 3683TIP3    H232541   5.067   6.326  12.248  0.6966 -0.2856 -1.5560
 3684TIP3   OH232542   4.867   3.119   1.144  0.2260 -0.9140  0.3012
 3684TIP3    H132543   4.850   3.031   1.178  0.1899 -1.3689 -0.8410
 3684TIP3    H232544   4.945   3.149   1.191  0.3601 -1.6476  0.5579
 3685TIP3   OH232545   1.829   3.129   2.509 -0.1247 -0.0247 -1.2812
 3685TIP3    H132546   1.808   3.201   2.449 -0.4688 -0.0623 -1.2103
 3685TIP3    H232547   1.805   3.050   2.460 -0.6096 -0.0456 -1.0149
 3686TIP3   OH232548   0.258   3.360   3.366 -1.0108  0.1358 -0.2544
 3686TIP3    H132549   0.164   3.350   3.377 -0.9100 -1.2860 -0.5338
 3686TIP3    H232550   0.290   3.270   3.356  0.1202  0.7287 -2.2582
 3687TIP3   OH232551   6.320   4.130   0.927  0.3429  0.1881 -0.3388
 3687TIP3    H132552   6.332   4.187   0.851  0.5761 -2.0514 -2.0170
 3687TIP3    H232553   6.382   4.164   0.992  1.6290  0.8504 -1.8697
 3688TIP3   OH232554   6.374   2.158   4.774 -0.3647  0.1401 -0.0203
 3688TIP3    H132555   6.362   2.077   4.824  0.7557 -0.2322 -0.3346
 3688TIP3    H232556   6.335   2.140   4.688  0.1990 -0.2010 -0.2096
 3689TIP3   OH232557   6.231   4.394   6.605  0.9641  0.1319  0.2306
 3689TIP3    H132558   6.184   4.409   6.687  1.8825 -1.6736  1.1292
 3689TIP3    H232559   6.163   4.371   6.541  0.3509  0.3816  0.7993
 3690TIP3   OH232560   1.362   0.545  12.457  0.1990  0.3464  0.3850
 3690TIP3    H132561   1.303   0.570  12.386 -0.9061 -1.0067  0.8072
 3690TIP3    H232562   1.432   0.610  12.454 -1.5972  2.3191  0.2371
 3691TIP3   OH232563   4.642   3.104  17.064 -0.2096  0.6002  0.5680
 3691TIP3    H132564   4.705   3.102  17.137 -1.3970  0.7347  1.6261
 3691TIP3    H232565   4.668   3.179  17.012 -0.3368  1.5057  1.7771
 3692TIP3   OH232566   2.367   5.036   2.042 -0.0673 -0.4285  0.1020
 3692TIP3    H132567   2.286   4.995   2.071  0.6631 -2.0032  0.0303
 3692TIP3    H232568   2.429   5.019   2.113  0.0119  1.3998  0.4830
 3693TIP3   OH232569   1.292   3.985  13.665 -0.5509  0.2664  0.1877
 3693TIP3    H132570   1.356   4.056  13.658  1.3417 -1.1310  2.7548
 3693TIP3    H232571   1.256   3.994  13.753 -0.2216 -2.0152  0.5737
 3694TIP3   OH232572   3.447   1.085   4.844  0.4584  0.1029  0.0834
 3694TIP3    H132573   3.365   1.065   4.889  1.0882 -0.1443  1.1479
 3694TIP3    H232574   3.444   1.033   4.764  0.3878 -1.3030  0.9917
 3695TIP3   OH232575   2.895   5.607   3.628  0.4864 -0.0046  0.3828
 3695TIP3    H132576   2.909   5.590   3.535 -0.5766 -0.0151  0.2167
 3695TIP3    H232577   2.886   5.520   3.667 -0.7407  0.0334  0.2142
 3696TIP3   OH232578   3.505   6.007   5.744 -0.1233  0.3371 -0.1600
 3696TIP3    H132579   3.436   6.020   5.809 -0.6644  1.4458 -0.9433
 3696TIP3    H232580   3.515   6.093   5.703 -1.0691 -0.7836 -2.8228
 3697TIP3   OH232581   0.323   4.164   3.171  0.1991  0.3086  0.4840
 3697TIP3    H132582   0.285   4.226   3.233  0.5360  0.2720  0.7288
 3697TIP3    H232583   0.417   4.180   3.175  0.1455  1.0323 -0.8029
 3698TIP3   OH232584   2.369   1.570  13.698  0.2064 -0.8885  0.2210
 3698TIP3    H132585   2.287   1.532  13.729 -0.0144  0.0069  0.7505
 3698TIP3    H232586   2.433   1.499  13.705 -0.7408 -1.9002 -1.1748
 3699TIP3   OH232587   2.481   1.518   2.918  0.3763  0.0994  0.2702
 3699TIP3    H132588   2.406   1.531   2.861  0.5769  0.0449 -0.0071
 3699TIP3    H232589   2.466   1.432   2.958  2.0998 -1.6069 -2.5745
 3700TIP3   OH232590   2.998   2.577  15.616  0.0982  0.4022  0.2181
 3700TIP3    H132591   2.979   2.665  15.586 -1.8489 -0.0068  0.1771
 3700TIP3    H232592   2.912   2.537  15.629  0.9256 -0.9407  1.8462
 3701TIP3   OH232593   6.316   0.645   3.878 -0.1273 -0.0997  0.0698
 3701TIP3    H132594   6.324   0.687   3.793  0.3974 -0.5144 -0.0859
 3701TIP3    H232595   6.255   0.700   3.927 -0.8796 -0.1846 -0.7734
 3702TIP3   OH232596   5.609   5.345   5.627 -0.6141 -0.0641 -0.9918
 3702TIP3    H132597   5.573   5.275   5.681  0.2160 -0.7062 -1.2727
 3702TIP3    H232598   5.589   5.425   5.677  1.1323 -0.7263  0.8626
 3703TIP3   OH232599   1.629   5.579   4.797 -0.0373 -0.4467  0.3292
 3703TIP3    H132600   1.626   5.529   4.716 -1.7648  0.0166  0.0912
 3703TIP3    H232601   1.654   5.514   4.864 -0.0176 -1.1340 -0.3340
 3704TIP3   OH232602   2.610   5.965   6.955  0.1060  0.7566 -0.9807
 3704TIP3    H132603   2.594   5.912   6.877 -0.6268 -1.5400  0.7009
 3704TIP3    H232604   2.693   6.009   6.937  0.4724 -0.5542 -2.6152
 3705TIP3   OH232605   5.124   1.412  16.830 -0.9399 -0.4036  0.0785
 3705TIP3    H132606   5.189   1.459  16.884 -0.6981  2.6667 -2.7462
 3705TIP3    H232607   5.072   1.364  16.894  1.4607  0.3978  2.7984
 3706TIP3   OH232608   1.881   5.237  14.243  0.4856  0.3814  0.5248
 3706TIP3    H132609   1.917   5.313  14.288  1.9294 -0.3462  0.6459
 3706TIP3    H232610   1.910   5.247  14.152  0.8016 -0.0794  0.5706
 3707TIP3   OH232611   0.619   2.825   0.557  0.1115 -0.1906  0.2291
 3707TIP3    H132612   0.633   2.919   0.543  1.7685 -0.3561  0.6500
 3707TIP3    H232613   0.635   2.813   0.651 -1.2638 -0.6995  0.3997
 3708TIP3   OH232614   2.323   0.568   0.475 -0.4778  0.2557 -0.2513
 3708TIP3    H132615   2.328   0.653   0.431  0.6042  0.6104  0.5272
 3708TIP3    H232616   2.363   0.507   0.413 -0.5130  0.4563 -0.4723
 3709TIP3   OH232617   5.115   4.343  15.479  0.3041 -0.0960 -0.0264
 3709TIP3    H132618   5.109   4.439  15.479 -2.5293 -0.1541  3.6563
 3709TIP3    H232619   5.173   4.323  15.552  1.3939 -1.2137 -1.1805
 3710TIP3   OH232620   0.581   0.962  11.545  0.4501 -0.1801  0.2711
 3710TIP3    H132621   0.497   0.929  11.513 -0.0438  1.1157  0.2009
 3710TIP3    H232622   0.624   0.997  11.467  0.0999  1.1730  0.6813
 3711TIP3   OH232623   2.538   0.405   1.807 -0.0824  0.1115  0.4380
 3711TIP3    H132624   2.621   0.389   1.852 -0.3638 -2.2498  0.1942
 3711TIP3    H232625   2.474   0.419   1.877 -0.5898 -3.8879  0.9020
 3712TIP3   OH232626   3.584   6.346  11.377  0.4282  0.5323 -0.4209
 3712TIP3    H132627   3.565   6.439  11.390 -0.8462  0.4658 -1.7435
 3712TIP3    H232628   3.643   6.344  11.302  0.1562  0.2502 -0.6288
 3713TIP3   OH232629   6.425   5.985  11.727 -0.6303  0.2700 -0.1400
 3713TIP3    H132630   6.513   5.985  11.688 -0.9298  1.6436 -0.8332
 3713TIP3    H232631   6.373   6.042  11.670 -1.8104 -0.0091  0.6418
 3714TIP3   OH232632   1.043   2.984   1.118  0.2633 -0.4892  0.6745
 3714TIP3    H132633   1.122   2.969   1.067  0.1038 -1.0694  0.5897
 3714TIP3    H232634   0.974   2.998   1.053 -0.3324 -3.1555  0.6335
 3715TIP3   OH232635   6.100   4.679  11.091 -0.3115 -0.1066  0.1447
 3715TIP3    H132636   6.006   4.688  11.103 -0.0697 -0.2985  2.3015
 3715TIP3    H232637   6.124   4.754  11.036 -1.4306  1.0657  1.2076
 3716TIP3   OH232638   0.833   0.225  11.542  0.1962  0.2629  0.7869
 3716TIP3    H132639   0.832   0.316  11.512  0.2585 -1.0343 -3.4380
 3716TIP3    H232640   0.753   0.187  11.505 -0.4489 -1.1455  3.5146
 3717TIP3   OH232641   2.477   2.716   5.084 -0.3704 -0.5926  0.2290
 3717TIP3    H132642   2.455   2.681   5.170 -2.6442  0.0919 -0.0649
 3717TIP3    H232643   2.399   2.762   5.055  0.0358 -1.5818 -2.6215
 3718TIP3   OH232644   5.043   0.171   3.598  0.0260 -0.0289 -0.2706
 3718TIP3    H132645   5.136   0.195   3.599 -0.2894  1.2029 -0.1715
 3718TIP3    H232646   5.015   0.184   3.508 -0.0222 -0.5070 -0.3243
 3719TIP3   OH232647   3.161   5.926   1.861  0.6835  0.1168 -0.2654
 3719TIP3    H132648   3.124   5.893   1.779  0.2204  0.7472 -0.3065
 3719TIP3    H232649   3.235   5.867   1.878 -0.2415 -1.0656 -0.2499
 3720TIP3   OH232650   6.441   2.717  11.926 -0.4292 -0.2567 -0.2618
 3720TIP3    H132651   6.482   2.632  11.907  0.9525  0.4097 -0.3369
 3720TIP3    H232652   6.358   2.694  11.968 -0.0679 -1.6506 -0.2696
 3721TIP3   OH232653   5.521   0.675  14.083 -0.0040 -0.3511  0.1280
 3721TIP3    H132654   5.577   0.682  14.005 -0.6198 -0.9490 -0.3711
 3721TIP3    H232655   5.529   0.584  14.110  3.8125  0.8418  3.4960
 3722TIP3   OH232656   6.141   2.958  15.441 -0.2489  0.3040 -0.5696
 3722TIP3    H132657   6.076   3.000  15.497 -0.6517 -1.5726  0.3967
 3722TIP3    H232658   6.092   2.933  15.362 -0.7126 -1.0581  0.1329
 3723TIP3   OH232659   1.185   4.747   2.930 -0.0507 -0.5745 -0.7168
 3723TIP3    H132660   1.253   4.682   2.910  0.2962 -0.5480  0.3389
 3723TIP3    H232661   1.205   4.821   2.873  0.3444 -0.8724 -0.9714
 3724TIP3   OH232662   3.815   4.903  10.976  0.3280  0.2651  0.5786
 3724TIP3    H132663   3.727   4.926  10.948  0.1986  0.1865  0.9166
 3724TIP3    H232664   3.852   4.985  11.010  0.2383  0.2089  0.8143
 3725TIP3   OH232665   0.618   6.243   4.787 -0.1812  0.5579  0.2917
 3725TIP3    H132666   0.593   6.186   4.859  0.6477  0.8545  0.8184
 3725TIP3    H232667   0.572   6.208   4.711 -1.2922  0.4213  1.0265
 3726TIP3   OH232668   0.966   2.177  12.911  0.7436  0.2546 -0.5828
 3726TIP3    H132669   0.960   2.082  12.901 -0.6361 -0.1077  2.9527
 3726TIP3    H232670   0.891   2.211  12.863 -0.4589 -0.6839  0.6015
 3727TIP3   OH232671   6.656   6.708  16.452  0.2892 -0.5171 -0.2613
 3727TIP3    H132672   6.592   6.707  16.381 -0.4817  0.7120  0.3895
 3727TIP3    H232673   6.661   6.800  16.478  2.5212 -0.5616 -0.4681
 3728TIP3   OH232674   4.367   6.138   6.119  0.0221 -0.6415 -0.3156
 3728TIP3    H132675   4.273   6.160   6.116  0.4236  1.3384  0.6509
 3728TIP3    H232676   4.377   6.089   6.201  0.0772  0.4028  0.3067
 3729TIP3   OH232677   1.325   2.472   1.770 -0.1622  0.3960  0.5763
 3729TIP3    H132678   1.257   2.533   1.796  0.6924  1.5946  0.0446
 3729TIP3    H232679   1.317   2.399   1.832 -2.1073  0.3797  0.3254
 3730TIP3   OH232680   1.469   0.298  14.440  0.1362 -0.1775 -0.5128
 3730TIP3    H132681   1.451   0.388  14.410 -2.0016 -0.5240 -0.3830
 3730TIP3    H232682   1.408   0.285  14.513 -0.1672 -2.0131 -1.0726
 3731TIP3   OH232683   3.180   4.929  12.529  0.0766  0.2935  0.0023
 3731TIP3    H132684   3.225   5.000  12.482  1.5579 -0.9694 -0.5515
 3731TIP3    H232685   3.225   4.923  12.613  1.4750 -1.4171 -0.8123
 3732TIP3   OH232686   2.928   1.728   0.140 -0.2268 -0.0419 -0.0400
 3732TIP3    H132687   2.929   1.632   0.136 -0.0014 -0.0825  0.8601
 3732TIP3    H232688   2.835   1.751   0.136 -0.3223 -0.3347  0.4188
 3733TIP3   OH232689   4.769   0.286   2.001  0.0729 -0.0272  0.4477
 3733TIP3    H132690   4.776   0.377   1.971 -0.8072  0.0279  0.4043
 3733TIP3    H232691   4.846   0.243   1.964  1.1855  0.9946  1.5222
 3734TIP3   OH232692   2.780   2.426   2.308  0.1826 -0.0408  0.2696
 3734TIP3    H132693   2.687   2.431   2.329  0.3011  2.0864  0.4631
 3734TIP3    H232694   2.820   2.387   2.386 -0.6245 -1.6757 -0.1190
 3735TIP3   OH232695   6.802   2.446   1.868 -0.0218 -0.9081 -0.3676
 3735TIP3    H132696   6.808   2.481   1.779 -0.9304 -0.5772 -0.3023
 3735TIP3    H232697   6.863   2.372   1.869  0.6727 -0.3438 -0.9928
 3736TIP3   OH232698   2.637   0.624  12.420  0.4846  0.1064  0.1471
 3736TIP3    H132699   2.642   0.673  12.502 -1.8552  0.6202  0.0193
 3736TIP3    H232700   2.609   0.689  12.355  2.2468 -0.3056 -1.0517
 3737TIP3   OH232701   0.833   0.240   5.129  0.2821 -0.0747  0.2036
 3737TIP3    H132702   0.778   0.318   5.138  0.8881  0.3776  0.0370
 3737TIP3    H232703   0.858   0.217   5.219  0.3011  0.0703  0.2356
 3738TIP3   OH232704   5.045   2.473  14.402 -0.2002 -0.1077  0.6749
 3738TIP3    H132705   4.993   2.515  14.470 -2.7336 -0.3854 -0.9821
 3738TIP3    H232706   5.036   2.531  14.326 -0.2072 -1.4608 -0.3761
 3739TIP3   OH232707   0.895   0.031   1.010 -0.1269 -0.0513 -0.2603
 3739TIP3    H132708   0.916  -0.062   1.005 -1.7198 -0.4190 -0.5142
 3739TIP3    H232709   0.848   0.049   0.929  0.5866  1.0947 -0.4340
 3740TIP3   OH232710   3.201   3.834   5.961 -0.3251 -0.4356 -0.8065
 3740TIP3    H132711   3.132   3.780   6.001 -1.2378  1.6860  0.5710
 3740TIP3    H232712   3.274   3.830   6.023  0.0299 -0.9890 -1.2552
 3741TIP3   OH232713   4.503   6.588  11.603 -0.5086 -0.0297  0.1004
 3741TIP3    H132714   4.489   6.623  11.514 -1.3561 -0.1917  0.1647
 3741TIP3    H232715   4.453   6.647  11.660 -0.3339 -0.1943  0.4256
 3742TIP3   OH232716   1.147   0.808  16.376  0.4401  0.5654 -0.1311
 3742TIP3    H132717   1.085   0.856  16.431  0.3274 -0.6961  0.8821
 3742TIP3    H232718   1.150   0.720  16.414  2.1012  0.3175 -0.7636
 3743TIP3   OH232719   4.539   5.741   5.644 -0.0573  0.6494 -0.0585
 3743TIP3    H132720   4.551   5.728   5.550 -1.3070  0.6575 -0.2289
 3743TIP3    H232721   4.618   5.705   5.684 -0.5760 -1.5944 -0.9581
 3744TIP3   OH232722   1.982   1.160  15.579  0.5215 -0.3807  0.1545
 3744TIP3    H132723   1.970   1.126  15.491  0.0991 -0.5749  0.2839
 3744TIP3    H232724   1.923   1.107  15.633  0.5442 -0.0540  0.5002
 3745TIP3   OH232725   5.497   5.030   2.251 -0.5270 -0.1283 -0.2513
 3745TIP3    H132726   5.451   5.032   2.335  1.4224 -0.4089  0.8509
 3745TIP3    H232727   5.441   5.079   2.192 -1.8927  0.1436  1.2323
 3746TIP3   OH232728   2.368   4.126  12.638  0.0698 -0.1435  0.3793
 3746TIP3    H132729   2.442   4.154  12.584 -0.0827 -1.7141 -0.6682
 3746TIP3    H232730   2.408   4.100  12.721  0.3741  1.6407  0.8120
 3747TIP3   OH232731   5.060   5.494   4.735  0.2517 -0.4939  0.2818
 3747TIP3    H132732   5.047   5.433   4.807 -2.6159  0.4781  0.6365
 3747TIP3    H232733   5.143   5.538   4.755 -0.9398  0.4048  3.4755
 3748TIP3   OH232734   5.990   0.451   2.061 -0.2291  0.2432 -0.9006
 3748TIP3    H132735   5.965   0.359   2.050  0.3985  0.0340 -0.5621
 3748TIP3    H232736   5.962   0.493   1.979  1.5985 -0.7116 -2.0221
 3749TIP3   OH232737   1.604   2.559  12.473  0.2579  0.1598  0.3468
 3749TIP3    H132738   1.524   2.527  12.516  0.8696  2.1192  3.1522
 3749TIP3    H232739   1.655   2.481  12.454 -0.9969 -0.9262  1.3831
 3750TIP3   OH232740   6.442   1.093  11.459 -0.0374 -0.1629 -0.0610
 3750TIP3    H132741   6.450   1.165  11.397  1.7419 -0.9141 -0.7272
 3750TIP3    H232742   6.399   1.131  11.536 -3.4572  0.4859 -2.2021
 3751TIP3   OH232743   3.090   2.025  13.235 -0.4385 -0.2458  0.3606
 3751TIP3    H132744   3.131   2.036  13.149 -0.9235 -0.1021  0.1457
 3751TIP3    H232745   3.128   2.095  13.289 -2.7913  1.9639 -0.7305
 3752TIP3   OH232746   4.269   0.244   0.557  0.4368 -0.2925 -0.4871
 3752TIP3    H132747   4.354   0.202   0.543  0.8541 -0.4085  2.1183
 3752TIP3    H232748   4.208   0.171   0.570  0.8323 -0.2083  2.2298
 3753TIP3   OH232749   5.442   1.128  12.876  0.5071 -0.3826  0.5339
 3753TIP3    H132750   5.401   1.073  12.943  0.6775 -1.2688 -0.0745
 3753TIP3    H232751   5.415   1.089  12.793  1.9581 -0.5252  0.1125
 3754TIP3   OH232752   5.869   5.864   3.558 -0.5888  0.0339 -0.1964
 3754TIP3    H132753   5.932   5.806   3.515 -0.7224  0.5483 -1.0804
 3754TIP3    H232754   5.799   5.806   3.588 -1.2543 -0.1270 -2.0433
 3755TIP3   OH232755   3.105   4.294  15.330 -0.2800 -0.7070 -0.3076
 3755TIP3    H132756   3.111   4.202  15.305  1.3580 -0.4179 -1.0275
 3755TIP3    H232757   3.079   4.339  15.250  3.0032 -0.0355 -1.0717
 3756TIP3   OH232758   3.394   5.066  11.204 -0.2835 -0.0121 -0.0658
 3756TIP3    H132759   3.316   5.062  11.259 -0.3018  1.4575  0.0386
 3756TIP3    H232760   3.368   5.025  11.122 -0.9902 -0.0573  0.1798
 3757TIP3   OH232761   0.065   3.931   1.471 -0.1226  0.2804 -0.0000
 3757TIP3    H132762   0.056   3.898   1.561  0.5335 -2.6937 -0.9590
 3757TIP3    H232763   0.093   3.854   1.421  0.6484  2.1728 -2.5421
 3758TIP3   OH232764   3.947   1.080   2.643  0.6100 -0.1643  0.0183
 3758TIP3    H132765   3.947   1.097   2.737  0.3782  1.5974 -0.2994
 3758TIP3    H232766   4.003   1.148   2.606  1.0864 -1.1342 -1.0785
 3759TIP3   OH232767   0.669   4.973   0.485 -0.0935 -0.2728 -0.4073
 3759TIP3    H132768   0.627   4.891   0.458  1.9087 -0.5460 -2.9365
 3759TIP3    H232769   0.763   4.953   0.482  0.3729  1.7643  0.1921
 3760TIP3   OH232770   1.547   4.351  13.918 -0.0388  0.3807  0.0437
 3760TIP3    H132771   1.478   4.341  13.982 -1.6374  0.5671 -1.6106
 3760TIP3    H232772   1.528   4.433  13.873 -0.0283 -0.6201 -1.8873
 3761TIP3   OH232773   2.588   1.158   2.341 -0.4011 -0.1687  0.7845
 3761TIP3    H132774   2.510   1.158   2.397 -0.6198 -1.3453  0.5020
 3761TIP3    H232775   2.563   1.209   2.264 -1.2235 -1.3526  0.2586
 3762TIP3   OH232776   2.306   2.064   2.648  0.3337  0.4104 -0.2457
 3762TIP3    H132777   2.258   2.073   2.566  1.5440 -0.3919 -1.0433
 3762TIP3    H232778   2.297   1.972   2.671 -0.0495  0.6438  0.5575
 3763TIP3   OH232779   3.829   0.055   1.491 -0.2756 -0.4395  0.3498
 3763TIP3    H132780   3.817   0.071   1.398 -2.4395  1.2275  0.8585
 3763TIP3    H232781   3.739   0.048   1.526  0.4339  0.7828  2.5579
 3764TIP3   OH232782   1.206   1.532   3.895  0.4246 -0.6234 -0.1166
 3764TIP3    H132783   1.138   1.465   3.888  0.4282 -0.4952 -1.5027
 3764TIP3    H232784   1.261   1.519   3.818  0.7733  0.5966 -0.0870
 3765TIP3   OH232785   5.971   4.706   4.668 -0.0008 -0.2106  0.1343
 3765TIP3    H132786   5.950   4.787   4.621 -1.7935 -2.0221 -2.2738
 3765TIP3    H232787   6.050   4.673   4.625 -0.1733 -0.5506  0.0765
 3766TIP3   OH232788   5.876   1.798   2.103 -0.0489 -0.3024 -0.1827
 3766TIP3    H132789   5.963   1.826   2.131  0.1059 -1.1519  0.2075
 3766TIP3    H232790   5.885   1.783   2.009  0.0859  0.1207 -0.2396
 3767TIP3   OH232791   4.399   3.138  14.723  0.2116  0.2818 -0.1025
 3767TIP3    H132792   4.399   3.100  14.635  0.0061  0.1991 -0.0675
 3767TIP3    H232793   4.401   3.063  14.782  3.1156  0.3654 -0.0311
 3768TIP3   OH232794   1.373   3.517   1.932 -0.2879 -0.6394  0.0341
 3768TIP3    H132795   1.380   3.599   1.883 -0.2477  0.4845  1.8697
 3768TIP3    H232796   1.306   3.467   1.884  0.4145  0.0210 -1.6871
 3769TIP3   OH232797   0.849   5.358   2.239  0.6677 -0.3307 -0.0309
 3769TIP3    H132798   0.910   5.287   2.218  1.2460  0.0256  0.4608
 3769TIP3    H232799   0.778   5.348   2.175  0.4026 -1.7829  0.4582
 3770TIP3   OH232800   4.669   1.243  12.586 -0.1406  0.5189  0.4937
 3770TIP3    H132801   4.595   1.230  12.527 -0.1403  1.3380  0.3022
 3770TIP3    H232802   4.745   1.251  12.529  0.3765 -2.0865  0.7650
 3771TIP3   OH232803   2.547   3.694   3.926  0.6456 -0.3028 -0.2010
 3771TIP3    H132804   2.556   3.604   3.897  0.9269 -0.4434  0.2981
 3771TIP3    H232805   2.498   3.688   4.008  1.7356 -0.1208  0.4737
 3772TIP3   OH232806   1.873   2.283   3.524 -0.0375 -0.2232 -0.0639
 3772TIP3    H132807   1.887   2.250   3.435  2.3304  1.4237 -0.3614
 3772TIP3    H232808   1.829   2.212   3.570  1.9845 -2.5141 -1.5600
 3773TIP3   OH232809   4.874   1.430  11.699 -0.2792 -0.4453  0.7040
 3773TIP3    H132810   4.808   1.486  11.739 -2.1535 -0.8847 -1.6038
 3773TIP3    H232811   4.911   1.483  11.628 -0.1187 -1.1410  0.2510
 3774TIP3   OH232812   5.608   4.409   3.142  0.6921 -0.0756  0.1776
 3774TIP3    H132813   5.547   4.335   3.134 -0.4941  0.6576  1.9715
 3774TIP3    H232814   5.590   4.464   3.066 -0.2867 -0.3033  0.2410
 3775TIP3   OH232815   3.652   3.612   3.146 -0.1799 -0.1393 -0.3331
 3775TIP3    H132816   3.711   3.620   3.071 -1.2863  0.8467 -1.1159
 3775TIP3    H232817   3.650   3.518   3.165 -0.0421 -0.4263 -1.6781
 3776TIP3   OH232818   0.777   4.688  16.342 -0.1314 -0.0955  0.2404
 3776TIP3    H132819   0.736   4.688  16.428 -1.9777  1.5991 -0.6302
 3776TIP3    H232820   0.774   4.596  16.314 -1.6590 -0.2666  0.9648
 3777TIP3   OH232821   4.349   5.960   0.809  0.2286 -0.1397  0.2203
 3777TIP3    H132822   4.393   5.979   0.726 -1.0337  0.6167 -0.2841
 3777TIP3    H232823   4.303   5.877   0.793 -0.1147  0.0685  0.1157
 3778TIP3   OH232824   2.384   4.742  15.414 -0.9858  0.2380  0.2857
 3778TIP3    H132825   2.334   4.822  15.401 -3.3357 -1.3417 -0.8880
 3778TIP3    H232826   2.317   4.674  15.425  0.9236 -1.7965 -0.3491
 3779TIP3   OH232827   1.894   0.380  12.022 -0.3089 -0.2223  0.0626
 3779TIP3    H132828   1.975   0.412  11.982  0.2313 -1.2659  0.3379
 3779TIP3    H232829   1.870   0.303  11.971 -0.9011 -0.1723  0.2546
 3780TIP3   OH232830   0.481   1.014  10.399  0.6467  0.5387  0.0109
 3780TIP3    H132831   0.537   1.027  10.475  0.0885 -0.6715  0.6394
 3780TIP3    H232832   0.516   0.935  10.357 -0.9973 -0.6303  0.7879
 3781TIP3   OH232833   1.228   0.797  14.353  0.4869  0.2751 -0.1730
 3781TIP3    H132834   1.254   0.783  14.262  0.6830 -0.8347  0.0444
 3781TIP3    H232835   1.297   0.756  14.404 -0.3303 -0.3472  0.4489
 3782TIP3   OH232836   0.269   5.085  16.806 -0.1009 -0.2994  0.7344
 3782TIP3    H132837   0.334   5.049  16.866  0.7985  0.3107  0.1407
 3782TIP3    H232838   0.234   5.009  16.761  1.5945 -0.4835 -0.3219
 3783TIP3   OH232839   1.081   3.975  11.547 -0.2852 -0.3900 -0.2672
 3783TIP3    H132840   1.082   3.927  11.464  0.3111 -0.4585 -0.2237
 3783TIP3    H232841   1.092   4.067  11.521 -0.6387 -0.3583 -0.3006
 3784TIP3   OH232842   2.133   1.814  11.419  0.7497 -0.2225 -0.8032
 3784TIP3    H132843   2.043   1.833  11.446  0.6739 -1.6118 -0.0204
 3784TIP3    H232844   2.184   1.888  11.452 -0.2724  1.2348 -2.3837
 3785TIP3   OH232845   5.912   0.232   4.738  0.1006 -0.2480  0.1295
 3785TIP3    H132846   5.870   0.156   4.697 -0.0131  0.5245 -1.2068
 3785TIP3    H232847   5.844   0.267   4.796 -0.2451 -0.4773 -0.1297
 3786TIP3   OH232848   1.872   3.041   2.766  0.0929 -0.2082 -0.3832
 3786TIP3    H132849   1.871   3.049   2.671  0.1468  1.0879 -0.2872
 3786TIP3    H232850   1.946   2.982   2.784 -0.1276 -0.7257 -1.1544
 3787TIP3   OH232851   6.399   4.492  15.011  0.2462 -0.0240  0.4195
 3787TIP3    H132852   6.487   4.486  15.049  0.3865  1.5950  0.4039
 3787TIP3    H232853   6.379   4.403  14.983  1.0375 -0.8242  2.2810
 3788TIP3   OH232854   2.517   0.669  12.845 -0.7099 -0.2629  0.0368
 3788TIP3    H132855   2.504   0.645  12.937  1.0693  0.3580  0.4793
 3788TIP3    H232856   2.434   0.648  12.803 -0.5201 -3.4789  1.1522
 3789TIP3   OH232857   4.831   4.433   3.814  0.3623 -0.3245 -0.0265
 3789TIP3    H132858   4.758   4.449   3.754  1.1691 -0.0088 -0.9291
 3789TIP3    H232859   4.910   4.452   3.763  1.1394 -1.8473  0.5616
 3790TIP3   OH232860   6.459   5.976   0.147  0.1396  0.2973  0.0936
 3790TIP3    H132861   6.412   6.042   0.198  1.4318 -0.7646  2.7403
 3790TIP3    H232862   6.541   6.017   0.123  0.4500  0.0562  0.7388
 3791TIP3   OH232863   1.921   5.790   6.078 -0.4990 -0.1073 -0.1989
 3791TIP3    H132864   1.925   5.727   6.006 -1.1160 -1.1329  0.6605
 3791TIP3    H232865   1.925   5.737   6.157  2.9253  1.1458  0.5977
 3792TIP3   OH232866   0.229   1.438   1.493  0.0403 -0.0107 -0.0696
 3792TIP3    H132867   0.212   1.506   1.558 -0.0510  0.4998 -0.6360
 3792TIP3    H232868   0.154   1.440   1.435  1.1023  0.9266 -1.4238
 3793TIP3   OH232869   1.023   0.657  13.240  0.0086 -0.0566 -0.0087
 3793TIP3    H132870   1.043   0.751  13.245 -3.1204  0.5553  2.9779
 3793TIP3    H232871   1.049   0.622  13.326 -2.2350 -1.1395  0.2719
 3794TIP3   OH232872   1.155   4.701  14.474 -0.3800  0.4736 -0.0404
 3794TIP3    H132873   1.171   4.698  14.569 -3.2886  1.2622  0.5448
 3794TIP3    H232874   1.072   4.654  14.463 -0.4955  1.1086 -2.0755
 3795TIP3   OH232875   0.898   5.962   5.986 -0.4605 -0.3578 -0.1684
 3795TIP3    H132876   0.982   5.977   6.029 -0.2370  0.6398 -0.9497
 3795TIP3    H232877   0.848   5.911   6.050  0.7983 -1.1340  0.2228
 3796TIP3   OH232878   2.110   6.007   4.165 -0.0014 -0.6705 -0.1906
 3796TIP3    H132879   2.135   6.017   4.257 -1.9956 -2.1657  0.5393
 3796TIP3    H232880   2.194   5.998   4.119  0.9746 -1.3505  1.6594
 3797TIP3   OH232881   2.553   1.347  16.140 -0.3545 -0.6589 -0.1054
 3797TIP3    H132882   2.629   1.308  16.099 -0.4050 -0.0922 -0.7548
 3797TIP3    H232883   2.545   1.303  16.225  1.5885  0.3242  0.6209
 3798TIP3   OH232884   2.886   2.276  17.138  0.2660  0.0127 -0.3733
 3798TIP3    H132885   2.833   2.254  17.215  0.2412 -0.6103 -0.5639
 3798TIP3    H232886   2.826   2.265  17.064 -1.0821  5.0927 -0.1746
 3799TIP3   OH232887   1.822   5.686   3.867 -0.0926 -0.2478 -0.0704
 3799TIP3    H132888   1.864   5.720   3.947 -0.7794 -1.2684  0.7372
 3799TIP3    H232889   1.825   5.591   3.877  2.1335 -0.4655 -2.4916
 3800TIP3   OH232890   4.762   4.900   5.123 -0.2997 -0.5684 -0.2069
 3800TIP3    H132891   4.685   4.864   5.168 -0.7435  0.4491 -0.1422
 3800TIP3    H232892   4.792   4.971   5.180  0.6098 -0.8714 -0.3029
 3801TIP3   OH232893   4.295   5.706  11.163  0.0156  0.1999  0.4266
 3801TIP3    H132894   4.308   5.611  11.160  0.1265  0.1350  2.2118
 3801TIP3    H232895   4.345   5.740  11.089  0.6792 -1.0619  0.2833
 3802TIP3   OH232896   0.029   0.370   3.362 -0.0114  0.3653  0.2168
 3802TIP3    H132897   0.017   0.401   3.452  1.7535 -0.2895  0.6958
 3802TIP3    H232898   0.091   0.298   3.369 -1.6074 -1.1915 -1.2872
 3803TIP3   OH232899   3.240   2.623   3.700  0.3512  0.2045 -0.5350
 3803TIP3    H132900   3.298   2.691   3.734  1.8552  0.2702 -3.0923
 3803TIP3    H232901   3.159   2.633   3.749  2.9747 -0.9069  4.3052
 3804TIP3   OH232902   6.378   4.092   4.108  0.4379 -0.5707 -0.5772
 3804TIP3    H132903   6.299   4.114   4.060  1.5982 -0.1210 -2.3136
 3804TIP3    H232904   6.388   3.997   4.096  0.8614 -0.4187 -1.4438
 3805TIP3   OH232905   3.089   4.569  11.255 -0.2573 -0.1928 -0.3602
 3805TIP3    H132906   3.007   4.593  11.210  0.5541  0.9177 -1.2653
 3805TIP3    H232907   3.152   4.557  11.184  0.8271  0.7412  0.4305
 3806TIP3   OH232908   1.617   0.333   0.905  0.0000 -0.7223  0.2256
 3806TIP3    H132909   1.690   0.394   0.891 -1.2395  0.5722 -0.8465
 3806TIP3    H232910   1.583   0.356   0.991  3.1440 -3.8457  2.4156
 3807TIP3   OH232911   5.216   2.690   1.526  0.1568  0.5152  0.0031
 3807TIP3    H132912   5.154   2.703   1.598  1.5342  2.2222  0.8992
 3807TIP3    H232913   5.289   2.641   1.566 -0.6585 -1.6782 -1.0944
 3808TIP3   OH232914   1.482   3.431  15.119 -0.1173  0.8011 -0.5430
 3808TIP3    H132915   1.553   3.385  15.074 -2.0535 -0.2240 -2.6799
 3808TIP3    H232916   1.468   3.381  15.199 -0.7590 -1.1425 -1.8093
 3809TIP3   OH232917   2.521   5.420   4.826  0.0069  0.4591 -0.5027
 3809TIP3    H132918   2.561   5.348   4.778 -1.5090  0.1900 -1.4052
 3809TIP3    H232919   2.497   5.483   4.758 -0.5929  0.8583  0.0729
 3810TIP3   OH232920   1.505   6.657   5.429 -0.8827  0.5825  0.3471
 3810TIP3    H132921   1.542   6.572   5.404  0.1881  1.3010 -0.6078
 3810TIP3    H232922   1.519   6.662   5.523  1.6696  0.9023 -0.0121
 3811TIP3   OH232923   4.181   6.032  15.275  0.2013  0.0808 -0.1416
 3811TIP3    H132924   4.122   5.975  15.226 -0.6063  0.3462  0.5034
 3811TIP3    H232925   4.162   6.120  15.243  1.8728 -0.0685 -1.5641
 3812TIP3   OH232926   6.450   4.603   5.780  0.1328 -0.7557  0.3184
 3812TIP3    H132927   6.363   4.631   5.810  0.4748  1.5327 -0.7371
 3812TIP3    H232928   6.508   4.676   5.802  1.3555 -1.2629 -1.1189
 3813TIP3   OH232929   3.437   6.342  12.226 -0.7428 -0.7702 -0.4573
 3813TIP3    H132930   3.417   6.249  12.211 -3.0475 -0.3815 -0.0968
 3813TIP3    H232931   3.364   6.373  12.280 -0.0978  1.2967 -0.7418
 3814TIP3   OH232932   6.157   1.423  14.044  0.3482 -0.3581 -0.5585
 3814TIP3    H132933   6.163   1.332  14.015  0.7930 -1.2546  2.2062
 3814TIP3    H232934   6.211   1.427  14.123 -3.1200  1.2436  1.8632
 3815TIP3   OH232935   1.357   0.991  16.408  0.1957 -0.0041 -0.1275
 3815TIP3    H132936   1.273   0.950  16.388 -1.6927  2.7554  1.8118
 3815TIP3    H232937   1.386   1.028  16.324 -0.7207 -0.5952 -0.7106
 3816TIP3   OH232938   5.522   5.309   0.657  0.5517 -0.1251 -0.7842
 3816TIP3    H132939   5.536   5.296   0.564  3.6757 -0.9254 -0.2718
 3816TIP3    H232940   5.434   5.346   0.664 -0.4463 -1.7623 -3.8732
 3817TIP3   OH232941   0.659   2.608   0.076  0.2810  0.1516 -0.0423
 3817TIP3    H132942   0.692   2.614   0.166  1.6674 -0.5707 -0.4819
 3817TIP3    H232943   0.709   2.673   0.028 -1.1427  1.2076 -0.1039
 3818TIP3   OH232944   2.478   4.049  12.890 -0.4989  0.8214  0.2664
 3818TIP3    H132945   2.474   3.957  12.914  0.4653  1.1184  1.6396
 3818TIP3    H232946   2.417   4.092  12.949 -2.1883  0.8763 -1.4630
 3819TIP3   OH232947   4.088   1.216   4.202 -0.2606  0.0509  0.3488
 3819TIP3    H132948   4.040   1.251   4.278  1.2412  0.6139  1.0674
 3819TIP3    H232949   4.179   1.213   4.231 -0.1203 -2.9760 -0.2769
 3820TIP3   OH232950   2.153   6.803  16.737  0.0267 -0.3382  0.1280
 3820TIP3    H132951   2.248   6.800  16.744 -0.0641  0.5470  1.9174
 3820TIP3    H232952   2.134   6.893  16.708 -0.2875 -0.4107  0.1060
 3821TIP3   OH232953   0.993   4.158  12.307 -0.1403  0.1725 -0.4892
 3821TIP3    H132954   1.088   4.155  12.301 -0.1341  0.5266 -0.5762
 3821TIP3    H232955   0.962   4.109  12.231 -0.0217 -0.7849  0.0697
 3822TIP3   OH232956   5.472   4.162   3.317 -0.1426  0.3884 -0.9237
 3822TIP3    H132957   5.425   4.081   3.298  0.8011 -0.6969  1.3197
 3822TIP3    H232958   5.408   4.231   3.297 -1.3441 -0.9253 -1.7177
 3823TIP3   OH232959   5.883   2.161   2.556 -0.2139 -0.4637 -0.0473
 3823TIP3    H132960   5.847   2.154   2.467  1.4873 -0.6942 -0.7368
 3823TIP3    H232961   5.958   2.102   2.556  0.0274 -0.1760  1.4460
 3824TIP3   OH232962   2.509   3.131   6.447 -0.3963  0.3470 -0.2927
 3824TIP3    H132963   2.519   3.069   6.375 -0.3713  1.3062 -1.1236
 3824TIP3    H232964   2.415   3.137   6.460 -0.3944  0.0425 -0.1227
 3825TIP3   OH232965   6.187   2.456   6.381  0.1574  0.0862 -0.5207
 3825TIP3    H132966   6.186   2.405   6.462  1.1150 -0.4664 -0.8437
 3825TIP3    H232967   6.168   2.545   6.409 -0.1788 -0.2104  0.2269
 3826TIP3   OH232968   0.749   1.662   5.322  0.3331 -0.5982 -0.4853
 3826TIP3    H132969   0.721   1.586   5.271 -0.4066  0.8720 -2.3465
 3826TIP3    H232970   0.804   1.712   5.262  1.9835 -0.3703  1.1771
 3827TIP3   OH232971   2.945   3.836   3.152  0.1768  0.2166  0.5485
 3827TIP3    H132972   2.926   3.815   3.243 -0.0312 -0.2506  0.3997
 3827TIP3    H232973   2.912   3.925   3.140  1.1398  0.6647  1.2071
 3828TIP3   OH232974   2.328   3.713   1.966 -0.5109 -0.0098 -0.7295
 3828TIP3    H132975   2.255   3.768   1.939 -0.1050  0.1007 -1.6217
 3828TIP3    H232976   2.348   3.741   2.056 -1.7767 -0.2744 -0.3570
 3829TIP3   OH232977   5.756   5.408  14.837  0.0720 -0.3164 -0.1181
 3829TIP3    H132978   5.719   5.493  14.814  1.2659  0.4798  0.8236
 3829TIP3    H232979   5.682   5.357  14.869 -0.5151  0.6227  0.0353
 3830TIP3   OH232980   3.834   3.264  10.789 -0.1467  0.4358 -0.1984
 3830TIP3    H132981   3.809   3.291  10.700 -0.8148 -0.5875 -0.3295
 3830TIP3    H232982   3.751   3.257  10.836 -0.1237 -2.7273 -0.5551
 3831TIP3   OH232983   1.961   6.782  13.462  0.3808  0.8986  0.1223
 3831TIP3    H132984   2.052   6.753  13.459  0.0009 -0.3691  0.7313
 3831TIP3    H232985   1.931   6.760  13.550 -1.0980 -0.5278 -0.6983
 3832TIP3   OH232986   3.880   6.467   4.599 -0.4094  0.3548 -0.0650
 3832TIP3    H132987   3.822   6.391   4.599  3.2347 -2.5460  0.8936
 3832TIP3    H232988   3.862   6.511   4.682 -2.0104  0.2015 -0.3015
 3833TIP3   OH232989   6.234   5.985   6.729  0.0055 -0.2190  0.3114
 3833TIP3    H132990   6.254   6.064   6.677  2.1562 -1.1183 -0.2937
 3833TIP3    H232991   6.148   5.958   6.699 -1.3567  2.6048  1.4234
 3834TIP3   OH232992   0.791   1.934   0.474  0.7773 -0.0675 -0.6581
 3834TIP3    H132993   0.807   2.006   0.413  0.9139  0.1871 -0.3222
 3834TIP3    H232994   0.871   1.880   0.469  1.3226  0.6491  0.2541
 3835TIP3   OH232995   4.155   3.332  11.772 -0.2495  0.4949 -0.4243
 3835TIP3    H132996   4.169   3.287  11.856 -1.9362 -0.1569 -0.4830
 3835TIP3    H232997   4.121   3.264  11.714 -0.2590  1.2372 -1.2926
 3836TIP3   OH232998   1.092   2.944  11.470  0.1906 -0.5025 -0.1471
 3836TIP3    H132999   1.110   2.850  11.469 -1.4966 -0.8570  1.9857
 3836TIP3    H233000   1.000   2.952  11.493  0.9521  1.7506  2.4560
 3837TIP3   OH233001   4.875   6.586  15.801 -0.3053 -0.0722  0.3579
 3837TIP3    H133002   4.810   6.625  15.859 -1.8320 -1.5757 -0.3091
 3837TIP3    H233003   4.839   6.500  15.779  1.5881 -0.6501 -0.5693
 3838TIP3   OH233004   3.219   0.205   4.969  0.4014  0.1116  0.8328
 3838TIP3    H133005   3.226   0.272   4.901  0.9983  0.0126  0.7879
 3838TIP3    H233006   3.240   0.251   5.050 -0.8081  0.3417  1.0180
 3839TIP3   OH233007   0.044   0.868   0.610  0.8700  0.0083  0.1438
 3839TIP3    H133008  -0.024   0.829   0.665  0.8666 -1.4493 -0.8389
 3839TIP3    H233009   0.001   0.882   0.525  0.1713  4.5139  1.1417
 3840TIP3   OH233010   4.370   5.531  16.686  0.2221 -0.1677  0.4950
 3840TIP3    H133011   4.360   5.460  16.624 -1.9179 -2.0254  2.8411
 3840TIP3    H233012   4.434   5.500  16.749 -0.6213 -0.0115  1.4569
 3841TIP3   OH233013   2.292   1.625  12.151 -0.8992  0.0867 -0.1328
 3841TIP3    H133014   2.268   1.683  12.222 -0.0694 -0.3601  0.5288
 3841TIP3    H233015   2.324   1.546  12.194  0.8196  0.2976 -0.9707
 3842TIP3   OH233016   5.271   6.104  15.319  0.6600 -0.1563  0.4196
 3842TIP3    H133017   5.336   6.144  15.376  1.0078  0.5126 -0.4366
 3842TIP3    H233018   5.318   6.087  15.237 -0.3439  0.7532 -0.3670
 3843TIP3   OH233019   3.646   4.716   3.975 -0.2003 -0.3619 -0.1910
 3843TIP3    H133020   3.735   4.703   3.941 -0.2946  0.7093 -0.8642
 3843TIP3    H233021   3.616   4.628   3.996 -0.1130 -1.0687 -2.8607
 3844TIP3   OH233022   4.279   0.503  13.654  0.0667 -0.8781  0.7364
 3844TIP3    H133023   4.294   0.474  13.564  3.3645  3.4880 -0.2672
 3844TIP3    H233024   4.361   0.482  13.699  0.1359  1.1047  1.5535
 3845TIP3   OH233025   4.125   3.512   0.709  0.2230  0.0166  0.0670
 3845TIP3    H133026   4.060   3.452   0.671 -0.5345  0.8199  0.0862
 3845TIP3    H233027   4.208   3.467   0.697 -0.1518 -0.3368 -1.3669
 3846TIP3   OH233028   3.374   1.641   0.119  0.0549  0.1123 -0.0768
 3846TIP3    H133029   3.334   1.583   0.183  2.3866 -2.3945 -0.7948
 3846TIP3    H233030   3.340   1.611   0.035  0.0398  0.8087 -0.3192
 3847TIP3   OH233031   1.020   5.643  13.040 -0.0600 -0.4546  0.2068
 3847TIP3    H133032   0.991   5.558  13.073 -1.2648  0.5067  1.7192
 3847TIP3    H233033   0.941   5.684  13.005  0.6161 -0.1728 -1.0184
 3848TIP3   OH233034   4.419   6.446  14.163  0.1525 -0.6077  0.1037
 3848TIP3    H133035   4.497   6.391  14.170  1.1548  0.9677  1.4453
 3848TIP3    H233036   4.349   6.392  14.200  0.8202 -1.5411  0.0449
 3849TIP3   OH233037   1.591   1.379  15.621 -0.0002 -0.2409 -0.3462
 3849TIP3    H133038   1.576   1.470  15.594 -0.0170  0.4862  1.9685
 3849TIP3    H233039   1.686   1.369  15.617  0.0526  0.0881  0.0289
 3850TIP3   OH233040   5.295   5.729   0.041 -0.0413  0.1951  0.4545
 3850TIP3    H133041   5.292   5.791  -0.031 -2.7282 -0.8124 -0.3318
 3850TIP3    H233042   5.211   5.684   0.039 -0.4630  0.5771  4.6214
 3851TIP3   OH233043   5.268   0.860  15.300 -0.2871 -0.1091 -0.0714
 3851TIP3    H133044   5.259   0.932  15.362 -0.2182 -0.4488  0.3326
 3851TIP3    H233045   5.294   0.785  15.353  0.6095 -0.1995 -0.6160
 3852TIP3   OH233046   0.259   0.350  11.978  0.0772  0.8405 -0.3587
 3852TIP3    H133047   0.249   0.442  12.002  0.3119  0.9659 -0.7446
 3852TIP3    H233048   0.284   0.351  11.886 -0.5932  0.3655 -0.5502
 3853TIP3   OH233049   1.460   3.199   6.179  0.4179  0.5084  0.2345
 3853TIP3    H133050   1.492   3.120   6.223  2.9213  0.3727 -1.7195
 3853TIP3    H233051   1.457   3.265   6.249 -0.4969 -0.9560  1.6182
 3854TIP3   OH233052   5.379   2.476  12.568 -0.6901  0.0752  0.0750
 3854TIP3    H133053   5.457   2.422  12.555 -0.7283 -0.1970  0.9476
 3854TIP3    H233054   5.411   2.553  12.616 -0.7603  0.4945 -0.5462
 3855TIP3   OH233055   3.910   5.210   6.063 -0.0816  0.0649  0.3152
 3855TIP3    H133056   3.974   5.236   5.997  0.0375  1.0207  0.8033
 3855TIP3    H233057   3.828   5.252   6.036 -0.1393  0.0868  0.5194
 3856TIP3   OH233058   2.453   0.561  15.073  0.0158 -0.3882  0.1304
 3856TIP3    H133059   2.455   0.656  15.062 -1.8925 -0.3929 -0.4557
 3856TIP3    H233060   2.495   0.527  14.995  0.2585 -0.0457  0.1085
 3857TIP3   OH233061   3.940   4.026   3.203 -0.3648  0.1075  0.2678
 3857TIP3    H133062   3.960   4.108   3.248 -0.9631  0.5761 -0.3020
 3857TIP3    H233063   3.942   3.959   3.271  1.4195  0.3991  0.5205
 3858TIP3   OH233064   2.439   4.859  16.295  0.0596  0.3132 -0.4993
 3858TIP3    H133065   2.475   4.855  16.206  0.8429 -0.7312 -0.1497
 3858TIP3    H233066   2.414   4.950  16.307 -0.8634  0.2805 -2.1019
 3859TIP3   OH233067   2.627   1.903  15.803  0.3011  0.2262  0.0278
 3859TIP3    H133068   2.696   1.896  15.869  0.7876 -0.6978 -0.5773
 3859TIP3    H233069   2.640   1.828  15.746 -0.4340  0.7393 -0.8289
 3860TIP3   OH233070   0.232   5.572  13.073 -0.1924 -0.3427  0.1975
 3860TIP3    H133071   0.178   5.545  13.146  0.0254  0.9165  0.8473
 3860TIP3    H233072   0.218   5.505  13.006  0.1214 -1.8754  1.6251
 3861TIP3   OH233073   6.175   2.914   4.495 -0.5946  0.5456  0.3417
 3861TIP3    H133074   6.181   2.942   4.586  0.4326 -1.8882  1.0599
 3861TIP3    H233075   6.108   2.845   4.496  0.1241 -0.1800 -0.5340
 3862TIP3   OH233076   0.157   4.262  13.394 -0.8631 -0.7719  0.2468
 3862TIP3    H133077   0.085   4.310  13.434 -1.8216 -0.7420 -1.4448
 3862TIP3    H233078   0.211   4.233  13.467 -2.1024 -0.0003  1.4810
 3863TIP3   OH233079   6.541   6.207   5.740 -0.0002  0.3171 -0.3336
 3863TIP3    H133080   6.599   6.134   5.764 -1.1797 -0.3967  0.3782
 3863TIP3    H233081   6.576   6.282   5.788 -0.6254 -0.4735  1.4050
 3864TIP3   OH233082   3.218   1.018   3.321 -0.4104  0.0709  0.3143
 3864TIP3    H133083   3.295   1.061   3.284 -0.8974  0.2872 -0.4801
 3864TIP3    H233084   3.154   1.089   3.331 -2.1156 -0.7938 -3.3834
 3865TIP3   OH233085   6.184   4.493   5.573  0.1919  0.2797 -0.5687
 3865TIP3    H133086   6.132   4.419   5.604 -1.1494  0.4624 -2.2624
 3865TIP3    H233087   6.274   4.472   5.598 -0.1552 -1.9744 -1.0960
 3866TIP3   OH233088   6.062   4.869  12.587 -0.5860  0.0918  0.2259
 3866TIP3    H133089   5.998   4.820  12.638 -0.3576  0.8852  1.2962
 3866TIP3    H233090   6.146   4.826  12.606 -0.7465 -0.7493 -0.9233
 3867TIP3   OH233091   3.567   1.867   3.554  0.1407  0.5686  0.1992
 3867TIP3    H133092   3.621   1.888   3.478 -0.8099  1.9004 -0.1356
 3867TIP3    H233093   3.625   1.876   3.629  0.4357  1.8519 -0.1639
 3868TIP3   OH233094   2.593   0.834  12.621  0.4742 -0.1499 -1.0440
 3868TIP3    H133095   2.502   0.862  12.615 -0.0245 -1.5569 -0.2210
 3868TIP3    H233096   2.599   0.788  12.705  2.0024  0.1484 -0.9757
 3869TIP3   OH233097   0.205   2.641  11.125 -0.1400 -0.3965  0.0240
 3869TIP3    H133098   0.188   2.735  11.134 -0.8918 -0.1888 -3.1188
 3869TIP3    H233099   0.285   2.636  11.073 -0.3900 -1.5123 -0.2643
 3870TIP3   OH233100   5.654   2.367  15.968  0.6548 -0.1387  0.3023
 3870TIP3    H133101   5.652   2.460  15.993 -0.5733 -0.2771  0.7227
 3870TIP3    H233102   5.719   2.328  16.026 -0.6572 -0.0412  1.8535
 3871TIP3   OH233103   6.418   0.266  13.010 -0.0568  0.2673  0.0178
 3871TIP3    H133104   6.415   0.329  13.082  0.1014  0.4323 -0.1176
 3871TIP3    H233105   6.444   0.184  13.050 -1.2035  0.0592  0.3538
 3872TIP3   OH233106   0.651   5.399  10.799 -0.4875 -0.1584 -0.0349
 3872TIP3    H133107   0.621   5.447  10.722 -3.7827 -1.2493  0.4621
 3872TIP3    H233108   0.594   5.430  10.870  2.2634  0.5930  1.9141
 3873TIP3   OH233109   4.753   6.720   1.306 -0.2202 -0.1791  0.8508
 3873TIP3    H133110   4.739   6.797   1.250 -0.3226 -0.8721 -0.0901
 3873TIP3    H233111   4.841   6.733   1.342  0.5331 -0.5236 -0.7883
 3874TIP3   OH233112   5.897   2.805  13.268 -0.2812  0.4382  0.2070
 3874TIP3    H133113   5.938   2.723  13.238 -3.6321 -0.3035 -2.6552
 3874TIP3    H233114   5.927   2.870  13.204 -1.9788  0.2656 -0.7976
 3875TIP3   OH233115   6.095   6.105  12.639  0.7125  0.2183 -0.4565
 3875TIP3    H133116   6.074   6.012  12.651  0.0187  0.3078 -0.9822
 3875TIP3    H233117   6.045   6.131  12.562  0.7023  1.1014 -0.1490
 3876TIP3   OH233118   2.247   6.805  12.398 -0.1423  0.5422  0.5372
 3876TIP3    H133119   2.212   6.889  12.426  0.8232  1.8670 -2.0565
 3876TIP3    H233120   2.197   6.783  12.319  1.7847  0.2723 -0.6426
 3877TIP3   OH233121   6.088   6.748   6.580 -0.4647 -0.4541  0.2415
 3877TIP3    H133122   6.037   6.777   6.505 -0.2847  0.1581  0.3550
 3877TIP3    H233123   6.030   6.688   6.627 -0.3966 -1.2458 -0.6590
 3878TIP3   OH233124   1.739   6.790  16.052 -0.2469  0.2205 -0.0356
 3878TIP3    H133125   1.723   6.829  15.967 -0.5690  1.5555  0.6236
 3878TIP3    H233126   1.794   6.713  16.034 -1.1583 -0.0925 -1.5296
 3879TIP3   OH233127   1.251   6.658   0.679  0.4489  0.0906 -0.0331
 3879TIP3    H133128   1.342   6.656   0.710  0.6916  1.7935 -0.5656
 3879TIP3    H233129   1.255   6.710   0.598 -0.8730 -0.5190 -0.5035
 3880TIP3   OH233130   0.528   2.747   3.739  0.1119  0.7936 -0.5545
 3880TIP3    H133131   0.576   2.745   3.656  0.1318 -0.9498 -0.5043
 3880TIP3    H233132   0.594   2.771   3.804  0.9383 -1.5010 -0.4987
 3881TIP3   OH233133   5.946   5.691   4.811  0.2729  1.0009  0.1538
 3881TIP3    H133134   5.958   5.759   4.877 -0.1927  0.4402  0.8297
 3881TIP3    H233135   5.879   5.633   4.848 -0.6947  1.2049 -1.2364
 3882TIP3   OH233136   2.781   1.947  12.014  0.0555 -0.2095  0.2404
 3882TIP3    H133137   2.791   1.941  12.109 -0.0599  1.6318  0.3845
 3882TIP3    H233138   2.756   1.859  11.987  0.6773 -0.8926  1.8449
 3883TIP3   OH233139   0.965   2.662  16.539  0.0035  0.1455  0.1920
 3883TIP3    H133140   0.932   2.687  16.453  3.2831 -2.5298 -2.0022
 3883TIP3    H233141   1.039   2.721  16.554 -0.1104  0.1243  0.8551
 3884TIP3   OH233142   5.462   2.204   5.013 -0.7765 -0.3345  0.1265
 3884TIP3    H133143   5.484   2.186   5.105 -1.7887 -2.2297  0.0202
 3884TIP3    H233144   5.387   2.148   4.995  0.1565 -0.8858 -2.2247
 3885TIP3   OH233145   3.193   1.180  13.093  0.1276  0.5698  0.0239
 3885TIP3    H133146   3.240   1.212  13.171  0.6001  1.2796 -0.5418
 3885TIP3    H233147   3.113   1.232  13.090 -0.6822 -0.5977  0.9525
 3886TIP3   OH233148   4.890   5.417  15.213 -0.0612 -0.1717  0.3233
 3886TIP3    H133149   4.903   5.502  15.172  0.4480 -0.0171  0.8035
 3886TIP3    H233150   4.831   5.434  15.286 -0.2133 -0.2834  0.2260
 3887TIP3   OH233151   1.109   4.625  11.772  0.5567  0.9054 -0.4386
 3887TIP3    H133152   1.106   4.616  11.867  1.1597 -1.4135 -0.6134
 3887TIP3    H233153   1.166   4.701  11.757 -0.6961  2.1691  1.0662
 3888TIP3   OH233154   1.615   2.800  13.382  0.0329 -0.5829 -0.2559
 3888TIP3    H133155   1.535   2.781  13.333 -0.8595 -2.0728  1.7038
 3888TIP3    H233156   1.676   2.730  13.357  0.7338  0.5228 -1.7096
 3889TIP3   OH233157   1.556   2.750  11.911  0.5283 -0.6567  0.2694
 3889TIP3    H133158   1.532   2.823  11.967 -0.2006 -0.2636 -0.5512
 3889TIP3    H233159   1.641   2.775  11.873 -0.4553  0.4854 -1.2408
 3890TIP3   OH233160   0.926   0.441   4.108  0.0115  0.4783  0.6940
 3890TIP3    H133161   0.903   0.512   4.168 -2.6900 -1.3434  1.9234
 3890TIP3    H233162   1.007   0.405   4.144  0.3304  1.6883  1.1955
 3891TIP3   OH233163   4.461   1.792   2.340 -0.0942 -0.2342 -0.3558
 3891TIP3    H133164   4.475   1.849   2.416  2.3978  0.6781 -1.4110
 3891TIP3    H233165   4.524   1.721   2.352 -1.0225 -1.0952 -0.6050
 3892TIP3   OH233166   0.045   2.383  14.994 -0.0944  0.8971 -0.3641
 3892TIP3    H133167   0.082   2.383  14.905  1.8251  1.5721  0.4290
 3892TIP3    H233168  -0.028   2.321  14.988  1.0283 -0.3421 -2.0127
 3893TIP3   OH233169   2.539   4.930  14.929 -0.2521  0.0406  0.7340
 3893TIP3    H133170   2.585   4.863  14.878 -1.0437  1.4221 -1.8476
 3893TIP3    H233171   2.459   4.887  14.958 -0.3874 -0.3903 -0.2580
 3894TIP3   OH233172   4.024   3.416   2.042 -0.2208  0.7390 -0.5193
 3894TIP3    H133173   4.078   3.338   2.043 -1.3689 -0.0677 -0.6101
 3894TIP3    H233174   3.962   3.403   2.114 -1.1682  1.0269 -1.2749
 3895TIP3   OH233175   1.511   1.540  10.980  0.4540  0.1443  0.0319
 3895TIP3    H133176   1.599   1.508  10.959 -0.1204 -0.5440 -1.3825
 3895TIP3    H233177   1.510   1.629  10.945  0.5857  0.1508  0.0427
 3896TIP3   OH233178   5.360   6.756   1.260  0.1600  0.0289  0.1272
 3896TIP3    H133179   5.297   6.807   1.312 -1.3934 -2.4850  0.8286
 3896TIP3    H233180   5.384   6.814   1.187 -1.6324  1.6837  0.8007
 3897TIP3   OH233181   0.825   3.197  13.273 -1.0949 -0.5314  0.4743
 3897TIP3    H133182   0.844   3.134  13.204 -3.0471 -1.1444  0.4574
 3897TIP3    H233183   0.734   3.179  13.297 -1.6638  2.2106  0.5352
 3898TIP3   OH233184   2.268   3.534   2.357  0.2353 -0.0505  0.3988
 3898TIP3    H133185   2.327   3.575   2.295  1.0200  0.4756  1.4780
 3898TIP3    H233186   2.300   3.561   2.443  2.6924 -5.3278  1.3749
 3899TIP3   OH233187   0.492   4.441   3.536 -0.1345 -0.1821  0.3521
 3899TIP3    H133188   0.552   4.379   3.578 -0.6578 -0.1044  1.2321
 3899TIP3    H233189   0.430   4.465   3.605 -1.0751 -0.1249 -0.4921
 3900TIP3   OH233190   1.907   4.827  15.414 -0.2598  0.4305 -0.5430
 3900TIP3    H133191   1.899   4.907  15.465  0.3031  0.6019 -0.7270
 3900TIP3    H233192   1.879   4.758  15.474  0.3971  0.6309 -0.0058
 3901TIP3   OH233193   2.770   3.041  11.797 -0.1801  0.2380  0.1030
 3901TIP3    H133194   2.731   3.009  11.716  1.1046 -0.0412 -0.4208
 3901TIP3    H233195   2.784   2.962  11.850 -0.0358  0.2965  0.1532
 3902TIP3   OH233196   3.679   2.759   0.802 -0.0301  0.6679  0.2042
 3902TIP3    H133197   3.737   2.698   0.756  1.7151 -0.3306  3.5053
 3902TIP3    H233198   3.597   2.711   0.812  1.0073 -0.8551  1.8774
 3903TIP3   OH233199   2.133   0.537  11.471 -0.2065 -0.3566 -0.1709
 3903TIP3    H133200   2.221   0.538  11.511 -0.3992  0.0138  0.2528
 3903TIP3    H233201   2.149   0.512  11.380  0.4671  0.8040 -0.3877
 3904TIP3   OH233202   5.425   3.969  14.972 -0.0088  0.4447  1.1912
 3904TIP3    H133203   5.520   3.976  14.961 -0.0844 -0.4123 -0.0493
 3904TIP3    H233204   5.400   4.052  15.013  1.4093  0.2348  2.5510
 3905TIP3   OH233205   5.846   6.358  13.045 -0.5187  0.0033 -0.2563
 3905TIP3    H133206   5.785   6.317  13.107  0.3330 -0.1585  0.4891
 3905TIP3    H233207   5.839   6.306  12.966 -3.5669  1.7596 -1.2308
 3906TIP3   OH233208   1.035   3.710  11.979 -0.0028 -0.4395  0.4338
 3906TIP3    H133209   1.008   3.643  11.916  1.1814 -0.2127 -0.3287
 3906TIP3    H233210   1.119   3.679  12.012  0.5296  0.6378  0.1128
 3907TIP3   OH233211   2.411   1.154  16.359  0.4843 -0.0512  0.2074
 3907TIP3    H133212   2.358   1.076  16.379  0.2509 -0.1193 -0.6671
 3907TIP3    H233213   2.488   1.145  16.414  0.3736 -0.8209  0.2421
 3908TIP3   OH233214   2.230   2.831  11.327  0.4510 -0.5450 -0.1924
 3908TIP3    H133215   2.137   2.810  11.340  0.8259 -1.9066  0.3639
 3908TIP3    H233216   2.262   2.760  11.270  1.4768 -0.8743  0.7901
 3909TIP3   OH233217   5.665   2.288   5.885 -0.0862  0.6327 -0.1150
 3909TIP3    H133218   5.755   2.300   5.914  0.1129 -0.5892 -0.2007
 3909TIP3    H233219   5.619   2.366   5.916  1.2874  1.9247 -1.2781
 3910TIP3   OH233220   0.386   6.807   0.046 -0.2986 -0.1259 -0.2444
 3910TIP3    H133221   0.439   6.868  -0.005  1.2481 -1.7293 -0.6075
 3910TIP3    H233222   0.437   6.791   0.126 -0.9214 -0.5433  0.0726
 3911TIP3   OH233223   6.758   0.519   0.589 -0.2997 -0.1554  0.1618
 3911TIP3    H133224   6.670   0.491   0.612 -0.7013  0.7479 -0.2271
 3911TIP3    H233225   6.772   0.598   0.641 -0.3690  0.6409 -1.0074
 3912TIP3   OH233226   0.979   1.800   5.485 -0.1363  0.1071  0.9270
 3912TIP3    H133227   0.895   1.846   5.483 -1.3189 -1.9945  1.2424
 3912TIP3    H233228   0.967   1.731   5.550  1.8902 -0.1444  1.0686
 3913TIP3   OH233229   4.324   0.180  13.673  0.3034 -0.1331  0.8115
 3913TIP3    H133230   4.376   0.229  13.610 -0.8880 -1.7826 -1.5613
 3913TIP3    H233231   4.369   0.096  13.681 -0.4897 -0.5621  0.8289
 3914TIP3   OH233232   4.188   1.900  12.563 -0.2062 -0.4525 -0.0689
 3914TIP3    H133233   4.125   1.936  12.625 -0.3852 -0.1903 -0.4028
 3914TIP3    H233234   4.200   1.809  12.591 -0.5275 -0.4270  0.1564
 3915TIP3   OH233235   0.278   4.918   2.644 -0.2893 -0.6095  0.7303
 3915TIP3    H133236   0.231   4.863   2.706 -1.7226  0.6961  0.8176
 3915TIP3    H233237   0.264   4.875   2.559 -1.2748 -0.4803  0.8201
 3916TIP3   OH233238   1.459   0.990   4.423 -0.5767  0.3518 -0.3700
 3916TIP3    H133239   1.503   0.911   4.392 -1.7331 -0.7468  0.7470
 3916TIP3    H233240   1.460   1.049   4.347  2.3577  0.1935 -0.5292
 3917TIP3   OH233241   5.239   1.306  13.343 -0.1937 -0.7838  0.2436
 3917TIP3    H133242   5.182   1.233  13.367  1.6789 -1.7097  2.0172
 3917TIP3    H233243   5.261   1.348  13.427  0.6580  0.3793 -0.5465
 3918TIP3   OH233244   5.069   5.044  15.519 -0.7991 -0.4485  0.7551
 3918TIP3    H133245   5.022   5.003  15.591 -1.1440 -1.0540  0.1788
 3918TIP3    H233246   5.001   5.087  15.467 -0.3831  1.5136  1.7610
 3919TIP3   OH233247   1.549   5.746  12.393  0.1061 -0.2954  0.1927
 3919TIP3    H133248   1.606   5.759  12.468  0.5210  2.2940 -0.5201
 3919TIP3    H233249   1.461   5.740  12.430  0.5423 -1.5451  1.0623
 3920TIP3   OH233250   3.639   1.418   2.265  0.1542  0.7078  0.3631
 3920TIP3    H133251   3.706   1.409   2.333  1.6816  2.1901 -0.8830
 3920TIP3    H233252   3.689   1.433   2.185 -1.6703  1.0788 -0.7322
 3921TIP3   OH233253   4.334   4.847  13.662 -0.1033  0.0500  0.3141
 3921TIP3    H133254   4.292   4.769  13.626  1.0072 -0.3060 -0.2463
 3921TIP3    H233255   4.347   4.905  13.586  1.0041 -0.1242  0.3697
 3922TIP3   OH233256   6.231   2.645   2.105  0.4799  0.2252 -0.4646
 3922TIP3    H133257   6.306   2.589   2.086  0.1195  0.3004 -2.1364
 3922TIP3    H233258   6.270   2.726   2.140  1.1212 -0.0520 -0.5374
 3923TIP3   OH233259   6.262   2.834   0.952  0.3987  0.5075  0.0113
 3923TIP3    H133260   6.171   2.838   0.923  0.5423  0.6452 -0.4214
 3923TIP3    H233261   6.262   2.877   1.037  0.2129  1.2760 -0.3686
 3924TIP3   OH233262   4.236   4.652  13.856 -0.0191 -0.5044 -0.2148
 3924TIP3    H133263   4.142   4.654  13.835 -0.1778  0.4519  0.5781
 3924TIP3    H233264   4.267   4.739  13.834  0.7329 -0.8818 -0.6587
 3925TIP3   OH233265   3.198   2.992  14.718  0.0801 -0.5053  0.7939
 3925TIP3    H133266   3.206   3.036  14.803  1.1590 -0.4537  0.6701
 3925TIP3    H233267   3.194   2.899  14.740 -0.1711 -0.4652  0.9273
 3926TIP3   OH233268   5.940   5.549  16.568 -0.3821 -0.2362  0.0039
 3926TIP3    H133269   5.932   5.611  16.640 -0.8869 -0.7951  0.4341
 3926TIP3    H233270   5.899   5.593  16.493 -0.5576  0.0318  0.2579
 3927TIP3   OH233271   6.378   2.174  16.368  0.0272 -0.1964  0.2437
 3927TIP3    H133272   6.430   2.121  16.428  1.4487 -1.7364 -2.2757
 3927TIP3    H233273   6.440   2.237  16.332 -0.4380 -0.3604 -0.8425
 3928TIP3   OH233274   6.501   4.555  11.916 -0.5726  0.3592  0.1222
 3928TIP3    H133275   6.470   4.626  11.973 -0.1017  0.8552 -0.2392
 3928TIP3    H233276   6.595   4.568  11.911 -0.3964 -0.7195  0.6232
 3929TIP3   OH233277   4.028   3.086  16.664 -0.1052  0.1164 -0.3152
 3929TIP3    H133278   4.031   3.134  16.747  2.2307  1.1579 -0.9561
 3929TIP3    H233279   4.054   2.997  16.687 -0.8130  0.0579  0.2833
 3930TIP3   OH233280   0.700   1.933   2.333 -0.0491 -0.1572 -0.3896
 3930TIP3    H133281   0.707   1.995   2.260 -0.2657  1.7249  1.1320
 3930TIP3    H233282   0.786   1.891   2.337 -0.4166 -1.1648 -2.4567
 3931TIP3   OH233283   5.892   6.239   5.196 -0.4822 -0.4516  0.3327
 3931TIP3    H133284   5.947   6.298   5.145 -0.0465 -1.6002 -0.5695
 3931TIP3    H233285   5.825   6.208   5.135 -0.2914 -1.4033  0.5879
 3932TIP3   OH233286   0.202   4.835  11.271 -0.3064  0.9499  0.0833
 3932TIP3    H133287   0.289   4.857  11.238 -1.0652  0.4200 -2.3559
 3932TIP3    H233288   0.171   4.915  11.313  1.4262  1.0719  1.1794
 3933TIP3   OH233289   2.450   1.315   6.066  0.6267  0.4524  0.4831
 3933TIP3    H133290   2.502   1.256   6.012 -0.8875  0.3194 -0.8839
 3933TIP3    H233291   2.461   1.401   6.027 -0.2020  0.4168  0.1566
 3934TIP3   OH233292   6.537   0.726   2.087 -0.3059 -0.0194  0.6896
 3934TIP3    H133293   6.546   0.773   2.004  0.0577  1.3463  1.4897
 3934TIP3    H233294   6.622   0.683   2.099 -0.2967 -0.0703  0.4450
 3935TIP3   OH233295   0.952   0.399  14.760  0.0297  0.0110  0.2890
 3935TIP3    H133296   0.935   0.315  14.717  0.5529  0.3746 -0.6238
 3935TIP3    H233297   1.028   0.382  14.815  0.4645  0.0352 -0.3087
 3936TIP3   OH233298   3.290   0.520  13.865  0.1205 -0.7486 -0.1925
 3936TIP3    H133299   3.259   0.465  13.792 -0.1397  0.7021 -1.1971
 3936TIP3    H233300   3.225   0.590  13.871  0.7795 -0.2080  0.6701
 3937TIP3   OH233301   4.983   5.213  15.040  0.1863 -0.0992  0.0885
 3937TIP3    H133302   4.933   5.259  14.973  0.2799  0.7115  0.5709
 3937TIP3    H233303   4.963   5.260  15.121 -0.0576 -1.1720  0.6555
 3938TIP3   OH233304   3.370   1.930   6.560  0.2337  0.2547 -0.1968
 3938TIP3    H133305   3.291   1.899   6.516 -0.0634  1.1106 -0.2853
 3938TIP3    H233306   3.424   1.967   6.490  0.9868 -0.8742 -0.2222
 3939TIP3   OH233307   2.350   5.541   2.924 -0.3755  0.1076 -0.4067
 3939TIP3    H133308   2.438   5.518   2.894 -0.2150  0.1045  0.0563
 3939TIP3    H233309   2.334   5.628   2.888  0.0586  0.3615  0.0051
 3940TIP3   OH233310   2.193   0.591  16.699 -0.1393  0.2415  0.1379
 3940TIP3    H133311   2.154   0.529  16.760  1.2327  0.0739  0.8889
 3940TIP3    H233312   2.287   0.584  16.717  0.2262  0.5829 -1.6453
 3941TIP3   OH233313   6.087   3.751   5.578  0.0298  0.0227 -1.0085
 3941TIP3    H133314   6.045   3.837   5.569 -0.8051  0.1343  3.0723
 3941TIP3    H233315   6.172   3.770   5.617  1.2254 -0.7757 -3.1733
 3942TIP3   OH233316   2.046   0.764  10.836  0.2754  0.0847  0.1157
 3942TIP3    H133317   1.995   0.691  10.870  0.2927 -0.3387 -0.7805
 3942TIP3    H233318   2.016   0.840  10.887 -1.3739 -0.1267 -0.5170
 3943TIP3   OH233319   3.818   4.644   0.938  0.0294 -0.1495 -0.2764
 3943TIP3    H133320   3.806   4.687   1.022  0.3878 -1.8923  0.7083
 3943TIP3    H233321   3.872   4.704   0.887  1.0932  0.2657  1.2975
 3944TIP3   OH233322   3.738   3.033   5.797  0.1800 -0.1360  0.8049
 3944TIP3    H133323   3.728   3.049   5.891  2.1761  1.9844  0.7011
 3944TIP3    H233324   3.742   3.120   5.758 -1.2347 -0.9930 -1.3505
 3945TIP3   OH233325   6.750   2.561  15.790 -0.4753  0.2927  0.0703
 3945TIP3    H133326   6.774   2.561  15.883  2.5181 -5.0411 -0.5365
 3945TIP3    H233327   6.677   2.499  15.784  2.6963 -3.4884 -1.6973
 3946TIP3   OH233328   3.218   5.367  17.058  0.0317 -0.5487 -0.2690
 3946TIP3    H133329   3.220   5.407  16.971  1.3822  0.6829  0.3162
 3946TIP3    H233330   3.183   5.279  17.043 -1.9955  0.4592 -1.7266
 3947TIP3   OH233331   1.974   3.823  17.141 -0.2126  0.3249  0.5363
 3947TIP3    H133332   1.940   3.910  17.158 -0.1151  0.0949  2.0041
 3947TIP3    H233333   2.044   3.811  17.205  0.1836 -0.5961 -0.0438
 3948TIP3   OH233334   5.046   0.806   1.136  0.4524  0.4778  0.7270
 3948TIP3    H133335   5.092   0.881   1.174  0.1898  0.2622  1.4903
 3948TIP3    H233336   5.082   0.730   1.183 -1.1608  0.3657  1.8326
 3949TIP3   OH233337   0.053   3.844   5.383 -0.3514 -0.4288  0.2500
 3949TIP3    H133338  -0.014   3.872   5.445 -0.4722  0.9523 -0.4922
 3949TIP3    H233339   0.122   3.909   5.391  0.7553 -1.6392  0.7425
 3950TIP3   OH233340   5.252   2.249   3.801  0.4760 -0.0270 -0.0546
 3950TIP3    H133341   5.320   2.193   3.763  1.1414  0.8437 -0.1783
 3950TIP3    H233342   5.208   2.193   3.865  0.8362 -0.8222 -0.4918
 3951TIP3   OH233343   5.293   0.422   5.073 -0.4722  0.5959 -0.3785
 3951TIP3    H133344   5.309   0.434   5.167  2.5501 -0.5576 -0.6736
 3951TIP3    H233345   5.329   0.501   5.033  2.0765 -0.6967 -0.8150
 3952TIP3   OH233346   4.659   0.208  13.088  0.1863 -0.1675 -0.4803
 3952TIP3    H133347   4.694   0.287  13.130 -0.9995  0.4644 -0.6560
 3952TIP3    H233348   4.660   0.142  13.157 -1.9026  0.9080  0.6448
 3953TIP3   OH233349   2.005   6.508  15.079  0.6920  0.0129  0.4959
 3953TIP3    H133350   1.963   6.446  15.138  1.0878 -0.5790  0.1616
 3953TIP3    H233351   1.973   6.484  14.992  1.2073 -0.0176  0.3139
 3954TIP3   OH233352   0.772   1.602   4.811  0.2430  0.3788 -0.5824
 3954TIP3    H133353   0.860   1.601   4.850 -0.8678 -2.1903  2.0059
 3954TIP3    H233354   0.715   1.637   4.879 -1.2162 -0.8979 -1.1147
 3955TIP3   OH233355   2.148   2.398   1.853 -0.2011  0.6701 -0.4915
 3955TIP3    H133356   2.198   2.480   1.861 -0.4159  0.6634  0.9311
 3955TIP3    H233357   2.085   2.401   1.925  0.1857 -1.0356 -0.0686
 3956TIP3   OH233358   2.892   4.594   0.978 -0.2454  0.4014  0.1353
 3956TIP3    H133359   2.803   4.624   0.961 -1.0177 -1.0966  1.4691
 3956TIP3    H233360   2.889   4.556   1.065  2.0404  1.6404  0.8144
 3957TIP3   OH233361   2.035   0.652   2.076 -0.1420 -0.0834  0.0514
 3957TIP3    H133362   1.960   0.709   2.058 -0.8655 -1.2029 -0.5768
 3957TIP3    H233363   2.104   0.686   2.019 -0.5341  0.2383 -0.2414
 3958TIP3   OH233364   2.023   3.258   0.453 -0.2741  0.7551 -0.1069
 3958TIP3    H133365   2.033   3.163   0.446  1.1813  0.8421  0.7644
 3958TIP3    H233366   1.930   3.270   0.475 -0.0450 -0.5628  1.7162
 3959TIP3   OH233367   6.354   0.362  16.426 -0.7272 -0.3315 -0.3988
 3959TIP3    H133368   6.349   0.320  16.511  1.1712 -0.6553 -0.4173
 3959TIP3    H233369   6.291   0.434  16.431  0.2306  0.4073  1.7255
 3960TIP3   OH233370   2.754   1.146  16.119 -0.0115 -0.5084 -0.1847
 3960TIP3    H133371   2.704   1.086  16.063 -0.7103  0.0598 -0.1805
 3960TIP3    H233372   2.767   1.097  16.201  1.8597 -1.7136 -1.1608
 3961TIP3   OH233373   2.189   4.068  12.260 -0.1226 -0.1180  0.3637
 3961TIP3    H133374   2.282   4.088  12.246 -0.1515 -0.8453 -0.9472
 3961TIP3    H233375   2.188   4.000  12.327  0.5407 -2.9264 -2.3535
 3962TIP3   OH233376   3.552   0.550   5.603  0.1837 -0.4189 -0.2552
 3962TIP3    H133377   3.630   0.552   5.548  0.4713 -2.3623  0.0218
 3962TIP3    H233378   3.585   0.528   5.690 -0.3276  2.0607  0.5892
 3963TIP3   OH233379   6.543   2.606   4.458  0.1238 -0.9728 -0.1313
 3963TIP3    H133380   6.511   2.636   4.543  0.8812 -1.7843  0.4555
 3963TIP3    H233381   6.470   2.558   4.420 -0.4617  0.0213 -0.2543
 3964TIP3   OH233382   5.697   4.443   3.995  0.3200  0.7886  0.4228
 3964TIP3    H133383   5.746   4.524   3.979  0.0145  0.8467 -0.2498
 3964TIP3    H233384   5.642   4.434   3.918 -0.0220  0.2090  0.7392
 3965TIP3   OH233385   2.660   1.113  14.068  0.1016  0.1634 -0.0679
 3965TIP3    H133386   2.720   1.162  14.125 -0.5106 -0.6520  1.2980
 3965TIP3    H233387   2.683   1.021  14.082  0.4562 -0.0081 -1.7329
 3966TIP3   OH233388   1.767   0.504  14.958  0.0358  0.0108 -0.2897
 3966TIP3    H133389   1.694   0.443  14.963  0.4502 -0.4559  0.1470
 3966TIP3    H233390   1.795   0.517  15.048  0.6228  0.0211 -0.4683
 3967TIP3   OH233391   3.829   1.572   1.575  0.2432  0.3564 -0.6439
 3967TIP3    H133392   3.800   1.663   1.578  2.9419  1.2418  0.2784
 3967TIP3    H233393   3.924   1.578   1.567  0.3320 -2.3975 -2.2524
 3968TIP3   OH233394   5.256   4.286   1.768  0.1143 -0.6363 -0.1113
 3968TIP3    H133395   5.290   4.262   1.682  0.6776  0.2722 -0.1545
 3968TIP3    H233396   5.331   4.274   1.827 -0.1583 -0.8766  0.1920
 3969TIP3   OH233397   0.446   6.721  15.786 -0.1749  0.4355  0.0352
 3969TIP3    H133398   0.374   6.704  15.847  0.4010 -0.2954  0.5161
 3969TIP3    H233399   0.506   6.778  15.834  0.4370 -0.4023  0.2688
 3970TIP3   OH233400   0.716   1.349  12.450 -0.2366  0.2397  0.7297
 3970TIP3    H133401   0.673   1.357  12.365  0.8640  1.5210  0.2718
 3970TIP3    H233402   0.786   1.285  12.435  0.5117  1.1118  0.4198
 3971TIP3   OH233403   6.608   5.201  16.032 -0.6765  0.0134  0.1680
 3971TIP3    H133404   6.577   5.288  16.008 -0.4082  0.4464  1.3434
 3971TIP3    H233405   6.671   5.178  15.964 -1.1596  0.4935 -0.4510
 3972TIP3   OH233406   3.170   1.051  11.746 -0.2504 -0.5601  0.3535
 3972TIP3    H133407   3.098   1.043  11.683  0.5703 -0.0986 -0.6622
 3972TIP3    H233408   3.153   0.984  11.811 -0.6859 -1.5805 -0.8023
 3973TIP3   OH233409   1.928   3.411  13.680 -0.7090  0.0661 -0.2403
 3973TIP3    H133410   1.971   3.330  13.706 -1.4200 -0.7981 -1.7065
 3973TIP3    H233411   1.898   3.450  13.762 -1.2439 -1.6690  0.4109
 3974TIP3   OH233412   1.932   0.740  15.691  0.2435 -0.0577 -0.2826
 3974TIP3    H133413   1.859   0.749  15.629  1.5540 -0.2186 -1.9058
 3974TIP3    H233414   1.918   0.810  15.755 -0.1592  1.3141 -1.8227
 3975TIP3   OH233415   6.324   6.547   1.756  0.3649  0.4935  0.0554
 3975TIP3    H133416   6.352   6.637   1.776  1.7762 -0.1507  1.0449
 3975TIP3    H233417   6.393   6.511   1.701  1.0471 -0.7665  1.6671
 3976TIP3   OH233418   0.355   1.234   3.764  0.2635 -0.5228 -0.1670
 3976TIP3    H133419   0.298   1.289   3.710  0.8306  1.4664  1.1995
 3976TIP3    H233420   0.296   1.175   3.810 -0.5837  0.6343  0.2469
 3977TIP3   OH233421   0.900   0.322   2.632  0.3802  0.1783  0.0127
 3977TIP3    H133422   0.930   0.393   2.576  0.8659 -1.4045 -1.7586
 3977TIP3    H233423   0.952   0.330   2.712  2.5715 -0.0141 -1.3713
 3978TIP3   OH233424   6.757   0.141  16.556  0.4137 -0.0165 -0.5444
 3978TIP3    H133425   6.850   0.136  16.536  0.2503 -1.2939 -1.0415
 3978TIP3    H233426   6.733   0.232  16.539  1.5122  0.2547 -0.6517
 3979TIP3   OH233427   4.472   3.570  13.290  0.2684  0.1069  0.3367
 3979TIP3    H133428   4.525   3.500  13.329  1.0596  0.5860  0.1087
 3979TIP3    H233429   4.438   3.619  13.366 -0.5738 -0.7237  0.5120
 3980TIP3   OH233430   0.371   5.502  11.792  0.6267 -0.2044  0.5778
 3980TIP3    H133431   0.361   5.500  11.887  0.3718 -1.1931  0.5315
 3980TIP3    H233432   0.284   5.522  11.758  0.7260  0.1884  0.5554
 3981TIP3   OH233433   6.693   3.641   6.036  0.4701  0.2968 -0.0126
 3981TIP3    H133434   6.607   3.605   6.013  1.7846 -1.3726 -2.6730
 3981TIP3    H233435   6.692   3.647   6.132 -0.8277 -4.5260  0.4264
 3982TIP3   OH233436   1.962   3.146  14.078 -0.4889  0.4542  0.5662
 3982TIP3    H133437   2.026   3.217  14.083  2.6639 -2.2480  0.5746
 3982TIP3    H233438   1.973   3.098  14.160 -2.4051 -0.2010  0.4656
 3983TIP3   OH233439   2.267   6.078   0.425 -0.3737  0.2857  0.3562
 3983TIP3    H133440   2.225   6.045   0.504  0.8728 -0.8230  0.5841
 3983TIP3    H233441   2.247   6.013   0.358 -0.3202  0.5416  0.0891
 3984TIP3   OH233442   2.517   4.913  17.078  0.0348 -0.7634  0.1399
 3984TIP3    H133443   2.507   4.880  17.167 -1.0194 -1.1123 -0.0941
 3984TIP3    H233444   2.438   4.966  17.064  0.5205 -0.1573 -0.3519
 3985TIP3   OH233445   4.186   5.391   4.546  0.1299  0.2290 -0.2699
 3985TIP3    H133446   4.220   5.408   4.458  1.0398  0.3938  0.1091
 3985TIP3    H233447   4.100   5.351   4.531  0.6428 -0.5342 -1.2493
 3986TIP3   OH233448   6.747   1.374   0.598  0.0351 -0.2386  0.0591
 3986TIP3    H133449   6.768   1.402   0.687  0.4958 -0.0919 -0.0957
 3986TIP3    H233450   6.688   1.442   0.565 -1.2822 -1.0108  0.7398
 3987TIP3   OH233451   2.127   3.368  12.401  0.0965  0.2142  0.3067
 3987TIP3    H133452   2.178   3.449  12.400 -0.7160  0.7161 -0.5394
 3987TIP3    H233453   2.039   3.394  12.375 -0.0129 -1.0373 -0.6507
 3988TIP3   OH233454   0.540   3.380   2.691 -0.2101  0.2912  0.3595
 3988TIP3    H133455   0.447   3.397   2.708 -0.6534 -1.1418 -0.5359
 3988TIP3    H233456   0.586   3.421   2.764 -1.4766  1.9159  0.2671
 3989TIP3   OH233457   0.752   1.276   4.999 -0.2536 -0.5388  0.4276
 3989TIP3    H133458   0.737   1.181   4.999  0.7668 -0.7104  0.9386
 3989TIP3    H233459   0.681   1.312   4.946 -0.9024 -1.5519  0.6025
 3990TIP3   OH233460   2.957   4.781  15.433  0.3524  0.2825 -0.0301
 3990TIP3    H133461   2.874   4.823  15.409  0.0661 -0.4060 -0.2293
 3990TIP3    H233462   2.936   4.726  15.508  0.6037  0.0001 -0.1653
 3991TIP3   OH233463   6.588   5.929  16.967  0.2811 -0.2673 -0.5693
 3991TIP3    H133464   6.545   5.852  17.003 -0.6507  0.5246  0.0619
 3991TIP3    H233465   6.590   5.914  16.872 -0.7973 -0.6143 -0.5436
 3992TIP3   OH233466   2.069   0.053   3.031 -0.1141  0.0501 -0.0033
 3992TIP3    H133467   2.109   0.014   2.954 -0.3966  0.0883 -0.1686
 3992TIP3    H233468   2.107   0.141   3.036 -1.1484  0.5499 -0.8987
 3993TIP3   OH233469   2.204   6.544   2.613  0.5514 -0.3703  0.8908
 3993TIP3    H133470   2.213   6.525   2.520 -1.1857 -1.5620  0.9263
 3993TIP3    H233471   2.238   6.632   2.623  1.3592 -0.4773 -0.7641
 3994TIP3   OH233472   4.814   1.438   0.107 -0.0602 -0.4052  0.1006
 3994TIP3    H133473   4.815   1.343   0.096 -2.4281 -0.3240 -1.0826
 3994TIP3    H233474   4.808   1.472   0.018  1.8529  0.9323  0.4377
 3995TIP3   OH233475   6.024   0.054  14.854  0.0946  0.0997 -0.2227
 3995TIP3    H133476   6.110   0.059  14.898  0.3247  0.0128 -0.6618
 3995TIP3    H233477   6.043   0.074  14.763  0.1585 -2.9780 -0.9595
 3996TIP3   OH233478   4.379   5.016   3.044 -0.6082  0.0292 -0.3884
 3996TIP3    H133479   4.468   5.036   3.015 -0.6639  0.4658 -0.2627
 3996TIP3    H233480   4.343   5.100   3.071 -1.4056  0.0219 -1.4046
 3997TIP3   OH233481   6.410   1.193   0.628 -0.0308  0.0014 -0.3837
 3997TIP3    H133482   6.439   1.283   0.617 -0.0905  0.0076 -0.4935
 3997TIP3    H233483   6.404   1.159   0.539  0.2149 -0.1808 -0.3301
 3998TIP3   OH233484   2.663   4.306  14.852  0.3176 -0.5214 -0.2839
 3998TIP3    H133485   2.671   4.377  14.787  0.3621  0.8099  1.1399
 3998TIP3    H233486   2.572   4.277  14.844  0.2762 -0.2547 -0.8371
 3999TIP3   OH233487   3.407   3.902   4.212  0.2467  0.2646 -0.3851
 3999TIP3    H133488   3.423   3.996   4.196  1.2230 -0.1557 -1.9940
 3999TIP3    H233489   3.317   3.888   4.184  1.7514 -0.3449 -5.3298
 4000TIP3   OH233490   4.114   0.034  15.765  0.2271  0.7185  0.2313
 4000TIP3    H133491   4.156   0.066  15.686 -1.1016 -0.1146 -0.8381
 4000TIP3    H233492   4.187   0.009  15.822  1.1944  0.9024 -0.8993
 4001TIP3   OH233493   5.502   5.605  14.173 -0.0387  0.0368  0.5623
 4001TIP3    H133494   5.557   5.612  14.251 -0.9566 -2.3772  1.4706
 4001TIP3    H233495   5.562   5.622  14.100  1.4945 -0.6510  1.6269
 4002TIP3   OH233496   0.414   4.235   4.081 -0.0502 -0.0422 -0.1266
 4002TIP3    H133497   0.372   4.213   3.998  0.0152 -0.0874 -0.1484
 4002TIP3    H233498   0.342   4.253   4.141 -0.1042 -0.3974 -0.0876
 4003TIP3   OH233499   3.246   0.641  15.168 -0.4207 -0.1875  0.1173
 4003TIP3    H133500   3.205   0.557  15.144 -1.0461 -0.5864  2.4772
 4003TIP3    H233501   3.339   0.620  15.177  0.0711  0.2718 -3.1975
 4004TIP3   OH233502   3.642   1.029   5.911  0.2219  0.0755 -0.2298
 4004TIP3    H133503   3.681   1.074   5.986  0.1789  0.2633 -0.3182
 4004TIP3    H233504   3.702   1.047   5.839  0.0518  0.2367 -0.3315
 4005TIP3   OH233505   1.938   2.669   4.346 -0.0279  0.2518  0.0842
 4005TIP3    H133506   1.853   2.631   4.370  0.2184 -0.3687 -0.0005
 4005TIP3    H233507   1.976   2.605   4.286  1.3707 -0.4740  1.6883
 4006TIP3   OH233508   2.702   2.620  17.026 -0.2000 -0.2589  0.4417
 4006TIP3    H133509   2.717   2.534  16.988  0.4500  0.5643 -1.1787
 4006TIP3    H233510   2.654   2.668  16.960  1.9498  1.5670  0.1463
 4007TIP3   OH233511   1.864   0.346  11.599 -0.1024  0.0848  0.3352
 4007TIP3    H133512   1.771   0.365  11.616  0.1723  0.2627  1.6723
 4007TIP3    H233513   1.885   0.274  11.659  0.3312 -0.7140 -0.7681
 4008TIP3   OH233514   4.276   4.923   5.383 -0.4555 -0.3107  0.2754
 4008TIP3    H133515   4.340   4.896   5.449 -0.1878  0.7252  0.4490
 4008TIP3    H233516   4.192   4.892   5.417 -0.4740  1.2185  1.6864
 4009TIP3   OH233517   2.062   0.473   6.858  0.2897 -0.6061  0.4418
 4009TIP3    H133518   2.101   0.395   6.817 -0.4986 -1.1713  0.7741
 4009TIP3    H233519   2.137   0.518   6.898  1.4256  0.9933 -3.2298
 4010TIP3   OH233520   5.390   6.079  13.071 -0.1074  0.1340 -0.2461
 4010TIP3    H133521   5.312   6.066  13.018 -0.0263  2.4005 -0.9764
 4010TIP3    H233522   5.420   6.167  13.048  1.2958  0.2134  1.7949
 4011TIP3   OH233523   6.455   3.619  16.859  0.1938  0.0898 -0.3826
 4011TIP3    H133524   6.468   3.557  16.788  0.0275 -0.6495  0.2244
 4011TIP3    H233525   6.498   3.579  16.934  1.7074  1.5710 -0.4179
 4012TIP3   OH233526   5.646   0.636  16.618  0.1115  0.3407 -0.1554
 4012TIP3    H133527   5.731   0.631  16.662  0.5903 -0.3830 -1.1372
 4012TIP3    H233528   5.621   0.728  16.625  0.6489  0.4245  0.7492
 4013TIP3   OH233529   3.131   2.622  15.047  0.3078 -0.3325 -0.7291
 4013TIP3    H133530   3.184   2.551  15.084 -0.6305 -0.4704  0.3902
 4013TIP3    H233531   3.126   2.686  15.118  2.3210  1.5142 -2.1995
 4014TIP3   OH233532   6.162   3.419   2.114 -0.0549 -0.2875  0.3603
 4014TIP3    H133533   6.225   3.347   2.124  1.6742  0.8604 -1.8590
 4014TIP3    H233534   6.195   3.488   2.172 -0.7780 -0.6464  1.2128
 4015TIP3   OH233535   3.667   3.978  15.651 -0.1289  0.1673 -0.0707
 4015TIP3    H133536   3.578   3.971  15.617  0.2869 -1.1412 -0.9548
 4015TIP3    H233537   3.680   4.071  15.668 -1.8181  0.3152  0.4965
 4016TIP3   OH233538   3.212   6.544   3.548 -0.4023  0.2625  0.4576
 4016TIP3    H133539   3.274   6.614   3.528  0.9979 -1.3909 -1.1709
 4016TIP3    H233540   3.259   6.485   3.606 -0.8173 -0.4340  0.0967
 4017TIP3   OH233541   4.738   1.030   4.706  0.3348  0.5601  0.0034
 4017TIP3    H133542   4.800   0.959   4.688  0.8584  0.4074  2.2604
 4017TIP3    H233543   4.653   0.986   4.716  0.1757  0.5658 -1.3047
 4018TIP3   OH233544   0.875   4.179  16.394 -0.7670  0.1383 -0.3254
 4018TIP3    H133545   0.917   4.128  16.325 -0.6885 -0.8154  0.4205
 4018TIP3    H233546   0.810   4.232  16.348  1.5839  2.0451 -1.5684
 4019TIP3   OH233547   0.889   1.155  16.068  0.1437 -0.2004  0.2548
 4019TIP3    H133548   0.866   1.141  16.160 -1.6044  0.5799 -0.0402
 4019TIP3    H233549   0.833   1.093  16.020 -1.2427  1.5873 -0.4769
 4020TIP3   OH233550   2.435   5.667  13.576 -0.4110 -0.6998 -0.1069
 4020TIP3    H133551   2.441   5.588  13.522  1.2411 -0.7122  0.0899
 4020TIP3    H233552   2.379   5.642  13.650 -2.0561 -0.9083 -1.3880
 4021TIP3   OH233553   1.467   3.258   1.120  0.5622  0.3040  0.3493
 4021TIP3    H133554   1.418   3.340   1.118 -1.0191 -0.6185 -0.7681
 4021TIP3    H233555   1.415   3.202   1.179  1.3521 -0.0636  0.7005
 4022TIP3   OH233556   5.724   5.339  14.198 -0.1498 -0.2319 -0.0298
 4022TIP3    H133557   5.739   5.263  14.143 -0.5805 -0.0908 -0.3415
 4022TIP3    H233558   5.773   5.410  14.155  0.2799 -0.3375  0.2785
 4023TIP3   OH233559   1.569   2.989   5.832 -0.4322 -0.1094  0.0188
 4023TIP3    H133560   1.504   3.058   5.842 -1.1471 -0.7589 -0.0982
 4023TIP3    H233561   1.639   3.013   5.893 -0.2551  1.1897 -0.6839
 4024TIP3   OH233562   6.744   5.797   0.481 -0.2046 -0.7307  0.4355
 4024TIP3    H133563   6.705   5.861   0.420 -1.5376 -4.3093 -2.6524
 4024TIP3    H233564   6.835   5.792   0.453  0.4011  1.1722  1.9549
 4025TIP3   OH233565   3.688   3.528  14.141  0.0931  0.3749  0.7384
 4025TIP3    H133566   3.691   3.498  14.232  0.8498  0.5484  0.7701
 4025TIP3    H233567   3.701   3.622  14.146  0.0244  0.3996  0.4574
 4026TIP3   OH233568   6.487   4.051  13.338 -0.2832  0.3799  0.3614
 4026TIP3    H133569   6.448   4.134  13.310  0.3260  0.4115 -0.4410
 4026TIP3    H233570   6.565   4.077  13.386 -0.4838  0.2906  0.7326
 4027TIP3   OH233571   6.811   1.424   1.677 -0.6042  0.4466 -0.6629
 4027TIP3    H133572   6.752   1.349   1.682 -2.0093  1.5793  0.0702
 4027TIP3    H233573   6.770   1.491   1.732  0.5405  1.8085 -1.4332
 4028TIP3   OH233574   0.158   2.911   0.553  0.1726  0.3606 -0.8376
 4028TIP3    H133575   0.183   2.915   0.460 -0.7991  1.1475 -1.0812
 4028TIP3    H233576   0.203   2.986   0.593  1.4631 -0.6183 -0.4504
 4029TIP3   OH233577   5.406   1.629  15.397 -0.0730  0.6292 -0.1056
 4029TIP3    H133578   5.487   1.674  15.374  0.2782 -0.7277 -1.6093
 4029TIP3    H233579   5.343   1.699  15.411  1.0412  1.6631 -0.1597
 4030TIP3   OH233580   3.342   2.740  12.182 -0.1935 -0.6195  0.1237
 4030TIP3    H133581   3.434   2.751  12.157 -0.6594  1.7894 -0.7301
 4030TIP3    H233582   3.334   2.790  12.263 -0.8292 -0.5232  0.0005
 4031TIP3   OH233583   1.785   6.708  12.361  0.8147 -0.5029 -0.3039
 4031TIP3    H133584   1.784   6.618  12.328  1.2184 -0.6958  0.1908
 4031TIP3    H233585   1.735   6.704  12.443  0.5591 -0.2093 -0.4435
 4032TIP3   OH233586   3.437   1.252   5.067  0.1887 -0.5204  0.1560
 4032TIP3    H133587   3.445   1.204   4.985  1.2858  0.8587 -0.5466
 4032TIP3    H233588   3.343   1.261   5.080 -0.0035 -1.3714 -0.5633
 4033TIP3   OH233589   2.356   3.523   0.930 -0.4388  0.0669  0.3082
 4033TIP3    H133590   2.293   3.482   0.871  0.3559 -0.0757 -0.4564
 4033TIP3    H233591   2.433   3.539   0.876  0.3422 -0.1424  1.3225
 4034TIP3   OH233592   4.173   5.856   6.304 -0.0669 -0.8373  0.3326
 4034TIP3    H133593   4.128   5.832   6.385 -0.2589 -0.7592  0.2468
 4034TIP3    H233594   4.247   5.910   6.334 -1.0378  0.4938  0.3299
 4035TIP3   OH233595   5.777   4.610  12.022 -0.0894 -0.5118 -0.0651
 4035TIP3    H133596   5.796   4.605  12.116 -0.9660  2.1200  0.3057
 4035TIP3    H233597   5.854   4.652  11.984 -0.4719  0.0156 -0.2600
 4036TIP3   OH233598   3.801   5.943  13.302 -0.3015  0.1560  0.0341
 4036TIP3    H133599   3.735   5.877  13.326 -1.6706  1.2592 -0.6250
 4036TIP3    H233600   3.885   5.898  13.312 -1.2940 -2.3205 -2.2485
 4037TIP3   OH233601   6.333   0.898  17.152 -0.1764  0.1491 -0.3505
 4037TIP3    H133602   6.331   0.953  17.230  1.3402 -0.6116  0.2416
 4037TIP3    H233603   6.260   0.838  17.163  0.0954 -0.0222  0.5349
 4038TIP3   OH233604   6.283   6.010   4.341  0.7695 -0.6947  0.2011
 4038TIP3    H133605   6.352   6.048   4.287 -0.0327 -0.1846 -0.4870
 4038TIP3    H233606   6.291   6.054   4.425  2.6386 -2.1683  0.8495
 4039TIP3   OH233607   1.668   2.176   2.767 -0.4444 -0.1709 -0.3315
 4039TIP3    H133608   1.689   2.263   2.802 -2.3159 -0.4948  1.7280
 4039TIP3    H233609   1.619   2.194   2.686  1.9610  0.6045 -1.6776
 4040TIP3   OH233610   2.144   6.445   0.082 -0.1513 -0.3270 -0.2675
 4040TIP3    H133611   2.102   6.360   0.075 -0.0831 -0.5021  1.2030
 4040TIP3    H233612   2.238   6.427   0.073 -0.0755 -0.5214  0.8996
 4041TIP3   OH233613   0.938   1.820   3.974 -0.1097 -0.3633 -0.0285
 4041TIP3    H133614   0.919   1.736   4.016 -1.3834 -0.5873 -1.0360
 4041TIP3    H233615   0.855   1.847   3.936  0.5594  0.8192 -0.6669
 4042TIP3   OH233616   2.250   2.501  11.835  0.9074 -0.1051  0.0290
 4042TIP3    H133617   2.253   2.456  11.751  1.6779  1.3165 -0.7179
 4042TIP3    H233618   2.310   2.575  11.825 -0.0927  0.9069  1.3348
 4043TIP3   OH233619   6.285   6.577   5.526  0.4300 -0.6422 -0.1606
 4043TIP3    H133620   6.212   6.595   5.585 -0.8816  1.1965 -2.2751
 4043TIP3    H233621   6.258   6.499   5.477  0.7488 -1.1184  0.4156
 4044TIP3   OH233622   0.894   4.725  15.196 -0.2301  0.2143 -0.0172
 4044TIP3    H133623   0.886   4.783  15.121  3.0914  1.3911  0.4559
 4044TIP3    H233624   0.847   4.769  15.267 -0.9866  0.4438 -0.6592
 4045TIP3   OH233625   3.816   1.957   2.997 -0.1601 -0.0874 -0.1046
 4045TIP3    H133626   3.877   1.970   2.924 -0.9938 -0.1800 -0.8134
 4045TIP3    H233627   3.733   1.933   2.956 -0.6711 -0.0050  0.8659
 4046TIP3   OH233628   5.213   2.857  14.361  0.7763 -0.0533  0.4786
 4046TIP3    H133629   5.183   2.812  14.440 -0.6185 -0.0957 -0.0724
 4046TIP3    H233630   5.144   2.920  14.341  1.5210  0.5494 -0.2269
 4047TIP3   OH233631   2.765   3.369  17.199 -0.5076 -0.1816 -0.5935
 4047TIP3    H133632   2.798   3.436  17.140 -0.0081 -1.0042 -1.2467
 4047TIP3    H233633   2.682   3.342  17.160 -0.5825 -0.1268 -0.4699
 4048TIP3   OH233634   3.585   2.138  11.738  0.2031 -0.0995 -0.6427
 4048TIP3    H133635   3.497   2.174  11.725  0.6378  1.2889  0.1665
 4048TIP3    H233636   3.629   2.202  11.792  1.5546 -1.0651 -0.5825
 4049TIP3   OH233637   6.302   6.293  14.974 -0.2192  0.1048 -0.5185
 4049TIP3    H133638   6.288   6.234  15.048  1.7908 -0.1884 -0.3451
 4049TIP3    H233639   6.253   6.372  14.996 -0.8241 -0.5223  0.4313
 4050TIP3   OH233640   4.230   2.676  14.273 -0.0376  0.2810 -0.4616
 4050TIP3    H133641   4.174   2.660  14.349 -0.2902 -0.4914 -0.7939
 4050TIP3    H233642   4.274   2.758  14.291  0.5738 -0.3370  0.9173
 4051TIP3   OH233643   2.595   4.448   2.737 -0.0019 -0.4154 -0.0366
 4051TIP3    H133644   2.631   4.443   2.648 -0.5803 -0.6695 -0.2566
 4051TIP3    H233645   2.569   4.358   2.757  0.2627 -0.3850  0.4461
 4052TIP3   OH233646   3.865   2.621  13.582  0.3772  0.1011 -0.0656
 4052TIP3    H133647   3.881   2.633  13.675  1.6577 -2.1036  0.0385
 4052TIP3    H233648   3.938   2.567  13.552 -0.2356  0.4487 -2.2653
 4053TIP3   OH233649   3.045   6.304   5.148  0.1837  0.0334 -0.5274
 4053TIP3    H133650   3.116   6.272   5.205 -0.8458  0.4493  1.0251
 4053TIP3    H233651   3.088   6.323   5.064  2.1900  1.6327  0.8063
 4054TIP3   OH233652   1.054   6.088   5.240  0.0309 -0.3744 -0.0967
 4054TIP3    H133653   1.087   6.017   5.186  1.0398 -1.2585  1.6333
 4054TIP3    H233654   0.968   6.058   5.270 -0.2589 -0.1461 -0.6838
 4055TIP3   OH233655   6.132   5.181  15.978 -0.0719 -0.0114 -0.0613
 4055TIP3    H133656   6.060   5.194  15.916 -0.2309  1.0360  0.3302
 4055TIP3    H233657   6.102   5.112  16.036 -0.5541  0.0782 -0.2036
 4056TIP3   OH233658   2.177   2.186   0.262 -0.2614 -0.3769 -0.0201
 4056TIP3    H133659   2.263   2.226   0.245 -0.3763 -0.5637 -1.0729
 4056TIP3    H233660   2.171   2.114   0.200 -0.1039 -2.0160  1.7934
 4057TIP3   OH233661   6.212   5.667  16.751  0.3649  0.1312 -0.1081
 4057TIP3    H133662   6.118   5.679  16.758  0.5621  0.5431  2.0980
 4057TIP3    H233663   6.225   5.573  16.751 -0.0476  0.0661 -0.8573
 4058TIP3   OH233664   4.453   1.786   1.334  0.3832  0.5726  0.3657
 4058TIP3    H133665   4.438   1.781   1.428  1.1868 -3.4250  0.3948
 4058TIP3    H233666   4.365   1.786   1.296  0.0533 -0.5239  1.0910
 4059TIP3   OH233667   4.203   5.520   2.881  0.0360 -0.1353 -0.5044
 4059TIP3    H133668   4.244   5.581   2.942 -0.7583 -0.1966  0.1090
 4059TIP3    H233669   4.143   5.574   2.829 -1.1396 -0.4735  0.4661
 4060TIP3   OH233670   1.346   2.192   4.087  0.1602  1.0092 -0.1597
 4060TIP3    H133671   1.430   2.156   4.060 -0.6676  0.3122 -1.8850
 4060TIP3    H233672   1.293   2.115   4.110  0.0651  1.4553  1.1507
 4061TIP3   OH233673   0.064   1.749   4.558 -0.0291  0.5699 -0.3081
 4061TIP3    H133674   0.128   1.780   4.494 -1.0502  0.0240 -1.6225
 4061TIP3    H233675  -0.012   1.726   4.506 -0.0840 -2.0523  0.8551
 4062TIP3   OH233676   1.759   1.773  16.826  0.1343 -0.3632 -0.4114
 4062TIP3    H133677   1.664   1.763  16.824 -0.2863  2.9850 -0.2983
 4062TIP3    H233678   1.784   1.753  16.916 -0.5412 -0.6611 -0.2898
 4063TIP3   OH233679   0.764   2.602   4.459 -0.1970  0.4858  1.3687
 4063TIP3    H133680   0.835   2.662   4.482  1.1929 -0.7180  0.3614
 4063TIP3    H233681   0.688   2.658   4.443  1.3685  2.0701 -0.7479
 4064TIP3   OH233682   4.281   5.774   3.860 -0.2838 -0.0272 -0.3090
 4064TIP3    H133683   4.210   5.776   3.925 -0.2233 -3.1022 -0.0511
 4064TIP3    H233684   4.284   5.682   3.832  3.5614  0.0415 -0.3587
 4065TIP3   OH233685   4.608   5.350   4.233 -0.3389 -0.4836 -0.2795
 4065TIP3    H133686   4.674   5.281   4.231  1.7506  1.3858  1.1808
 4065TIP3    H233687   4.604   5.383   4.143  0.1009 -1.2038 -0.5619
 4066TIP3   OH233688   2.662   5.777  13.721 -0.7303 -0.4262 -0.5594
 4066TIP3    H133689   2.588   5.748  13.668 -0.6791  0.3590 -1.0673
 4066TIP3    H233690   2.720   5.701  13.725 -2.4160 -1.6700  1.4078
 4067TIP3   OH233691   1.632   2.056  14.693 -0.2318 -0.7633  0.1760
 4067TIP3    H133692   1.699   2.041  14.759  0.7512 -1.1712 -0.8943
 4067TIP3    H233693   1.651   2.144  14.660 -0.1006 -0.9633 -0.2768
 4068TIP3   OH233694   4.900   3.089   3.182 -0.3290 -0.4501  0.8352
 4068TIP3    H133695   4.907   3.068   3.089 -1.9153  0.8769  0.3869
 4068TIP3    H233696   4.940   3.176   3.189  0.2786 -0.7769  1.5064
 4069TIP3   OH233697   2.411   6.300   2.220 -0.6871 -0.4172 -0.4852
 4069TIP3    H133698   2.477   6.252   2.271 -0.8327  0.1967  0.2934
 4069TIP3    H233699   2.436   6.285   2.129  0.6663  0.0040 -0.1930
 4070TIP3   OH233700   6.257   2.599  12.101 -0.0168  0.8494  0.0579
 4070TIP3    H133701   6.251   2.512  12.062  1.8644  0.9909 -0.5941
 4070TIP3    H233702   6.230   2.586  12.192 -1.1669 -0.1279 -0.4095
 4071TIP3   OH233703   1.512   1.501  13.803  0.1390  0.4229 -0.5031
 4071TIP3    H133704   1.458   1.521  13.879  0.0695  0.8126 -0.6562
 4071TIP3    H233705   1.450   1.472  13.736  0.2662 -0.6166 -0.1809
 4072TIP3   OH233706   2.519   4.095   6.227 -0.3920  0.5993  0.1190
 4072TIP3    H133707   2.549   4.180   6.194  4.1098 -0.3358  1.3807
 4072TIP3    H233708   2.509   4.108   6.321  0.1527 -0.1592  0.2945
 4073TIP3   OH233709   2.896   1.720   5.012  0.6297  0.2871 -0.0961
 4073TIP3    H133710   2.800   1.715   5.007  0.6191 -0.0983  0.4289
 4073TIP3    H233711   2.913   1.790   5.076  0.6784 -0.5983  0.8803
 4074TIP3   OH233712   1.524   2.886  15.920 -0.2388 -0.4387  0.3280
 4074TIP3    H133713   1.594   2.909  15.981 -0.4987  1.6186 -0.1278
 4074TIP3    H233714   1.473   2.966  15.909 -0.9055 -1.0853 -1.6791
 4075TIP3   OH233715   6.385   2.799  12.274  0.4349 -0.9989 -0.3651
 4075TIP3    H133716   6.343   2.735  12.216  0.7888 -1.3254 -0.2584
 4075TIP3    H233717   6.328   2.803  12.350 -0.7561  0.4142 -1.3023
 4076TIP3   OH233718   5.937   4.089   5.080 -0.7111 -0.4198 -0.2409
 4076TIP3    H133719   6.001   4.053   5.018 -0.7372  1.2132 -1.2275
 4076TIP3    H233720   5.860   4.107   5.027 -2.0794 -2.4706  0.9601
 4077TIP3   OH233721   6.447   6.176   2.094 -0.1048  0.1655  0.1145
 4077TIP3    H133722   6.497   6.252   2.065  1.4409 -0.1872  1.8491
 4077TIP3    H233723   6.507   6.102   2.085 -1.6881 -0.9658 -1.8636
 4078TIP3   OH233724   3.644   3.308  15.213 -0.5252  0.0767 -0.3140
 4078TIP3    H133725   3.659   3.382  15.155  1.4217  0.9351  1.2197
 4078TIP3    H233726   3.629   3.347  15.299 -0.3000 -1.2715  0.3563
 4079TIP3   OH233727   3.324   6.694  16.409 -0.0512  0.3179  0.1374
 4079TIP3    H133728   3.282   6.693  16.323 -0.0722 -0.6411  0.1572
 4079TIP3    H233729   3.381   6.617  16.409  1.0924  1.1595  0.4150
 4080TIP3   OH233730   2.775   1.060   3.116  0.0275  0.2957  0.2035
 4080TIP3    H133731   2.825   0.985   3.084 -0.9736 -0.1258 -0.4051
 4080TIP3    H233732   2.730   1.094   3.039  1.9372  2.6925  0.0960
 4081TIP3   OH233733   5.065   3.841   4.145  0.1221  0.4594 -0.6055
 4081TIP3    H133734   5.090   3.933   4.146  0.8556  0.2594 -0.4097
 4081TIP3    H233735   5.100   3.808   4.062  0.5627  0.1651 -0.3040
 4082TIP3   OH233736   1.194   0.897   1.083 -0.1654 -0.3282 -0.1417
 4082TIP3    H133737   1.113   0.921   1.128  0.8622  0.8427  1.1582
 4082TIP3    H233738   1.261   0.952   1.125  0.9388  0.3969 -2.7374
 4083TIP3   OH233739   3.819   6.670  13.874 -0.8617  0.2678 -0.1701
 4083TIP3    H133740   3.778   6.706  13.953 -1.7511 -0.4990 -0.2791
 4083TIP3    H233741   3.752   6.615  13.835 -0.6864  1.2426 -1.8937
 4084TIP3   OH233742   0.600   4.451  14.250  0.3772 -0.0171  0.3893
 4084TIP3    H133743   0.628   4.521  14.191  1.5582  0.1122  1.0825
 4084TIP3    H233744   0.640   4.372  14.214  1.3025  0.0995  1.1435
 4085TIP3   OH233745   6.548   2.238   1.588 -0.3543  0.0938 -0.0286
 4085TIP3    H133746   6.577   2.150   1.564  0.4789  0.4515 -0.3508
 4085TIP3    H233747   6.535   2.234   1.683 -1.6757 -0.7611 -0.2358
 4086TIP3   OH233748   0.794   6.261   3.807 -0.1087  0.1045  0.5351
 4086TIP3    H133749   0.788   6.227   3.718 -1.7413 -0.0764  0.7045
 4086TIP3    H233750   0.872   6.220   3.844 -0.0832 -0.7124 -0.4358
 4087TIP3   OH233751   4.514   2.135   6.560 -0.2865 -0.3801  0.5232
 4087TIP3    H133752   4.420   2.147   6.577 -0.2036  0.0247  0.7240
 4087TIP3    H233753   4.537   2.056   6.608  0.0579  1.0603  2.8103
 4088TIP3   OH233754   0.666   2.726  11.549 -0.1144 -0.5278  0.2134
 4088TIP3    H133755   0.657   2.788  11.621 -0.3518  1.2398 -1.3004
 4088TIP3    H233756   0.589   2.742  11.494  0.8080 -0.8323 -1.1775
 4089TIP3   OH233757   4.510   4.912   1.175 -0.6092  0.1868  0.2204
 4089TIP3    H133758   4.571   4.878   1.109 -2.8826 -0.1151 -1.8350
 4089TIP3    H233759   4.479   4.834   1.221  1.4926  0.4597  2.1714
 4090TIP3   OH233760   4.842   3.169  13.784 -0.0055 -0.6089 -0.0018
 4090TIP3    H133761   4.877   3.113  13.853 -0.2086 -1.0963 -0.2899
 4090TIP3    H233762   4.758   3.130  13.762 -0.0770 -0.2811 -0.3180
 4091TIP3   OH233763   4.186   5.468  13.987  0.1983  0.1059 -0.1407
 4091TIP3    H133764   4.259   5.474  13.925  0.2653  0.7627  0.0029
 4091TIP3    H233765   4.205   5.388  14.037 -0.6333 -1.2590 -1.9289
 4092TIP3   OH233766   5.401   6.253  12.258 -0.3018 -0.2772 -0.1363
 4092TIP3    H133767   5.368   6.286  12.175 -0.7707 -0.0976  0.1177
 4092TIP3    H233768   5.432   6.164  12.238  0.4960  0.1238 -0.7101
 4093TIP3   OH233769   3.355   4.208  15.036  0.2414 -0.1288 -0.3703
 4093TIP3    H133770   3.446   4.197  15.063 -0.2367 -2.6844  0.3570
 4093TIP3    H233771   3.333   4.299  15.060  1.7031 -0.4107  2.2244
 4094TIP3   OH233772   0.873   2.270  11.519 -0.1386 -0.3084 -0.2775
 4094TIP3    H133773   0.923   2.192  11.543  0.3139 -0.7680 -2.5545
 4094TIP3    H233774   0.863   2.319  11.600  1.6245 -1.5939  0.7354
 4095TIP3   OH233775   6.290   2.765   0.041 -0.4361  0.6883  0.5258
 4095TIP3    H133776   6.305   2.835  -0.022 -1.0177  0.7838  0.4971
 4095TIP3    H233777   6.378   2.742   0.071 -0.2429  1.4465  0.5590
 4096TIP3   OH233778   2.225   0.036  14.674 -0.4157  0.6915 -0.1128
 4096TIP3    H133779   2.203   0.124  14.704 -0.8830  0.4331  0.3029
 4096TIP3    H233780   2.172   0.023  14.596 -1.0033  0.4440  0.3261
 4097TIP3   OH233781   2.286   3.166   3.349 -0.2539  0.0910 -0.3287
 4097TIP3    H133782   2.217   3.145   3.412  0.4161 -1.0246  0.0374
 4097TIP3    H233783   2.358   3.200   3.402 -0.2610  0.6148 -0.6481
 4098TIP3   OH233784   3.888   6.190   3.475 -0.0282  0.1085  0.0985
 4098TIP3    H133785   3.946   6.203   3.550 -0.2985  1.8646  0.0301
 4098TIP3    H233786   3.801   6.180   3.513  0.1553 -1.3547  0.1397
 4099TIP3   OH233787   5.285   0.466   0.960  0.0314 -0.0922  0.4509
 4099TIP3    H133788   5.316   0.441   0.873 -2.5503 -0.6580 -0.3546
 4099TIP3    H233789   5.317   0.555   0.973 -1.3650  0.8039 -2.0163
 4100TIP3   OH233790   6.195   4.331  12.250 -0.1353  0.3913  0.4748
 4100TIP3    H133791   6.162   4.404  12.197  0.4253  1.0015  0.9429
 4100TIP3    H233792   6.131   4.262  12.239  1.0111 -0.2545 -2.6530
 4101TIP3   OH233793   1.126   1.219   4.593  0.1054  0.1154 -0.1455
 4101TIP3    H133794   1.099   1.127   4.594 -1.1203  0.4612 -0.0821
 4101TIP3    H233795   1.176   1.230   4.674 -0.7117 -0.2278  0.4175
 4102TIP3   OH233796   6.585   1.294   0.299 -0.0031  0.1847 -0.4745
 4102TIP3    H133797   6.667   1.288   0.349  0.7844  0.5756 -1.6972
 4102TIP3    H233798   6.517   1.266   0.361  0.8425  1.5515  1.0969
 4103TIP3   OH233799   6.482   1.941   1.267 -0.1809 -0.0038 -0.2256
 4103TIP3    H133800   6.531   1.997   1.206  1.1707 -1.4020 -0.4357
 4103TIP3    H233801   6.392   1.974   1.261  0.5211  1.9105 -0.6188
 4104TIP3   OH233802   4.709   6.309   4.546 -0.6612 -0.3428  0.1557
 4104TIP3    H133803   4.792   6.263   4.531 -0.5808  0.2093 -1.1043
 4104TIP3    H233804   4.686   6.346   4.461 -1.6119  0.4976  0.7726
 4105TIP3   OH233805   1.819   4.760   1.534  0.4243  0.5291  0.1584
 4105TIP3    H133806   1.811   4.810   1.616  0.2169  0.5720  0.1143
 4105TIP3    H233807   1.913   4.748   1.522  0.4297 -0.0916  0.7748
 4106TIP3   OH233808   5.839   5.277  11.695  0.4546 -0.5838  0.1979
 4106TIP3    H133809   5.758   5.328  11.704  1.4289  0.6468  2.5225
 4106TIP3    H233810   5.812   5.194  11.658 -1.6515  0.4222 -0.5822
 4107TIP3   OH233811   1.782   6.152  12.805 -0.2668  0.6524  0.5349
 4107TIP3    H133812   1.876   6.164  12.819  0.1833 -1.9711  0.0427
 4107TIP3    H233813   1.772   6.152  12.709 -0.4165 -1.4127  0.5388
 4108TIP3   OH233814   0.972   6.134   4.343  0.0704  0.2900 -0.4901
 4108TIP3    H133815   1.017   6.166   4.265  0.3801  0.3930 -0.2681
 4108TIP3    H233816   0.928   6.212   4.379  0.6576  0.4237 -0.0634
 4109TIP3   OH233817   0.317   4.547  14.212 -0.0520 -0.3824 -0.0070
 4109TIP3    H133818   0.334   4.633  14.250  1.5270 -0.0104 -1.5181
 4109TIP3    H233819   0.398   4.499  14.226  0.2623 -0.5158 -2.1618
 4110TIP3   OH233820   2.999   2.120   0.370  0.2138  0.0981  0.0665
 4110TIP3    H133821   3.056   2.144   0.443 -2.0580 -0.5177  2.1173
 4110TIP3    H233822   2.948   2.199   0.352 -1.3001 -0.5932  1.1667
 4111TIP3   OH233823   2.875   4.432  15.793  0.1734 -0.9774  0.6692
 4111TIP3    H133824   2.904   4.518  15.760 -1.2450 -0.0921  1.6915
 4111TIP3    H233825   2.880   4.375  15.716  1.5871 -0.1100  0.0846
 4112TIP3   OH233826   2.365   3.348   1.141 -0.1151 -0.4808 -0.1095
 4112TIP3    H133827   2.390   3.412   1.075 -0.9194 -1.3864 -1.3117
 4112TIP3    H233828   2.386   3.390   1.225  1.9434  0.2426 -0.9525
 4113TIP3   OH233829   1.698   1.147   6.040  0.0078 -0.3880 -0.1515
 4113TIP3    H133830   1.625   1.184   5.991  0.3271  1.1842  0.5316
 4113TIP3    H233831   1.689   1.183   6.128  2.0155  0.4387 -0.2479
 4114TIP3   OH233832   2.493   5.622   3.480  0.5898  0.8402 -0.1324
 4114TIP3    H133833   2.489   5.670   3.397  3.0537  2.0331  0.4058
 4114TIP3    H233834   2.417   5.564   3.478  0.0389  1.6131 -2.7585
 4115TIP3   OH233835   6.276   1.276   1.746 -0.2487 -0.6319  0.6911
 4115TIP3    H133836   6.233   1.217   1.684 -1.5382 -1.1771  2.0831
 4115TIP3    H233837   6.213   1.345   1.762  0.8984  0.6474 -0.2024
 4116TIP3   OH233838   2.024   4.057   5.510 -0.0466  0.3731  0.4272
 4116TIP3    H133839   1.929   4.070   5.509 -0.1182 -0.1651 -1.7518
 4116TIP3    H233840   2.060   4.134   5.466  0.5840  0.8068  1.6630
 4117TIP3   OH233841   3.401   5.577  15.651 -0.2233 -0.5370  0.0882
 4117TIP3    H133842   3.398   5.494  15.605 -0.2115  0.0972 -1.0880
 4117TIP3    H233843   3.488   5.580  15.691  0.0201 -0.8052 -0.4192
 4118TIP3   OH233844   0.614   0.905  17.114 -0.0931  0.1124  0.5218
 4118TIP3    H133845   0.671   0.962  17.063  0.2195 -1.1701 -0.5834
 4118TIP3    H233846   0.568   0.964  17.174  1.2775  1.3400  0.3930
 4119TIP3   OH233847   0.656   2.229  14.904  0.1400 -0.1973 -0.6092
 4119TIP3    H133848   0.587   2.169  14.933  1.2666  0.1759  2.9845
 4119TIP3    H233849   0.608   2.307  14.877 -1.0588 -1.1956 -1.4880
 4120TIP3   OH233850   4.144   6.080   2.183 -0.1577 -0.4494 -0.3354
 4120TIP3    H133851   4.141   6.030   2.265  1.1762 -0.3598 -0.2319
 4120TIP3    H233852   4.102   6.164   2.205  2.3550  0.5187  0.9367
 4121TIP3   OH233853   4.302   1.749  11.690 -0.0442  0.3560 -0.2863
 4121TIP3    H133854   4.370   1.683  11.704  1.0972  1.6227  0.2585
 4121TIP3    H233855   4.229   1.721  11.745  1.2010  0.6431  1.5525
 4122TIP3   OH233856   2.058   1.619   4.144  1.0251 -0.3903 -0.0630
 4122TIP3    H133857   2.011   1.613   4.227  0.5832 -1.5461 -0.3855
 4122TIP3    H233858   2.098   1.706   4.145  0.0124  0.0721  0.8207
 4123TIP3   OH233859   6.782   1.976  11.002  0.3031  0.4880 -0.2829
 4123TIP3    H133860   6.823   1.987  10.916  0.4656  0.5484 -0.1989
 4123TIP3    H233861   6.804   2.056  11.050 -1.2323  1.2288 -0.7724
 4124TIP3   OH233862   0.683   3.614   0.835 -0.1192  0.0524 -0.1114
 4124TIP3    H133863   0.605   3.573   0.797 -0.6969  0.5502  0.5084
 4124TIP3    H233864   0.653   3.649   0.919  0.5280  1.1076 -0.3061
 4125TIP3   OH233865   3.402   2.043  15.012 -0.0320 -0.1335 -0.2091
 4125TIP3    H133866   3.448   1.990  15.077 -0.6266 -2.2104 -1.4428
 4125TIP3    H233867   3.311   2.017  15.019  0.0033 -0.9498 -2.3551
 4126TIP3   OH233868   0.563   6.150  16.983 -0.0074  0.0135 -0.0830
 4126TIP3    H133869   0.637   6.093  16.964  0.2251  0.1546  0.3891
 4126TIP3    H233870   0.492   6.115  16.929  0.0349 -0.9334  0.4683
 4127TIP3   OH233871   4.219   4.052  12.785  0.3387  0.4620  0.6731
 4127TIP3    H133872   4.252   4.109  12.716  2.4146 -2.0440 -0.5088
 4127TIP3    H233873   4.131   4.027  12.756  0.9641 -0.0820 -0.7796
 4128TIP3   OH233874   0.483   5.904   3.660 -0.6073  0.1028  0.0895
 4128TIP3    H133875   0.562   5.868   3.620 -1.2070 -0.2755 -0.7725
 4128TIP3    H233876   0.433   5.827   3.688 -1.2124  0.2963 -0.4369
 4129TIP3   OH233877   1.274   6.265   5.989  0.0958  0.7396 -0.3177
 4129TIP3    H133878   1.234   6.229   5.910 -1.1408 -3.1190  1.9166
 4129TIP3    H233879   1.344   6.203   6.010 -0.1791  1.1932  2.0708
 4130TIP3   OH233880   3.091   0.002   5.973  0.5238 -0.4388  0.2354
 4130TIP3    H133881   3.038   0.075   5.941 -1.2051 -0.0661  3.7445
 4130TIP3    H233882   3.166   0.000   5.914 -0.7347  2.4517 -1.5807
 4131TIP3   OH233883   1.380   5.436   0.223  0.1225 -0.4136  0.1393
 4131TIP3    H133884   1.329   5.487   0.286  0.1003  0.2971 -0.4594
 4131TIP3    H233885   1.316   5.400   0.163 -0.0069 -2.2741  1.3443
 4132TIP3   OH233886   4.976   5.485  14.330  0.0097  0.3721  0.5398
 4132TIP3    H133887   4.895   5.444  14.300 -0.2695  0.6492  0.9063
 4132TIP3    H233888   5.045   5.442  14.280 -0.0482 -2.1855  2.5859
 4133TIP3   OH233889   0.096   5.590  11.124  0.0348  0.0045  0.5620
 4133TIP3    H133890   0.188   5.603  11.101 -0.6465  1.5093 -1.4748
 4133TIP3    H233891   0.068   5.675  11.158 -0.7316 -0.2940  0.6760
 4134TIP3   OH233892   1.210   0.494  13.071  0.6177  0.1514  0.3766
 4134TIP3    H133893   1.139   0.543  13.111  0.7891  0.4315  0.3415
 4134TIP3    H233894   1.214   0.412  13.120 -0.5012 -0.3665 -0.3877
 4135TIP3   OH233895   3.114   4.958  13.106 -0.1353  0.2949 -0.3217
 4135TIP3    H133896   3.052   4.908  13.160 -0.9455 -0.0738 -1.5548
 4135TIP3    H233897   3.161   4.891  13.057  0.2962  0.6504 -0.3947
 4136TIP3   OH233898   1.674   1.648   1.788 -0.1826  0.7013 -0.3381
 4136TIP3    H133899   1.625   1.672   1.709 -0.1234  2.3973  0.1222
 4136TIP3    H233900   1.730   1.576   1.761 -0.1039  1.3200 -1.8745
 4137TIP3   OH233901   0.651   2.098  14.171 -0.1049 -0.1041 -0.2320
 4137TIP3    H133902   0.574   2.140  14.207  0.3955  1.3324 -0.8225
 4137TIP3    H233903   0.631   2.004  14.175 -1.5522  0.2207  0.3336
 4138TIP3   OH233904   5.557   5.242   5.170  0.1859  0.0567 -0.0284
 4138TIP3    H133905   5.475   5.289   5.182 -0.1695  0.2067 -2.7472
 4138TIP3    H233906   5.533   5.150   5.180 -0.5715  0.0240 -1.9560
 4139TIP3   OH233907   1.335   0.612  12.859  0.2257 -0.1664  0.2144
 4139TIP3    H133908   1.294   0.572  12.936 -2.4551  1.5599 -0.2618
 4139TIP3    H233909   1.324   0.548  12.789  0.9894 -0.9306  0.7705
 4140TIP3   OH233910   0.797   3.431   3.604 -0.5337 -0.3916  0.0659
 4140TIP3    H133911   0.806   3.494   3.533 -1.2243 -2.3909 -1.8445
 4140TIP3    H233912   0.715   3.456   3.648 -0.7382  0.1085 -0.5853
 4141TIP3   OH233913   0.291   0.332  15.990  0.3310 -0.0469  0.2754
 4141TIP3    H133914   0.304   0.238  15.976  2.5624  0.2265  0.3839
 4141TIP3    H233915   0.233   0.358  15.918 -0.4762 -1.5335  0.3644
 4142TIP3   OH233916   3.809   5.371   6.692  0.0403  0.4324  0.1513
 4142TIP3    H133917   3.890   5.420   6.703  0.5750 -0.4452  0.1570
 4142TIP3    H233918   3.821   5.292   6.745 -0.2769 -0.3468 -0.9268
 4143TIP3   OH233919   5.635   1.678  15.067 -0.2018 -0.0494 -0.2760
 4143TIP3    H133920   5.615   1.585  15.079  0.3455 -0.0916  0.2916
 4143TIP3    H233921   5.714   1.692  15.118 -0.7956  0.9428  0.3759
 4144TIP3   OH233922   6.600   4.208   0.748 -0.1716  0.1091 -0.4300
 4144TIP3    H133923   6.590   4.259   0.668 -0.9732  1.9402  0.7844
 4144TIP3    H233924   6.542   4.133   0.737  1.2410 -0.7205 -2.3716
 4145TIP3   OH233925   6.147   2.403  14.204 -0.5392  0.1705  0.1473
 4145TIP3    H133926   6.222   2.350  14.231  0.5932  1.0622 -1.1634
 4145TIP3    H233927   6.076   2.374  14.261  0.3166 -1.9925  0.1830
 4146TIP3   OH233928   4.764   4.621   0.799  0.0166  0.2721  0.3309
 4146TIP3    H133929   4.853   4.632   0.767 -0.9789  0.9773 -2.3414
 4146TIP3    H233930   4.755   4.526   0.812  0.2476 -0.1606 -2.2996
 4147TIP3   OH233931   0.061   0.606   6.083 -0.0889 -0.1398 -0.2805
 4147TIP3    H133932   0.027   0.620   5.995 -0.9634 -1.6976 -0.2018
 4147TIP3    H233933   0.057   0.693   6.124 -1.0013  0.3158 -1.3127
 4148TIP3   OH233934   1.743   3.779   0.553  0.5825  0.1439  0.1319
 4148TIP3    H133935   1.756   3.720   0.478  0.4045 -0.6887  0.7470
 4148TIP3    H233936   1.716   3.862   0.514  1.5803  0.0507 -0.7928
 4149TIP3   OH233937   2.609   1.054  11.467 -0.0138  0.0447  0.3214
 4149TIP3    H133938   2.566   1.122  11.518  3.2015  1.8042  0.8421
 4149TIP3    H233939   2.627   1.094  11.382 -0.7955 -1.1638 -0.4179
 4150TIP3   OH233940   4.047   0.483  16.875 -0.3274 -0.5288  0.0682
 4150TIP3    H133941   4.026   0.526  16.792  0.3691 -1.3522 -0.5545
 4150TIP3    H233942   4.058   0.390  16.851  2.0167 -0.4350  0.6675
 4151TIP3   OH233943   0.732   6.632   2.106 -0.3566 -0.9659 -0.7143
 4151TIP3    H133944   0.775   6.705   2.062 -2.0037 -1.0335 -2.5344
 4151TIP3    H233945   0.710   6.666   2.193  2.5069 -0.6688 -0.0562
 4152TIP3   OH233946   4.790   0.881  16.820 -0.2699 -0.2241  0.0648
 4152TIP3    H133947   4.810   0.973  16.806  0.8729 -0.6941 -1.4753
 4152TIP3    H233948   4.735   0.857  16.746 -0.5813 -0.7824  0.4678
 4153TIP3   OH233949   0.837   5.753   5.551 -0.0807  0.3807 -0.4887
 4153TIP3    H133950   0.928   5.748   5.577 -0.4774 -1.1482  0.6539
 4153TIP3    H233951   0.806   5.662   5.552 -1.0988  0.6611 -2.7226
 4154TIP3   OH233952   4.573   4.958  17.102  0.2618 -0.2277  0.6994
 4154TIP3    H133953   4.484   4.991  17.111 -0.0311 -1.2155  1.4150
 4154TIP3    H233954   4.565   4.863  17.109  1.1381 -0.4620 -1.0835
 4155TIP3   OH233955   3.254   2.457   5.888  0.0773 -0.3540 -0.7559
 4155TIP3    H133956   3.281   2.367   5.908 -0.6225 -0.3600  0.1819
 4155TIP3    H233957   3.263   2.504   5.971  1.0064  0.5905 -1.3720
 4156TIP3   OH233958   4.785   2.699  10.265 -0.6839 -0.5565  0.0013
 4156TIP3    H133959   4.697   2.726  10.239  0.3234  1.1379 -1.7916
 4156TIP3    H233960   4.839   2.776  10.248  1.1905 -1.6592  0.8697
 4157TIP3   OH233961   0.789   5.963   5.163  0.1926  0.7247 -0.1957
 4157TIP3    H133962   0.698   5.935   5.157  0.6521 -0.6469 -0.8273
 4157TIP3    H233963   0.839   5.892   5.123  1.5265  1.5542 -0.0233
 4158TIP3   OH233964   6.415   2.481   0.345 -0.1457 -0.3236 -0.0035
 4158TIP3    H133965   6.396   2.571   0.372  0.6608  0.4477 -1.9648
 4158TIP3    H233966   6.425   2.433   0.428  0.5385  1.6262  1.0662
 4159TIP3   OH233967   0.282   2.310  11.599 -0.4990 -0.3075 -0.2377
 4159TIP3    H133968   0.228   2.388  11.582 -1.9449 -0.8378  1.7493
 4159TIP3    H233969   0.361   2.345  11.641 -0.6842  0.1716 -0.2810
 4160TIP3   OH233970   4.825   4.800   3.777  0.4415 -0.0241 -0.7325
 4160TIP3    H133971   4.825   4.746   3.856  2.1551  0.7644 -0.1547
 4160TIP3    H233972   4.857   4.742   3.708 -1.2225 -0.7631 -0.8838
 4161TIP3   OH233973   3.477   4.127   2.294  0.1117  0.4136  0.7741
 4161TIP3    H133974   3.383   4.130   2.277  0.4430  1.6213 -0.9128
 4161TIP3    H233975   3.515   4.192   2.235  1.9346  0.5101  2.0031
 4162TIP3   OH233976   1.895   4.823   5.585 -0.5146 -0.5367  0.3519
 4162TIP3    H133977   1.916   4.749   5.528  0.8157 -0.4447  0.7120
 4162TIP3    H233978   1.812   4.856   5.551 -0.5490 -1.4898 -0.5201
 4163TIP3   OH233979   4.080   4.131   0.272 -0.1076 -0.3037  0.5803
 4163TIP3    H133980   4.089   4.045   0.312  0.4699  0.1829  1.5233
 4163TIP3    H233981   4.001   4.168   0.310  0.5192  0.2158  1.4059
 4164TIP3   OH233982   4.569   0.212  14.365 -0.1495 -0.1884 -0.1041
 4164TIP3    H133983   4.499   0.197  14.300 -0.6095 -0.6545  0.4880
 4164TIP3    H233984   4.606   0.125  14.379  1.0903  0.1859 -1.0064
 4165TIP3   OH233985   0.654   5.142  12.522  0.3489 -0.2598  0.1545
 4165TIP3    H133986   0.597   5.218  12.529 -0.0931 -0.3794 -1.7355
 4165TIP3    H233987   0.631   5.103  12.438  1.2845 -1.9025  0.6421
 4166TIP3   OH233988   0.520   2.569   0.515  0.1290  0.2115 -0.1078
 4166TIP3    H133989   0.582   2.566   0.443 -0.9926  0.9276 -1.1253
 4166TIP3    H233990   0.516   2.661   0.540 -0.9377  0.2668 -0.4324
 4167TIP3   OH233991   4.339   6.273  14.985 -0.2404 -0.5673 -0.3715
 4167TIP3    H133992   4.345   6.295  14.892 -0.5607 -1.2596 -0.5647
 4167TIP3    H233993   4.245   6.260  15.000 -0.2056 -0.3017  0.0859
 4168TIP3   OH233994   5.201   2.796  12.752 -0.6003 -0.0881  0.0662
 4168TIP3    H133995   5.280   2.790  12.698 -0.0618  0.0345  0.8373
 4168TIP3    H233996   5.231   2.834  12.835 -1.5500  0.4082  0.1915
 4169TIP3   OH233997   2.545   3.725  16.127 -0.0120 -0.2605 -0.2053
 4169TIP3    H133998   2.483   3.701  16.058 -0.4840  0.0946  0.0947
 4169TIP3    H233999   2.556   3.819  16.118  1.8893 -0.5776 -1.4072
 4170TIP3   OH234000   2.877   6.286  14.189 -0.3900  0.3426 -0.4497
 4170TIP3    H134001   2.852   6.376  14.168 -0.8336  0.6028  1.1635
 4170TIP3    H234002   2.801   6.251  14.235 -0.1963 -0.8475 -1.0248
 4171TIP3   OH234003   3.045   0.128  11.864  0.4543  0.1723 -0.0900
 4171TIP3    H134004   2.960   0.169  11.879  0.0611 -0.6427 -0.0769
 4171TIP3    H234005   3.098   0.154  11.940 -0.0668 -0.0824  0.3595
 4172TIP3   OH234006   1.820   3.842  13.809 -0.7005  0.4950  0.3231
 4172TIP3    H134007   1.816   3.890  13.891  0.2158  0.4362  0.3998
 4172TIP3    H234008   1.782   3.902  13.744 -0.2893  1.0170  0.5621
 4173TIP3   OH234009   6.734   6.775   3.532  0.2391  0.1951  0.1584
 4173TIP3    H134010   6.777   6.761   3.447  4.1350 -0.9356  2.1903
 4173TIP3    H234011   6.675   6.700   3.541 -0.0010  0.1631 -1.4044
 4174TIP3   OH234012   6.652   4.530   4.380  0.5921  0.5458  0.1620
 4174TIP3    H134013   6.741   4.549   4.350  1.5371 -0.6824  2.0736
 4174TIP3    H234014   6.628   4.448   4.335  0.7796  0.4046  0.3170
 4175TIP3   OH234015   4.628   2.030  15.770  0.0655 -0.6396  0.0603
 4175TIP3    H134016   4.572   2.005  15.844 -0.0895 -2.8044 -0.7334
 4175TIP3    H234017   4.574   2.013  15.693  0.3808  1.1902 -0.5786
 4176TIP3   OH234018   3.189   4.752  13.702 -0.2941 -0.2233 -0.1546
 4176TIP3    H134019   3.232   4.823  13.750 -1.6208 -0.3379  1.2424
 4176TIP3    H234020   3.235   4.673  13.731 -1.7346 -0.4040  1.7404
 4177TIP3   OH234021   1.967   6.195   0.363 -1.0386 -0.0907  0.1663
 4177TIP3    H134022   2.039   6.162   0.308 -1.6443 -0.8117 -0.2038
 4177TIP3    H234023   1.931   6.268   0.313 -0.4355  0.4034  0.4477
 4178TIP3   OH234024   3.642   0.269  16.824  0.0026  0.4581  0.4427
 4178TIP3    H134025   3.685   0.229  16.748 -0.3218 -0.2224  0.6138
 4178TIP3    H234026   3.642   0.363  16.806  1.0451  0.4094  0.1761
 4179TIP3   OH234027   6.545   6.486   5.605  0.0890 -0.1513  0.5614
 4179TIP3    H134028   6.463   6.509   5.561  0.3227 -0.0737  0.1642
 4179TIP3    H234029   6.529   6.507   5.698 -0.2346  0.1512  0.4393
 4180TIP3   OH234030   3.987   4.781  12.800  0.1473 -0.0903 -0.2257
 4180TIP3    H134031   4.010   4.869  12.829 -0.3283  0.1355 -0.5248
 4180TIP3    H234032   4.063   4.751  12.750  0.4965 -0.0330  0.2623
 4181TIP3   OH234033   6.320   3.781   5.752  0.1776  0.2308  0.4454
 4181TIP3    H134034   6.350   3.871   5.767  2.0859 -0.0829 -1.1331
 4181TIP3    H234035   6.379   3.728   5.806  1.2346 -0.2655 -1.1582
 4182TIP3   OH234036   2.399   3.840   3.472  0.0891  0.0568 -0.1086
 4182TIP3    H134037   2.374   3.925   3.508  0.4213 -1.0619  2.8541
 4182TIP3    H234038   2.488   3.853   3.440 -0.0997  0.9938 -0.2614
 4183TIP3   OH234039   6.358   6.175   4.573 -0.3668  0.8219  0.1143
 4183TIP3    H134040   6.440   6.214   4.541  1.0093 -1.4640  0.7371
 4183TIP3    H234041   6.338   6.226   4.652  1.6861 -0.0146  1.2068
 4184TIP3   OH234042   5.458   5.381  14.011  0.6615  0.4484  0.0796
 4184TIP3    H134043   5.464   5.438  14.088 -0.2914  0.4911  0.1309
 4184TIP3    H234044   5.476   5.293  14.044  1.5832  0.6337  0.0998
 4185TIP3   OH234045   0.570   2.859   4.814  0.5784  0.1160  0.5609
 4185TIP3    H134046   0.545   2.900   4.732  2.7658  2.1836  0.8857
 4185TIP3    H234047   0.666   2.863   4.815  0.6300 -1.0633  2.6060
 4186TIP3   OH234048   1.512   1.654  15.705  0.0160 -0.4229  0.5825
 4186TIP3    H134049   1.433   1.646  15.757 -1.6897  2.2188 -1.4407
 4186TIP3    H234050   1.578   1.687  15.766 -0.9558 -0.8815  1.8819
 4187TIP3   OH234051   4.527   5.057  13.551  0.5177 -0.2348 -0.2498
 4187TIP3    H134052   4.560   5.103  13.628  1.0238  0.1955 -0.7207
 4187TIP3    H234053   4.514   5.126  13.485 -0.5915 -0.5002 -0.3209
 4188TIP3   OH234054   6.329   4.210   3.725  0.1194 -0.2572 -0.1132
 4188TIP3    H134055   6.287   4.253   3.651  0.4589  0.9077  0.3578
 4188TIP3    H234056   6.332   4.118   3.701  1.1152  0.2311 -1.9647
 4189TIP3   OH234057   2.193   2.237  12.136  0.1149 -0.7156  0.2523
 4189TIP3    H134058   2.246   2.312  12.164  1.0218 -0.9756 -0.7354
 4189TIP3    H234059   2.158   2.262  12.051 -0.2253 -1.1069  0.2754
 4190TIP3   OH234060   4.756   1.901   0.736  0.0188 -0.1318  0.0140
 4190TIP3    H134061   4.756   1.961   0.661 -1.1404  0.6928  0.6506
 4190TIP3    H234062   4.789   1.819   0.701  0.4974  0.5471 -1.1570
 4191TIP3   OH234063   4.082   1.024  11.428 -0.2952 -0.9848  0.4074
 4191TIP3    H134064   4.055   1.116  11.438  1.2888 -0.3353 -0.9876
 4191TIP3    H234065   4.010   0.983  11.382  1.3323  0.9471 -4.1462
 4192TIP3   OH234066   2.951   6.339   2.758  0.1781 -0.1603  0.0212
 4192TIP3    H134067   3.043   6.358   2.776 -0.4394  2.5905  0.4704
 4192TIP3    H234068   2.935   6.256   2.801  2.1291 -0.0407  1.0373
 4193TIP3   OH234069   3.908   1.192   4.820  0.3482  0.6457  0.0365
 4193TIP3    H134070   3.914   1.166   4.911  1.6342  0.4444 -0.0975
 4193TIP3    H234071   3.828   1.245   4.815 -1.2154 -1.6049  0.7014
 4194TIP3   OH234072   1.701   1.442   2.386 -0.3383 -0.1796 -0.2276
 4194TIP3    H134073   1.611   1.445   2.419 -1.0448 -0.1645 -2.1059
 4194TIP3    H234074   1.751   1.401   2.457 -2.0485 -1.3324  0.3439
 4195TIP3   OH234075   0.231   1.063  14.119  0.1527 -0.2081 -0.2732
 4195TIP3    H134076   0.211   1.095  14.031  2.4522  0.5434 -0.5557
 4195TIP3    H234077   0.223   1.140  14.176  0.5249 -0.2800 -0.1233
 4196TIP3   OH234078   1.317   6.119  17.029 -0.0940  0.2923 -0.0766
 4196TIP3    H134079   1.267   6.092  17.106  0.8518 -0.2250  0.3553
 4196TIP3    H234080   1.261   6.184  16.986 -0.3950  0.9754  1.3381
 4197TIP3   OH234081   4.003   1.863   1.090  0.1176 -0.4065 -0.3479
 4197TIP3    H134082   3.942   1.806   1.137  2.0823 -1.8211  0.5400
 4197TIP3    H234083   4.007   1.825   1.002 -1.6036  0.7334 -0.9407
 4198TIP3   OH234084   3.545   1.139  12.303 -0.1053 -0.2089  0.3528
 4198TIP3    H134085   3.628   1.092  12.314 -0.0272 -0.5008 -1.2887
 4198TIP3    H234086   3.505   1.098  12.226 -1.0706  0.9352  0.2385
 4199TIP3   OH234087   5.063   3.798   2.067  0.1905  0.2304  0.1124
 4199TIP3    H134088   5.046   3.742   1.991  1.7629 -0.0379 -0.0680
 4199TIP3    H234089   5.017   3.756   2.139 -0.3357 -0.1673 -0.4550
 4200TIP3   OH234090   4.081   4.910   2.372 -0.6976  0.7641  0.1237
 4200TIP3    H134091   4.107   4.867   2.453  1.6374 -0.7654 -1.3524
 4200TIP3    H234092   3.998   4.868   2.348  0.4597 -1.3897 -0.1650
 4201TIP3   OH234093   6.045   3.190  13.799 -0.2800  0.3447  0.3746
 4201TIP3    H134094   6.084   3.121  13.853  0.9163  0.5343 -0.2294
 4201TIP3    H234095   6.094   3.269  13.823  0.5444  0.3488 -1.2888
 4202TIP3   OH234096   2.110   5.835   5.100 -0.3459  0.1791 -0.1034
 4202TIP3    H134097   2.100   5.921   5.057 -1.5710  1.0683  1.8769
 4202TIP3    H234098   2.026   5.792   5.084 -0.1627 -0.1823 -0.0765
 4203TIP3   OH234099   3.434   3.910  13.216 -0.2495  0.2990  0.6296
 4203TIP3    H134100   3.413   3.820  13.240  1.4433 -0.8677 -2.0890
 4203TIP3    H234101   3.457   3.951  13.300 -1.2697 -1.6987  1.9407
 4204TIP3   OH234102   4.831   3.502   5.028 -0.6804 -0.0415 -0.2202
 4204TIP3    H134103   4.909   3.446   5.024 -0.9668 -0.4543 -0.0803
 4204TIP3    H234104   4.852   3.576   4.971 -0.2767 -0.2675 -0.3720
 4205TIP3   OH234105   5.668   1.774  11.843  0.0139 -0.1137 -0.4876
 4205TIP3    H134106   5.736   1.707  11.845 -0.8446 -0.9672  2.7039
 4205TIP3    H234107   5.587   1.725  11.830 -0.7508  0.0834  2.9938
 4206TIP3   OH234108   3.945   3.978  15.657 -0.4050  0.0865  0.4572
 4206TIP3    H134109   3.854   3.955  15.677 -0.2357 -2.1760 -1.2012
 4206TIP3    H234110   3.984   3.995  15.742 -1.4622 -2.4908  1.5062
 4207TIP3   OH234111   3.065   6.287  15.195 -0.5538 -0.4454 -0.3882
 4207TIP3    H134112   2.983   6.272  15.243 -1.2102  0.9010 -1.0560
 4207TIP3    H234113   3.097   6.200  15.175 -2.0789 -0.9993 -0.5124
 4208TIP3   OH234114   3.843   5.224   4.954 -0.3292 -0.3415  0.0409
 4208TIP3    H134115   3.936   5.203   4.955  0.1311  1.5984  0.4252
 4208TIP3    H234116   3.817   5.218   4.862  0.2325 -0.6813 -0.0920
 4209TIP3   OH234117   5.651   1.495   1.008 -0.4166  0.1764 -0.1926
 4209TIP3    H134118   5.742   1.466   0.997 -0.3595  0.8820 -1.5946
 4209TIP3    H234119   5.629   1.468   1.098  0.4798 -1.8736 -0.5429
 4210TIP3   OH234120   1.958   6.720   3.428 -0.3934 -0.1890  0.5667
 4210TIP3    H134121   1.979   6.665   3.353  0.3602 -2.1660  2.1846
 4210TIP3    H234122   1.922   6.800   3.390  0.1833 -1.0630 -1.8911
 4211TIP3   OH234123   4.484   5.403   3.513  0.1378 -0.1193  0.0343
 4211TIP3    H134124   4.533   5.338   3.463  0.3881  0.3799 -0.3697
 4211TIP3    H234125   4.501   5.381   3.604  1.0725  0.0337 -0.1075
 4212TIP3   OH234126   1.555   3.727   2.967  0.0557  0.1104  0.3795
 4212TIP3    H134127   1.574   3.718   3.060 -0.3538 -1.2151  0.3478
 4212TIP3    H234128   1.460   3.728   2.962  0.0590  2.3600  0.1501
 4213TIP3   OH234129   2.907   4.493   3.451  0.0756 -0.2096 -0.9732
 4213TIP3    H134130   2.978   4.499   3.387 -0.7824 -0.0112 -1.9259
 4213TIP3    H234131   2.882   4.584   3.468 -0.2240 -0.2924 -0.9578
 4214TIP3   OH234132   2.424   5.564   1.873 -0.2163  0.3693  0.2375
 4214TIP3    H134133   2.474   5.528   1.946  0.4026  2.9045  1.1075
 4214TIP3    H234134   2.352   5.501   1.861  1.7847 -2.0408  0.5335
 4215TIP3   OH234135   5.394   0.814  16.704  0.3687  0.3624  0.2201
 4215TIP3    H134136   5.363   0.776  16.622 -0.6506 -0.4360  0.9590
 4215TIP3    H234137   5.321   0.868  16.734  1.5896  2.4899 -0.5235
 4216TIP3   OH234138   0.567   6.152  11.902  0.1021  0.8010 -0.3320
 4216TIP3    H134139   0.484   6.182  11.866  0.2658  0.8669 -0.6524
 4216TIP3    H234140   0.557   6.057  11.912 -0.4146  0.9546  0.6730
 4217TIP3   OH234141   5.214   6.745  16.638  0.6574  0.5226  0.4178
 4217TIP3    H134142   5.203   6.696  16.557 -0.9245 -0.2034  1.0537
 4217TIP3    H234143   5.297   6.714  16.674  1.0414  0.3667 -0.5938
 4218TIP3   OH234144   1.115   3.256  15.397 -0.1193  0.8001 -0.3587
 4218TIP3    H134145   1.113   3.182  15.458  3.0489  0.8082 -0.1357
 4218TIP3    H234146   1.096   3.332  15.451  1.3646  0.6567  0.3948
 4219TIP3   OH234147   4.863   5.344   2.982 -0.0750  0.1687 -0.3345
 4219TIP3    H134148   4.775   5.313   2.963  0.4543 -1.2332 -0.5825
 4219TIP3    H234149   4.877   5.323   3.074 -0.4911  1.6090  0.0566
 4220TIP3   OH234150   4.923   6.679   5.815 -0.4344 -0.2403  0.4925
 4220TIP3    H134151   4.842   6.629   5.815 -2.1892  2.4749 -0.7241
 4220TIP3    H234152   4.934   6.707   5.905 -1.9519  1.0255  0.3090
 4221TIP3   OH234153   1.523   4.903   0.656 -0.0619 -0.0918  0.4207
 4221TIP3    H134154   1.556   4.987   0.688 -0.2590 -0.2313  0.9945
 4221TIP3    H234155   1.427   4.913   0.657 -0.0687  0.1692 -0.8568
 4222TIP3   OH234156   4.821   2.469  13.855  0.3741 -0.0745  0.4523
 4222TIP3    H134157   4.809   2.511  13.769 -0.1360  0.1362  0.6255
 4222TIP3    H234158   4.755   2.399  13.857  1.9070 -1.5747 -0.2574
 4223TIP3   OH234159   5.767   2.604  12.283  0.1780  0.4884  0.0481
 4223TIP3    H134160   5.685   2.655  12.279 -0.7109 -0.8690  0.6445
 4223TIP3    H234161   5.738   2.513  12.279  1.7138  0.0137 -0.2488
 4224TIP3   OH234162   0.526   1.266  12.947  1.1507  0.1493  0.0422
 4224TIP3    H134163   0.436   1.287  12.923  0.4510 -2.1580  0.6074
 4224TIP3    H234164   0.577   1.285  12.869  0.1238  1.0700 -0.4099
 4225TIP3   OH234165   3.180   4.127   2.154 -0.2212 -0.1775 -0.0193
 4225TIP3    H134166   3.117   4.180   2.104 -0.3793 -0.3546 -0.0063
 4225TIP3    H234167   3.180   4.042   2.110 -1.7542 -0.9431  1.4009
 4226TIP3   OH234168   5.152   0.458   4.017 -0.2643 -0.0833  0.2338
 4226TIP3    H134169   5.097   0.516   3.964 -3.5027 -3.8138 -0.7914
 4226TIP3    H234170   5.126   0.477   4.107 -0.5472  0.7502 -0.0150
 4227TIP3   OH234171   6.482   3.788   0.975 -0.1450 -0.1695 -0.1048
 4227TIP3    H134172   6.548   3.718   0.982  0.5857  0.3594 -1.7082
 4227TIP3    H234173   6.399   3.744   0.995  0.2920 -1.5417 -1.2105
 4228TIP3   OH234174   2.167   1.483   1.983  0.2578 -1.0966 -0.4575
 4228TIP3    H134175   2.230   1.507   1.914  1.0079 -1.5390  0.0631
 4228TIP3    H234176   2.153   1.564   2.031  0.1587 -0.9133 -0.7911
 4229TIP3   OH234177   5.167   1.325   1.665 -0.0188 -0.0985  0.3380
 4229TIP3    H134178   5.246   1.376   1.682  0.4882 -1.3122  1.7196
 4229TIP3    H234179   5.127   1.367   1.589  0.7282  1.9618  1.0432
 4230TIP3   OH234180   3.125   6.514   1.416  0.1567 -0.6562 -0.2855
 4230TIP3    H134181   3.157   6.535   1.328 -0.5941  2.5294  0.1554
 4230TIP3    H234182   3.203   6.517   1.471  0.1641  0.2860 -0.3490
 4231TIP3   OH234183   5.746   0.793   5.351  0.5369 -0.0981 -0.6591
 4231TIP3    H134184   5.831   0.815   5.390  0.2273 -3.0667  1.9229
 4231TIP3    H234185   5.767   0.730   5.282  0.4246 -1.9423  0.9172
 4232TIP3   OH234186   4.879   3.669  16.740  0.5155 -0.1982 -0.2107
 4232TIP3    H134187   4.865   3.746  16.796 -2.1851 -1.2538  0.6575
 4232TIP3    H234188   4.928   3.608  16.794 -0.0210 -0.2804  0.1903
 4233TIP3   OH234189   3.426   1.153   0.314 -0.1941 -0.1821 -0.0425
 4233TIP3    H134190   3.361   1.137   0.245 -0.6158  1.1048  0.0319
 4233TIP3    H234191   3.428   1.072   0.364  0.1988 -1.1821 -1.6333
 4234TIP3   OH234192   1.840   0.670   5.628 -0.0833  0.1754 -0.0016
 4234TIP3    H134193   1.888   0.630   5.700 -0.1411  0.1051 -0.0016
 4234TIP3    H234194   1.907   0.706   5.571  0.0069 -0.8026 -0.5207
 4235TIP3   OH234195   6.187   5.389   3.533 -0.6042  0.6213  0.6592
 4235TIP3    H134196   6.253   5.415   3.469 -1.5384  0.7258 -0.2666
 4235TIP3    H234197   6.237   5.371   3.613  0.4291  1.7464  0.2807
 4236TIP3   OH234198   6.151   4.070   2.158  0.3207 -0.4020 -0.6739
 4236TIP3    H134199   6.082   4.007   2.177  0.3602 -0.9469 -2.2391
 4236TIP3    H234200   6.213   4.061   2.231 -2.2068  1.5374  1.8237
 4237TIP3   OH234201   5.251   4.499  11.633  0.4215  0.0041  0.3800
 4237TIP3    H134202   5.256   4.589  11.666 -0.8874  0.3398 -0.3157
 4237TIP3    H234203   5.202   4.452  11.700  1.5678 -0.3337  1.0040
 4238TIP3   OH234204   0.702   6.576  15.397 -0.4689 -0.3157  0.6567
 4238TIP3    H134205   0.661   6.561  15.312  2.0095 -1.7996 -0.3091
 4238TIP3    H234206   0.709   6.672  15.404  1.6889 -0.2359 -1.9926
 4239TIP3   OH234207   2.830   3.966  15.435  0.8479 -0.5886  0.0653
 4239TIP3    H134208   2.867   3.894  15.486  2.1632 -0.1437 -0.2589
 4239TIP3    H234209   2.905   4.019  15.410  0.0440  0.0398 -1.0377
 4240TIP3   OH234210   3.382   5.594   3.465  0.2997  0.0927  1.0733
 4240TIP3    H134211   3.386   5.578   3.559  2.9515  0.7944  1.1037
 4240TIP3    H234212   3.470   5.623   3.441 -1.0321  2.5290 -1.1432
 4241TIP3   OH234213   2.596   2.364   6.203 -0.4161 -0.0477 -0.7908
 4241TIP3    H134214   2.563   2.415   6.277  1.3507 -2.3846  1.6590
 4241TIP3    H234215   2.636   2.430   6.146  1.2952  1.4600  2.0232
 4242TIP3   OH234216   0.422   6.607  12.136 -0.0047  0.4503  0.0010
 4242TIP3    H134217   0.458   6.519  12.132 -1.9177 -0.3631 -0.0998
 4242TIP3    H234218   0.417   6.627  12.230 -0.8986 -0.1202  0.0746
 4243TIP3   OH234219   6.660   1.051  17.222  0.5012  0.0164 -0.1538
 4243TIP3    H134220   6.706   1.135  17.219  0.4676  0.0611  0.5236
 4243TIP3    H234221   6.574   1.072  17.257  0.3884 -0.2575 -0.2598
 4244TIP3   OH234222   5.778   6.767  16.530 -0.7946 -0.0657  0.3495
 4244TIP3    H134223   5.841   6.698  16.551 -0.8724 -0.3074 -0.2118
 4244TIP3    H234224   5.830   6.847  16.529 -0.3480 -0.3722 -0.9144
 4245TIP3   OH234225   3.345   3.347  13.588 -0.1783  0.1212  0.3575
 4245TIP3    H134226   3.398   3.332  13.666  0.7990 -0.1746 -0.3461
 4245TIP3    H234227   3.319   3.259  13.560 -1.6875  0.2977  1.1116
 4246TIP3   OH234228   4.031   1.600   3.873 -0.3003  0.5972  0.1794
 4246TIP3    H134229   3.956   1.659   3.883 -0.8785  0.1208 -1.3515
 4246TIP3    H234230   4.107   1.655   3.893 -0.9609  1.3690  0.6122
 4247TIP3   OH234231   0.798   6.174  12.561  0.2099  0.7489 -0.2961
 4247TIP3    H134232   0.753   6.182  12.645 -0.5895  2.2071 -0.8492
 4247TIP3    H234233   0.792   6.081  12.539  0.7795  0.2876  1.4435
 4248TIP3   OH234234   2.467   0.372   0.318 -0.0408 -0.1006 -0.3670
 4248TIP3    H134235   2.537   0.334   0.265  0.4374  0.5187 -0.1907
 4248TIP3    H234236   2.402   0.302   0.326  0.2336 -0.4421 -1.1259
 4249TIP3   OH234237   0.739   3.737  14.261  0.1068 -0.3598  0.5574
 4249TIP3    H134238   0.721   3.682  14.184  1.7091  0.9508 -0.7871
 4249TIP3    H234239   0.729   3.826  14.229  0.1785  0.1942  2.0563
 4250TIP3   OH234240   2.953   2.635   0.954  0.5505  0.2593 -0.2569
 4250TIP3    H134241   2.891   2.580   0.906 -0.0842  1.2070 -0.5313
 4250TIP3    H234242   3.030   2.638   0.898  0.5770 -0.3220 -0.2571
 4251TIP3   OH234243   0.647   4.494   3.776 -0.5527  0.2593 -0.9840
 4251TIP3    H134244   0.682   4.405   3.768  0.6598  0.7040 -0.6980
 4251TIP3    H234245   0.721   4.551   3.754 -1.1378  1.2129 -0.5065
 4252TIP3   OH234246   4.087   4.416  14.515  0.5086 -0.9647 -0.1758
 4252TIP3    H134247   4.103   4.372  14.432  0.1922 -2.0177  0.3042
 4252TIP3    H234248   3.992   4.421  14.522  0.5426 -0.4330 -0.1087
 4253TIP3   OH234249   2.188   5.599  14.676  0.2132 -0.2771 -0.5401
 4253TIP3    H134250   2.153   5.684  14.649 -0.6755 -0.6459 -0.5746
 4253TIP3    H234251   2.111   5.542  14.680  0.7786 -1.0282 -0.3244
 4254TIP3   OH234252   6.580   2.055  15.347 -0.2909  0.0691 -0.5585
 4254TIP3    H134253   6.636   2.043  15.424  0.1013 -3.5227 -1.3274
 4254TIP3    H234254   6.507   2.109  15.378 -0.0265 -1.1286  2.2888
 4255TIP3   OH234255   0.008   2.376   0.571  0.2578 -0.3032 -0.2552
 4255TIP3    H134256   0.000   2.381   0.476 -1.3711 -1.0058 -0.1702
 4255TIP3    H234257  -0.072   2.416   0.604  0.2886 -1.0903  0.8097
 4256TIP3   OH234258   3.485   5.315   0.227  0.1607 -0.0040 -0.2465
 4256TIP3    H134259   3.435   5.340   0.149  0.2662 -0.4811 -0.4720
 4256TIP3    H234260   3.525   5.396   0.257 -1.9130  0.6698  0.7762
 4257TIP3   OH234261   3.581   4.458  17.231 -0.2459  0.1449 -0.0288
 4257TIP3    H134262   3.556   4.448  17.323 -3.1628 -3.2135 -1.0759
 4257TIP3    H234263   3.538   4.539  17.203  0.8545  1.3076  1.5984
 4258TIP3   OH234264   4.240   4.972  15.203  0.5202 -0.1403 -0.5470
 4258TIP3    H134265   4.185   5.046  15.177  0.4358  0.0151  0.0693
 4258TIP3    H234266   4.272   4.936  15.120  0.2330  0.3358 -0.8684
 4259TIP3   OH234267   3.116   4.972   5.703  0.4251 -0.3763 -0.0400
 4259TIP3    H134268   3.116   5.022   5.621 -0.4093 -0.1147  0.1235
 4259TIP3    H234269   3.130   4.882   5.676  4.5894  0.1768 -0.1856
 4260TIP3   OH234270   4.050   4.361  11.424  0.0463  0.1744 -0.0593
 4260TIP3    H134271   4.137   4.356  11.464 -0.8175  0.9249  1.9951
 4260TIP3    H234272   3.990   4.369  11.499 -1.6133  1.8124 -1.5285
 4261TIP3   OH234273   1.988   6.158  16.926 -0.4470 -0.3954 -0.1847
 4261TIP3    H134274   1.931   6.115  16.863 -0.3977  0.5862 -0.8996
 4261TIP3    H234275   2.076   6.127  16.904 -0.5111 -0.6358 -0.1107
 4262TIP3   OH234276   0.710   1.816   1.184  0.7452  0.2477 -0.2329
 4262TIP3    H134277   0.717   1.723   1.164 -0.3863 -0.1877  1.3448
 4262TIP3    H234278   0.627   1.825   1.230  0.8983  2.0281 -0.2612
 4263TIP3   OH234279   0.381   0.172  10.477 -0.2879  0.5158 -0.0829
 4263TIP3    H134280   0.333   0.189  10.396  0.6901 -0.3127 -0.8542
 4263TIP3    H234281   0.440   0.100  10.454 -0.5029 -0.1933  1.5644
 4264TIP3   OH234282   0.574   6.131  16.715 -0.3518 -0.0494  0.0327
 4264TIP3    H134283   0.610   6.213  16.748 -0.7574  0.3840 -0.5769
 4264TIP3    H234284   0.647   6.089  16.670 -0.6808  1.0245 -1.5702
 4265TIP3   OH234285   0.738   6.602  15.099  0.2491  0.1868 -0.0951
 4265TIP3    H134286   0.809   6.649  15.141 -1.0947 -0.2554  2.8604
 4265TIP3    H234287   0.777   6.521  15.068  1.2263  0.3845  0.6217
 4266TIP3   OH234288   0.528   1.542  17.213 -0.1791  0.1547  0.5670
 4266TIP3    H134289   0.516   1.542  17.308  1.5997 -2.0484  0.8081
 4266TIP3    H234290   0.567   1.628  17.194  0.2453  0.2733  1.9198
 4267TIP3   OH234291   6.797   2.557  16.949  0.0948 -0.1841 -0.1836
 4267TIP3    H134292   6.730   2.506  16.903 -1.0559 -0.0021  1.2467
 4267TIP3    H234293   6.820   2.627  16.888 -1.1067 -0.1777 -0.6548
 4268TIP3   OH234294   6.057   0.477  12.347 -0.1993  0.0799 -0.3005
 4268TIP3    H134295   6.143   0.477  12.390  0.0331  0.0164 -0.7640
 4268TIP3    H234296   6.041   0.568  12.324 -0.5523  0.1929  0.3637
 4269TIP3   OH234297   3.693   1.469  16.744 -0.0235  0.3056 -0.4937
 4269TIP3    H134298   3.719   1.466  16.836 -0.7043 -1.0676 -0.3324
 4269TIP3    H234299   3.611   1.420  16.740 -0.3239  0.8811 -1.7289
 4270TIP3   OH234300   0.490   3.557  12.774 -0.2340 -0.3671 -0.2869
 4270TIP3    H134301   0.556   3.546  12.705  1.4072  1.1311  1.0013
 4270TIP3    H234302   0.534   3.526  12.853 -1.4948 -0.4290  0.3932
 4271TIP3   OH234303   2.502   0.332   3.450  0.2025  0.0960  0.0261
 4271TIP3    H134304   2.483   0.243   3.482 -0.6428 -0.6530 -2.4547
 4271TIP3    H234305   2.593   0.348   3.477  0.1596 -1.2644  1.0408
 4272TIP3   OH234306   2.387   2.333   2.959 -0.0321  0.4616 -0.6558
 4272TIP3    H134307   2.295   2.313   2.971  0.2853 -0.9888 -0.5917
 4272TIP3    H234308   2.423   2.335   3.048  0.2548 -0.2112 -0.7591
 4273TIP3   OH234309   5.312   4.825   1.522  0.2076 -0.0547  0.0481
 4273TIP3    H134310   5.289   4.767   1.449  0.5557 -0.1623  0.0244
 4273TIP3    H234311   5.348   4.766   1.588 -1.5647 -0.1719  0.9294
 4274TIP3   OH234312   0.365   2.235  13.086 -0.2630  0.1946 -0.4453
 4274TIP3    H134313   0.364   2.169  13.156 -1.5469  2.3512  1.6111
 4274TIP3    H234314   0.458   2.251  13.070  0.0403 -0.5161  0.5424
 4275TIP3   OH234315   4.478   0.244   0.321 -0.4420 -0.2447 -0.0226
 4275TIP3    H134316   4.510   0.322   0.275  0.6235  0.2684  1.5403
 4275TIP3    H234317   4.557   0.198   0.347 -1.0602 -1.1478  0.2501
 4276TIP3   OH234318   5.671   5.484  11.917  0.2104 -0.2810  0.3493
 4276TIP3    H134319   5.624   5.504  11.998 -1.6222  0.2359 -0.8341
 4276TIP3    H234320   5.664   5.564  11.864  0.3467 -1.0321 -0.8225
 4277TIP3   OH234321   4.964   5.117   2.680  0.2992 -0.4241 -0.5493
 4277TIP3    H134322   5.049   5.101   2.639  1.6290  0.8251  1.5804
 4277TIP3    H234323   4.934   5.030   2.708  1.5715 -0.7136 -0.0478
 4278TIP3   OH234324   5.838   5.026  14.789  0.5689 -0.2532 -0.2767
 4278TIP3    H134325   5.913   5.031  14.848  1.6941 -0.0515 -1.7108
 4278TIP3    H234326   5.802   4.939  14.803 -0.0351  0.2966  1.7377
 4279TIP3   OH234327   5.033   1.794   5.839 -0.1507 -0.1239  0.3581
 4279TIP3    H134328   5.048   1.871   5.892 -1.0653 -0.2384  0.7769
 4279TIP3    H234329   4.949   1.759   5.868 -1.0599  0.2491 -1.6718
 4280TIP3   OH234330   0.222   3.535   0.593  0.0873  0.0260  0.3452
 4280TIP3    H134331   0.157   3.471   0.565  0.8633  0.1464 -1.8719
 4280TIP3    H234332   0.275   3.489   0.658 -0.6123 -0.9237  0.2424
 4281TIP3   OH234333   2.384   0.122  16.052 -0.1741 -0.2406  0.2787
 4281TIP3    H134334   2.343   0.174  15.983 -0.7034 -0.1066  0.6835
 4281TIP3    H234335   2.422   0.047  16.007  1.7462  1.1685 -0.4704
 4282TIP3   OH234336   5.705   0.725   3.616 -0.6035 -0.1401 -0.3302
 4282TIP3    H134337   5.637   0.786   3.588  0.6537  0.8406 -1.3561
 4282TIP3    H234338   5.708   0.659   3.546 -1.4939 -1.0036  0.4383
 4283TIP3   OH234339   5.949   2.024   3.579 -0.5367  0.2783  0.2403
 4283TIP3    H134340   5.924   1.932   3.575 -1.8980  0.6895 -1.8117
 4283TIP3    H234341   5.997   2.039   3.497 -2.2749  1.9205 -0.5150
 4284TIP3   OH234342   1.687   4.267   4.580 -0.1540  0.7943  0.3995
 4284TIP3    H134343   1.652   4.340   4.529 -0.9323  0.5264  0.5356
 4284TIP3    H234344   1.646   4.189   4.542 -1.1072  0.6269  1.6915
 4285TIP3   OH234345   5.238   5.232  13.887 -0.4458 -0.8817  0.0230
 4285TIP3    H134346   5.200   5.320  13.894 -1.9595 -1.5458  0.3665
 4285TIP3    H234347   5.302   5.227  13.958  0.1487  0.1737 -0.4235
 4286TIP3   OH234348   0.188   1.603  14.684  0.3253  0.1704 -0.6785
 4286TIP3    H134349   0.141   1.585  14.765 -0.2281  3.2520 -0.2483
 4286TIP3    H234350   0.129   1.574  14.614 -1.0898  1.5164 -0.0703
 4287TIP3   OH234351   4.756   3.085   2.559  0.0577 -0.2587  0.3376
 4287TIP3    H134352   4.662   3.095   2.567  0.1143  0.5726 -0.1031
 4287TIP3    H234353   4.793   3.166   2.593  0.6569 -0.9937  1.4966
 4288TIP3   OH234354   0.581   2.788   5.889 -0.8451  0.2396  0.2006
 4288TIP3    H134355   0.651   2.778   5.825  0.3762  1.0791  1.3798
 4288TIP3    H234356   0.513   2.836   5.843 -0.8460 -0.9558 -1.0872
 4289TIP3   OH234357   2.603   3.643   2.539  0.3078 -0.1969  0.1177
 4289TIP3    H134358   2.677   3.614   2.592 -0.4894  1.2238  2.0648
 4289TIP3    H234359   2.627   3.732   2.512  0.5805 -0.8009 -1.6957
 4290TIP3   OH234360   2.740   4.355   1.101 -0.2483  0.1039 -0.4450
 4290TIP3    H134361   2.732   4.297   1.025 -2.0535  0.4925 -0.5730
 4290TIP3    H234362   2.826   4.333   1.139  0.2850 -0.7001 -2.0787
 4291TIP3   OH234363   4.306   3.044  10.286  0.9233 -0.1706  0.3114
 4291TIP3    H134364   4.297   3.125  10.235  1.8614  0.6510  1.4122
 4291TIP3    H234365   4.290   2.974  10.223  1.0783  0.8441 -0.8784
 4292TIP3   OH234366   4.087   5.967   4.842 -0.3893  0.0338 -0.1380
 4292TIP3    H134367   4.038   5.952   4.761  1.1359  0.3914 -1.1334
 4292TIP3    H234368   4.128   5.883   4.863  1.0061  0.5084 -0.9401
 4293TIP3   OH234369   0.868   6.659  17.215 -0.0232 -0.5972 -0.2411
 4293TIP3    H134370   0.920   6.592  17.259  0.2645 -0.9207 -1.0576
 4293TIP3    H234371   0.778   6.627  17.220 -0.0437 -0.4301  0.4695
 4294TIP3   OH234372   2.474   3.305  16.385  0.5617  0.3180 -0.1940
 4294TIP3    H134373   2.408   3.354  16.336  0.5514  0.6610  0.1619
 4294TIP3    H234374   2.542   3.287  16.320 -0.0995 -0.4610 -0.6829
 4295TIP3   OH234375   2.072   3.790   2.275  0.4270 -0.1310 -0.4114
 4295TIP3    H134376   2.091   3.878   2.241 -0.2763  0.9731  1.9650
 4295TIP3    H234377   2.158   3.750   2.288  0.7339 -0.2466 -2.5648
 4296TIP3   OH234378   0.175   2.276   2.282  0.3780 -0.0033 -0.3222
 4296TIP3    H134379   0.214   2.220   2.215  0.5566  2.2915 -2.1524
 4296TIP3    H234380   0.123   2.340   2.234  2.4369  3.2011  1.5126
 4297TIP3   OH234381   2.068   1.008   0.887  0.1340  0.0567  0.0412
 4297TIP3    H134382   2.162   1.020   0.889  0.3337 -1.4358  0.2507
 4297TIP3    H234383   2.039   1.058   0.811  0.9986  1.0968  0.3901
 4298TIP3   OH234384   2.515   2.436  11.204  0.0224  0.8464  0.3662
 4298TIP3    H134385   2.576   2.487  11.257  1.8727 -1.3374  0.4449
 4298TIP3    H234386   2.471   2.379  11.268  0.5723 -0.1334 -0.1013
 4299TIP3   OH234387   4.282   1.651   2.659 -0.0780 -0.5323 -0.5976
 4299TIP3    H134388   4.229   1.711   2.711  0.9114  0.8647 -1.1639
 4299TIP3    H234389   4.369   1.653   2.700  0.5553  0.1449 -1.9555
 4300TIP3   OH234390   1.852   2.249   3.822 -0.4279 -0.0971  0.6853
 4300TIP3    H134391   1.893   2.246   3.736 -1.2924  3.1439  0.0816
 4300TIP3    H234392   1.903   2.313   3.871 -1.0596 -0.5556  1.9832
 4301TIP3   OH234393   3.368   4.232   0.225 -0.1488  0.0761  0.4663
 4301TIP3    H134394   3.277   4.238   0.197  0.2661  0.4722 -0.8216
 4301TIP3    H234395   3.363   4.222   0.320 -1.6003 -1.7533  0.2396
 4302TIP3   OH234396   5.163   0.061  12.917 -0.0185 -0.1369 -0.1912
 4302TIP3    H134397   5.145  -0.033  12.909 -0.6712 -0.1488  1.1837
 4302TIP3    H234398   5.108   0.102  12.850 -0.4789 -0.6706 -0.1438
 4303TIP3   OH234399   5.068   1.098  13.079  0.1734  0.2579  0.8070
 4303TIP3    H134400   5.012   1.112  13.003 -0.5541  1.0428  1.4802
 4303TIP3    H234401   5.017   1.132  13.153  2.1997  2.5490  1.2148
 4304TIP3   OH234402   5.134   6.625  13.600 -0.0797  0.2951 -0.2657
 4304TIP3    H134403   5.122   6.690  13.669 -1.1247 -1.0548  0.8414
 4304TIP3    H234404   5.058   6.637  13.542  1.3024  2.1013 -1.7888
 4305TIP3   OH234405   5.707   4.895   4.178 -0.2147  0.1037 -0.2570
 4305TIP3    H134406   5.667   4.900   4.265  0.1220 -1.9396  0.0433
 4305TIP3    H234407   5.799   4.872   4.196 -0.2784 -0.8860 -1.1785
 4306TIP3   OH234408   2.779   4.124  12.874  0.1625 -0.3051 -0.1264
 4306TIP3    H134409   2.691   4.144  12.841  0.1725 -0.6532 -0.3605
 4306TIP3    H234410   2.791   4.186  12.946 -2.1271 -3.2968  3.0254
 4307TIP3   OH234411   2.495   5.989   3.176  0.1434 -0.7535 -0.3603
 4307TIP3    H134412   2.420   6.041   3.204  0.1153  0.5786 -2.7551
 4307TIP3    H234413   2.569   6.025   3.225 -0.6831 -1.9206  1.8386
 4308TIP3   OH234414   4.051   4.175   1.473  0.0066 -0.0591 -0.1555
 4308TIP3    H134415   3.995   4.252   1.464 -0.0445 -0.2199 -1.2731
 4308TIP3    H234416   4.128   4.195   1.420 -0.8804 -1.5751 -2.0622
 4309TIP3   OH234417   3.911   4.146   4.865  0.3222 -0.0242  0.0164
 4309TIP3    H134418   3.988   4.135   4.809 -0.6559 -1.6710 -1.0390
 4309TIP3    H234419   3.851   4.200   4.813  0.5061  0.7580  0.6019
 4310TIP3   OH234420   1.958   1.672  16.130 -0.2524  0.1447  0.0262
 4310TIP3    H134421   1.905   1.641  16.204 -1.0334  1.7523  0.1691
 4310TIP3    H234422   1.931   1.617  16.056  0.2935 -1.2584  0.8497
 4311TIP3   OH234423   2.521   0.034  14.612  0.1641  0.0464 -0.3888
 4311TIP3    H134424   2.589   0.093  14.644  0.1355  0.7956 -1.7070
 4311TIP3    H234425   2.439   0.080  14.632  0.1523  0.6027 -1.7039
 4312TIP3   OH234426   3.705   4.162   2.854 -0.5210  0.6356  0.2640
 4312TIP3    H134427   3.728   4.160   2.761  0.1940  1.6882  0.4042
 4312TIP3    H234428   3.674   4.251   2.869 -1.9823  0.0612  0.7381
 4313TIP3   OH234429   4.765   2.048   2.532  0.4354 -0.7295  0.4023
 4313TIP3    H134430   4.813   2.013   2.457  0.0383 -1.3498  0.4342
 4313TIP3    H234431   4.718   2.124   2.498  0.0645 -1.1543 -0.0360
 4314TIP3   OH234432   2.703   4.745  14.822  0.1877 -0.0862 -0.2746
 4314TIP3    H134433   2.750   4.789  14.752 -1.0876 -0.6592 -1.5311
 4314TIP3    H234434   2.668   4.666  14.781 -1.9308  0.3711  0.5836
 4315TIP3   OH234435   0.047   2.478  12.198 -0.1377 -0.4039  0.1977
 4315TIP3    H134436  -0.023   2.507  12.140 -1.1306 -0.8356  1.1574
 4315TIP3    H234437   0.127   2.493  12.148 -1.0843 -2.9787 -2.2514
 4316TIP3   OH234438   6.110   3.221  12.245 -0.4194 -0.2861 -0.0391
 4316TIP3    H134439   6.169   3.197  12.317  1.1557 -0.6474 -1.4216
 4316TIP3    H234440   6.131   3.313  12.227  0.8836 -0.8753 -1.6009
 4317TIP3   OH234441   4.750   3.860  13.978 -0.1882 -0.2092  0.1704
 4317TIP3    H134442   4.660   3.858  13.946  0.0207 -0.0409 -0.4442
 4317TIP3    H234443   4.772   3.953  13.982 -0.0554 -0.2484  0.3638
 4318TIP3   OH234444   3.176   6.588  15.174 -0.3470  0.1669 -0.1555
 4318TIP3    H134445   3.124   6.648  15.227 -0.8685 -1.0108  0.6928
 4318TIP3    H234446   3.150   6.501  15.204  1.3235 -0.4649 -0.4717
 4319TIP3   OH234447   3.621   4.972  10.740  0.3682 -0.4400 -0.0575
 4319TIP3    H134448   3.557   4.948  10.807  0.2522  0.2880  0.0871
 4319TIP3    H234449   3.569   4.986  10.661  0.1115  2.0566  0.5132
 4320TIP3   OH234450   6.536   3.335   3.849  0.2734  0.5988 -0.1190
 4320TIP3    H134451   6.494   3.254   3.819  0.8238 -0.3894  1.6860
 4320TIP3    H234452   6.624   3.307   3.875  0.3476  1.7232  0.8516
 4321TIP3   OH234453   3.608   5.005   1.481 -0.3972 -0.3289 -0.2529
 4321TIP3    H134454   3.552   4.945   1.431 -1.2307 -1.0749  1.5208
 4321TIP3    H234455   3.695   4.966   1.477 -0.3858 -0.2246 -1.3449
 4322TIP3   OH234456   1.411   0.485   4.156 -0.3057  0.6215 -0.3191
 4322TIP3    H134457   1.478   0.417   4.151 -1.5975 -0.6995  0.1757
 4322TIP3    H234458   1.395   0.510   4.064  0.3130  0.3998 -0.4874
 4323TIP3   OH234459   4.385   0.707  16.163 -0.0203 -0.0780  0.0581
 4323TIP3    H134460   4.460   0.718  16.104 -0.3060  0.6104 -0.1785
 4323TIP3    H234461   4.353   0.619  16.144  0.4298 -0.1935 -0.1872
 4324TIP3   OH234462   0.120   2.172  12.155  0.0118 -0.0210 -0.6157
 4324TIP3    H134463   0.068   2.199  12.231 -0.6637 -0.3718 -0.9598
 4324TIP3    H234464   0.058   2.129  12.097  0.8802 -1.4342 -0.5240
 4325TIP3   OH234465   0.929   2.257   0.234  0.1329 -0.4896  0.9288
 4325TIP3    H134466   0.928   2.197   0.159 -0.9007  0.3280  0.2745
 4325TIP3    H234467   0.839   2.257   0.266  0.4806 -0.5148  1.9184
 4326TIP3   OH234468   0.852   3.865  12.363  0.5514 -0.5324 -0.6337
 4326TIP3    H134469   0.930   3.869  12.308  0.4180 -0.1670 -0.7986
 4326TIP3    H234470   0.805   3.945  12.343  0.9974  0.0853  0.7714
 4327TIP3   OH234471   4.329   2.373  13.448  0.4364  0.0177 -0.1245
 4327TIP3    H134472   4.353   2.370  13.356  1.3761  0.3757  0.1095
 4327TIP3    H234473   4.335   2.282  13.478 -1.0057 -0.2873 -0.6925
 4328TIP3   OH234474   0.714   0.363  12.154 -0.2115  0.1792 -0.6227
 4328TIP3    H134475   0.725   0.284  12.101  0.5114 -0.1943  0.0508
 4328TIP3    H234476   0.634   0.348  12.204  0.6597 -0.7757  0.5457
 4329TIP3   OH234477   1.717   6.274   4.323 -0.0970  0.1664  0.4482
 4329TIP3    H134478   1.653   6.216   4.364  0.4781  0.2969  1.5639
 4329TIP3    H234479   1.757   6.221   4.254 -1.5867  0.1752 -0.4574
 4330TIP3   OH234480   0.899   3.920  13.251 -0.0423 -0.3793 -0.7331
 4330TIP3    H134481   0.805   3.936  13.248 -0.2925 -1.3439  1.0774
 4330TIP3    H234482   0.913   3.875  13.334  2.0027 -0.3871 -1.0503
 4331TIP3   OH234483   3.489   3.334  10.078 -0.1468  0.0502 -0.8331
 4331TIP3    H134484   3.538   3.336  10.160  1.4431  0.1726 -1.7626
 4331TIP3    H234485   3.424   3.404  10.088  1.5437  1.6274 -0.5697
 4332TIP3   OH234486   0.930   0.416  10.688 -0.6467  0.4562  0.5057
 4332TIP3    H134487   0.960   0.326  10.683 -0.5245  0.5671 -1.0063
 4332TIP3    H234488   1.000   0.463  10.734  0.0586  0.0936 -0.1853
 4333TIP3   OH234489   3.605   5.615  16.119 -0.0872 -0.8476 -0.3556
 4333TIP3    H134490   3.666   5.680  16.086 -0.3954 -0.9978 -1.2425
 4333TIP3    H234491   3.518   5.652  16.101 -0.3107  0.2264  2.5760
 4334TIP3   OH234492   3.038   0.444  15.219  0.2891  0.2592  0.6082
 4334TIP3    H134493   3.120   0.397  15.230 -1.7805 -3.8216 -0.5419
 4334TIP3    H234494   3.042   0.479  15.130  0.8159  0.2035  0.6070
 4335TIP3   OH234495   2.896   4.268   5.240  0.4591 -0.1121 -0.4477
 4335TIP3    H134496   2.983   4.275   5.201 -0.1228  2.4581 -1.3869
 4335TIP3    H234497   2.874   4.174   5.234  2.1339 -0.4068 -2.4567
 4336TIP3   OH234498   5.270   4.312  12.072  0.0888 -0.2738 -0.4398
 4336TIP3    H134499   5.318   4.326  12.154  0.0805 -1.2953 -0.2538
 4336TIP3    H234500   5.293   4.222  12.046  0.8613  0.3775 -2.0732
 4337TIP3   OH234501   6.353   1.830  11.486 -0.3118 -0.4738 -0.6435
 4337TIP3    H134502   6.298   1.890  11.437  0.1195 -0.7665 -1.4928
 4337TIP3    H234503   6.300   1.804  11.561 -0.6787  0.5842 -0.5347
 4338TIP3   OH234504   2.235   3.294   4.223 -0.7090 -0.4701  0.1005
 4338TIP3    H134505   2.303   3.243   4.267 -0.2037  0.5987  0.5758
 4338TIP3    H234506   2.153   3.266   4.263 -0.2823  0.2767  1.5217
 4339TIP3   OH234507   6.222   5.137  13.839  0.1751 -0.5914  0.4022
 4339TIP3    H134508   6.220   5.118  13.745  0.4397  0.8849  0.0889
 4339TIP3    H234509   6.158   5.077  13.877 -1.2261  0.0166 -0.9536
 4340TIP3   OH234510   4.471   4.777  16.033  0.1978 -0.5921  0.0183
 4340TIP3    H134511   4.496   4.691  16.068  5.8654  0.5968 -0.7833
 4340TIP3    H234512   4.481   4.769  15.939  1.6679  1.2039  0.0056
 4341TIP3   OH234513   1.761   5.522   3.055 -0.2183  0.2199  0.4384
 4341TIP3    H134514   1.810   5.551   2.978  0.2427 -0.3900  0.4896
 4341TIP3    H234515   1.694   5.464   3.019 -1.1770  1.3954  0.3293
 4342TIP3   OH234516   3.331   3.964  15.781  0.1034  0.1478 -0.1796
 4342TIP3    H134517   3.360   3.979  15.690  1.9537 -0.2730  0.3082
 4342TIP3    H234518   3.350   4.046  15.825  1.9178 -0.5925  0.4674
 4343TIP3   OH234519   4.031   0.049  13.893  0.3217 -0.2793  0.2237
 4343TIP3    H134520   3.995  -0.038  13.904 -0.1553 -0.1599 -0.4186
 4343TIP3    H234521   3.987   0.085  13.817  1.1900  0.1767 -0.0781
 4344TIP3   OH234522   1.330   3.877   2.024  0.4578  0.5938  0.1835
 4344TIP3    H134523   1.411   3.847   1.984  0.8847 -0.5891  1.8745
 4344TIP3    H234524   1.264   3.868   1.955  1.7613  1.6602 -1.2363
 4345TIP3   OH234525   6.586   5.472   5.719 -0.0512  0.5745  0.8602
 4345TIP3    H134526   6.619   5.560   5.739 -1.3011  0.5671  3.0742
 4345TIP3    H234527   6.491   5.482   5.717 -0.2409 -0.8884  1.8946
 4346TIP3   OH234528   2.660   6.413  16.808  0.0558 -0.0945 -0.0348
 4346TIP3    H134529   2.608   6.358  16.866 -1.5833  1.3690 -0.0743
 4346TIP3    H234530   2.602   6.485  16.784  1.7899  1.0733 -0.8630
 4347TIP3   OH234531   2.547   1.953  11.803  0.3642 -0.2969  0.5868
 4347TIP3    H134532   2.463   1.979  11.764  0.8926  1.9004  0.8568
 4347TIP3    H234533   2.529   1.946  11.896  0.2971 -0.6149  0.5515
 4348TIP3   OH234534   5.410   2.943   3.729  0.0476 -0.2670  0.1110
 4348TIP3    H134535   5.498   2.909   3.709 -0.0394 -1.0230  1.0163
 4348TIP3    H234536   5.364   2.940   3.645  1.1537  0.9646 -0.5746
 4349TIP3   OH234537   4.932   1.834  16.227  0.5814  0.3748 -0.2696
 4349TIP3    H134538   4.981   1.842  16.145  1.8195  1.4534  0.5658
 4349TIP3    H234539   4.994   1.858  16.295 -0.5253 -0.2430  0.9788
 4350TIP3   OH234540   1.542   1.397   0.886 -0.0568  0.2753  0.1539
 4350TIP3    H134541   1.570   1.344   0.811 -0.3032 -0.3572  0.5043
 4350TIP3    H234542   1.487   1.465   0.848 -1.6731 -1.1091 -0.0730
 4351TIP3   OH234543   0.010   5.476   0.271 -0.1029  0.2467  0.2176
 4351TIP3    H134544   0.003   5.468   0.366 -0.4821  0.6935  0.2314
 4351TIP3    H234545  -0.029   5.562   0.251  1.2973  0.7984 -0.1919
 4352TIP3   OH234546   2.139   4.530  13.543 -0.3704 -0.7590  0.3760
 4352TIP3    H134547   2.183   4.473  13.480 -0.8105 -1.2071  0.4705
 4352TIP3    H234548   2.126   4.475  13.621 -2.1744 -1.0054 -0.0750
 4353TIP3   OH234549   6.725   5.384  16.987  0.2390  0.1887  0.0807
 4353TIP3    H134550   6.748   5.423  17.071  1.9371 -0.2608 -0.1698
 4353TIP3    H234551   6.783   5.426  16.924 -1.0750  0.5870 -0.9036
 4354TIP3   OH234552   4.940   4.448  16.791 -0.3844  0.0755  0.2449
 4354TIP3    H134553   5.027   4.475  16.820 -0.0832 -1.1194  0.4463
 4354TIP3    H234554   4.956   4.387  16.719 -1.0947  1.1383 -0.8459
 4355TIP3   OH234555   3.190   0.566  15.702 -0.4293 -0.2652  0.2972
 4355TIP3    H134556   3.161   0.658  15.702 -0.2393 -0.1899 -1.1844
 4355TIP3    H234557   3.208   0.547  15.610  2.8087 -0.7594  0.9875
 4356TIP3   OH234558   1.836   1.604  17.046  0.0909  0.8822 -0.0551
 4356TIP3    H134559   1.836   1.511  17.025 -0.2973  0.8401  0.1236
 4356TIP3    H234560   1.880   1.611  17.131 -1.9634  0.5900  1.0695
 4357TIP3   OH234561   1.653   5.774   5.787  0.1204 -0.4190 -0.1977
 4357TIP3    H134562   1.624   5.704   5.728  0.1746 -1.9454  1.5568
 4357TIP3    H234563   1.739   5.745   5.817 -0.6522 -0.5107  1.9746
 4358TIP3   OH234564   0.508   5.556   4.892 -0.3604 -0.3076 -0.5242
 4358TIP3    H134565   0.531   5.471   4.930  0.2331  1.1965  2.6960
 4358TIP3    H234566   0.433   5.585   4.943 -0.2313  1.3500 -1.2586
 4359TIP3   OH234567   1.732   2.946  16.076  1.0793  0.2413 -1.0756
 4359TIP3    H134568   1.808   2.888  16.080  1.0667  0.3399  2.9093
 4359TIP3    H234569   1.768   3.033  16.094  0.1908  0.4693 -0.3844
 4360TIP3   OH234570   0.501   6.782  11.929 -0.3571  0.0213 -0.2131
 4360TIP3    H134571   0.487   6.738  12.013  1.7254  1.3115  0.8523
 4360TIP3    H234572   0.588   6.754  11.901 -0.8229  0.0069 -1.6974
 4361TIP3   OH234573   0.746   3.743   3.899  0.4714  0.2232 -0.0942
 4361TIP3    H134574   0.761   3.804   3.971  0.3256  0.3059 -0.1345
 4361TIP3    H234575   0.651   3.731   3.897  0.5501 -0.5007  0.3292
 4362TIP3   OH234576   1.510   5.980  14.707  0.4484 -0.4519  0.2299
 4362TIP3    H134577   1.604   5.996  14.711  0.2169  0.9556  0.3671
 4362TIP3    H234578   1.488   5.988  14.615  0.3394 -0.0352  0.2916
 4363TIP3   OH234579   2.674   5.824  14.388 -0.1027  0.0640  0.0446
 4363TIP3    H134580   2.605   5.869  14.338 -0.2522  0.1427  0.3188
 4363TIP3    H234581   2.648   5.836  14.479 -0.0429 -0.4185  0.1281
 4364TIP3   OH234582   2.797   5.763  11.568 -0.1855  0.1581 -0.3050
 4364TIP3    H134583   2.862   5.704  11.607 -1.0420 -0.2669  0.5208
 4364TIP3    H234584   2.822   5.850  11.598  0.1552  0.0211 -0.1909
 4365TIP3   OH234585   1.015   2.073  13.929  0.7080 -0.1446  0.3105
 4365TIP3    H134586   0.966   2.149  13.962 -0.1924  0.5209 -2.4278
 4365TIP3    H234587   1.107   2.100  13.935  0.3769  1.3068 -0.9794
 4366TIP3   OH234588   5.503   5.858   0.199 -0.6617  0.2642 -0.1866
 4366TIP3    H134589   5.436   5.830   0.137 -0.5178  0.5950 -0.4991
 4366TIP3    H234590   5.465   5.841   0.285 -1.0657  0.2594 -0.3627
 4367TIP3   OH234591   3.266   5.461   5.587 -0.3726 -0.2633 -0.4773
 4367TIP3    H134592   3.263   5.552   5.614 -3.0252 -0.6351  0.6510
 4367TIP3    H234593   3.329   5.459   5.515  0.6358  2.2092  0.2793
 4368TIP3   OH234594   2.823   0.713  16.644 -0.0476 -0.1747 -0.3197
 4368TIP3    H134595   2.825   0.807  16.632 -0.8510 -0.1587 -0.3706
 4368TIP3    H234596   2.902   0.681  16.600 -0.0869  0.4123 -0.8189
 4369TIP3   OH234597   0.212   1.642   0.084 -0.9710 -0.4470 -0.4462
 4369TIP3    H134598   0.177   1.660   0.172  0.7858 -1.0253  0.3906
 4369TIP3    H234599   0.307   1.643   0.095 -0.6782  0.8987 -2.6470
 4370TIP3   OH234600   2.715   6.039   0.084 -0.4883 -0.4102  0.1014
 4370TIP3    H134601   2.759   6.042   0.169 -1.6086  0.7260  0.6515
 4370TIP3    H234602   2.626   6.012   0.103 -0.7220 -0.2600 -0.7319
 4371TIP3   OH234603   4.104   6.712   0.089  0.3318  0.1486  0.0486
 4371TIP3    H134604   4.069   6.630   0.054 -1.0741  1.0849 -0.7769
 4371TIP3    H234605   4.190   6.688   0.123 -0.3984 -1.8434  0.5783
 4372TIP3   OH234606   5.013   1.647   3.932  0.2099 -0.0046 -0.5069
 4372TIP3    H134607   5.074   1.575   3.951  1.5552  1.8331  2.6237
 4372TIP3    H234608   5.070   1.723   3.917 -1.2554  1.2336  0.1254
 4373TIP3   OH234609   0.459   2.987  11.132 -0.2165 -0.3762 -0.2332
 4373TIP3    H134610   0.469   3.010  11.040 -1.0457 -0.9425 -0.4692
 4373TIP3    H234611   0.542   2.944  11.155  0.2542  0.3691 -0.5258
 4374TIP3   OH234612   5.818   5.375   1.211 -0.1304 -0.0758  0.0355
 4374TIP3    H134613   5.888   5.427   1.173 -0.9798  0.3784 -0.9442
 4374TIP3    H234614   5.833   5.378   1.305  1.1436  0.0360 -0.1711
 4375TIP3   OH234615   5.383   2.219  10.962  0.1640 -0.0605  0.4011
 4375TIP3    H134616   5.293   2.248  10.971  0.4687  1.9377 -2.2181
 4375TIP3    H234617   5.424   2.241  11.046 -1.4787  0.1398  1.1661
 4376TIP3   OH234618   6.495   6.317  11.490 -0.0339  0.3313  0.1444
 4376TIP3    H134619   6.529   6.359  11.569  1.1490  0.2728 -0.3249
 4376TIP3    H234620   6.571   6.277  11.449 -0.9464 -1.2362 -0.0593
 4377TIP3   OH234621   1.515   1.938  10.974  0.4777  0.6303 -0.2770
 4377TIP3    H134622   1.462   2.012  10.946  0.5376 -0.0221 -2.1539
 4377TIP3    H234623   1.603   1.958  10.944  0.8844  0.6666  0.8894
 4378TIP3   OH234624   1.830   1.873   3.259  0.5034  0.1627  0.2564
 4378TIP3    H134625   1.837   1.889   3.165 -2.2494 -1.4430 -0.2731
 4378TIP3    H234626   1.895   1.805   3.277 -2.0841 -2.8927 -1.4190
 4379TIP3   OH234627   4.019   6.379   5.583  0.5522 -0.0176  0.2618
 4379TIP3    H134628   4.086   6.364   5.650  1.3352 -0.7972 -0.6808
 4379TIP3    H234629   4.068   6.391   5.502 -0.4019  0.6784 -0.2295
 4380TIP3   OH234630   4.887   0.505   5.367  0.1811 -0.2948  0.0022
 4380TIP3    H134631   4.905   0.517   5.274  1.2661 -0.4129  0.1974
 4380TIP3    H234632   4.952   0.559   5.412  0.0219 -0.6779  0.7043
 4381TIP3   OH234633   5.097   6.675   4.991  0.1395 -0.0266  0.6398
 4381TIP3    H134634   5.109   6.686   5.085  0.2550 -0.2956  0.6584
 4381TIP3    H234635   5.020   6.619   4.983  0.3967 -0.3739  0.5871
 4382TIP3   OH234636   4.165   6.566  16.435 -0.6421  0.1226 -0.2356
 4382TIP3    H134637   4.111   6.533  16.363 -1.7429 -2.1955  1.5824
 4382TIP3    H234638   4.255   6.548  16.407 -1.0501 -0.6375 -1.1062
 4383TIP3   OH234639   1.491   5.184   5.078 -0.4553 -0.0710 -0.0276
 4383TIP3    H134640   1.567   5.232   5.112 -0.4899 -0.3020  0.3827
 4383TIP3    H234641   1.529   5.113   5.026 -0.3929 -0.1410  0.1142
 4384TIP3   OH234642   3.964   4.710  10.542  0.2183  0.1722  0.2552
 4384TIP3    H134643   4.011   4.761  10.476  0.7120  0.7345  1.0237
 4384TIP3    H234644   3.893   4.767  10.571 -0.9673 -0.6780 -0.9057
 4385TIP3   OH234645   5.037   4.644  13.565 -0.4882 -0.1640  0.2512
 4385TIP3    H134646   4.961   4.621  13.512  0.6591 -1.7165 -0.7918
 4385TIP3    H234647   5.081   4.560  13.581  0.1507  0.4994  2.1784
 4386TIP3   OH234648   1.217   5.670  10.977 -0.0013  0.4196 -0.4331
 4386TIP3    H134649   1.141   5.668  10.919  0.7652 -0.8585 -1.4199
 4386TIP3    H234650   1.254   5.757  10.966 -0.5895  0.6057 -0.9183
 4387TIP3   OH234651   0.648   2.147   0.124  0.8131  0.2460  0.0230
 4387TIP3    H134652   0.596   2.067   0.130 -1.7997  1.8227 -0.7278
 4387TIP3    H234653   0.732   2.118   0.090 -0.0806 -2.1894 -0.2308
 4388TIP3   OH234654   0.601   3.586   3.056 -0.2390 -0.0069 -0.2628
 4388TIP3    H134655   0.681   3.613   3.011  0.3827 -1.9073 -0.3333
 4388TIP3    H234656   0.631   3.530   3.128 -1.4314  0.1743  0.3909
 4389TIP3   OH234657   4.636   2.082  14.510  0.6087  0.7941  0.0898
 4389TIP3    H134658   4.646   1.987  14.500  1.6003  0.9143 -0.0877
 4389TIP3    H234659   4.637   2.116  14.421 -0.3761  0.9215  0.1180
 4390TIP3   OH234660   3.721   5.593   4.386 -0.0079  0.1607 -0.3681
 4390TIP3    H134661   3.757   5.630   4.467 -3.0029 -1.0432  1.6010
 4390TIP3    H234662   3.666   5.663   4.350  1.7017  0.8674 -1.6686
 4391TIP3   OH234663   3.907   6.309  12.275 -0.2041  0.3751  0.7012
 4391TIP3    H134664   3.983   6.335  12.328 -1.2142  0.1979  2.2582
 4391TIP3    H234665   3.835   6.363  12.307 -0.6372  0.9509 -1.1570
 4392TIP3   OH234666   3.301   2.571  13.558  0.2368 -0.4397  0.2845
 4392TIP3    H134667   3.206   2.570  13.566  0.2724  0.8799  0.9840
 4392TIP3    H234668   3.333   2.553  13.646  0.6358 -1.2697 -0.0276
 4393TIP3   OH234669   2.479   1.803   2.257 -0.1490 -0.3613  0.1156
 4393TIP3    H134670   2.559   1.755   2.279 -0.4003 -0.1728  1.4981
 4393TIP3    H234671   2.489   1.886   2.303 -0.2515  0.4621 -1.3076
 4394TIP3   OH234672   4.243   2.448   5.685  0.0019  0.7367  0.2760
 4394TIP3    H134673   4.209   2.394   5.614  2.2789 -2.9221  1.8540
 4394TIP3    H234674   4.169   2.505   5.709 -2.1710 -1.0105 -2.0646
 4395TIP3   OH234675   0.544   3.926  17.091 -0.3114 -0.1961  0.1978
 4395TIP3    H134676   0.523   3.966  17.175  1.4963  0.8035  0.1963
 4395TIP3    H234677   0.510   3.988  17.026  0.2351  0.0970  0.1939
 4396TIP3   OH234678   5.299   2.262   0.027 -0.1545  0.4203 -0.2354
 4396TIP3    H134679   5.280   2.354   0.045 -1.5793 -0.1827  1.5366
 4396TIP3    H234680   5.394   2.258   0.018  0.0333  1.8796  0.8989
 4397TIP3   OH234681   3.675   1.256   2.683  0.3249 -0.2614  0.5873
 4397TIP3    H134682   3.598   1.289   2.638  0.9105  1.4196  0.7838
 4397TIP3    H234683   3.641   1.208   2.758 -0.5431 -0.4468  0.0822
 4398TIP3   OH234684   5.552   4.687   1.911 -0.5114 -0.0852  0.7020
 4398TIP3    H134685   5.628   4.631   1.927  0.3657  1.2380  1.2359
 4398TIP3    H234686   5.531   4.723   1.997 -0.2163  1.4695  0.1334
 4399TIP3   OH234687   2.250   2.272  13.357 -0.0595 -0.1750  0.3558
 4399TIP3    H134688   2.191   2.346  13.369  2.4689  1.8704  0.5601
 4399TIP3    H234689   2.310   2.277  13.432 -0.8432 -3.4240  1.2846
 4400TIP3   OH234690   5.920   2.704  16.172  0.3754  0.3269 -1.2044
 4400TIP3    H134691   5.972   2.783  16.186 -0.2598  0.3499  1.2566
 4400TIP3    H234692   5.896   2.675  16.260 -1.7738 -1.0303 -2.2019
 4401TIP3   OH234693   3.909   5.851   3.471  0.2313  0.5191  0.5845
 4401TIP3    H134694   3.999   5.830   3.495  0.6508  0.1220 -1.2253
 4401TIP3    H234695   3.917   5.892   3.384 -1.4619 -0.9489 -0.2835
 4402TIP3   OH234696   3.609   1.752   0.229  0.4052  0.2882 -0.0068
 4402TIP3    H134697   3.658   1.673   0.255  0.8007  0.4649 -0.2100
 4402TIP3    H234698   3.531   1.718   0.186  0.4556  0.0020  0.1237
 4403TIP3   OH234699   1.186   5.542   3.199 -0.6346 -0.1626  0.2079
 4403TIP3    H134700   1.247   5.480   3.240 -0.5631 -0.7476 -0.7687
 4403TIP3    H234701   1.127   5.487   3.147  0.3329  0.7004 -1.8501
 4404TIP3   OH234702   5.780   5.612  12.488 -0.3103  0.2475 -0.2575
 4404TIP3    H134703   5.736   5.629  12.572  0.5808 -0.2455  0.3167
 4404TIP3    H234704   5.838   5.538  12.506  0.8756  0.9978 -0.9666
 4405TIP3   OH234705   3.562   1.409   5.428 -0.2380 -0.0061  0.0000
 4405TIP3    H134706   3.636   1.442   5.479 -1.1078  0.6958  0.8299
 4405TIP3    H234707   3.559   1.464   5.350 -0.4204  0.5399  0.3898
 4406TIP3   OH234708   5.141   1.562  12.136  0.0003  0.4786 -0.3448
 4406TIP3    H134709   5.119   1.499  12.069  1.5802 -0.9525  0.4396
 4406TIP3    H234710   5.175   1.510  12.209  0.3899  2.1433  0.7137
 4407TIP3   OH234711   5.764   5.266  16.102 -0.0540 -0.3933  0.4745
 4407TIP3    H134712   5.821   5.342  16.099  0.4141 -0.7105  1.1834
 4407TIP3    H234713   5.747   5.253  16.195 -1.2325 -0.3343  0.2764
 4408TIP3   OH234714   1.759   3.251  15.459 -0.8179 -0.1483 -0.0511
 4408TIP3    H134715   1.776   3.212  15.544 -0.9816 -0.2356 -0.0591
 4408TIP3    H234716   1.718   3.182  15.408 -0.6513 -0.1202 -0.2259
 4409TIP3   OH234717   3.876   1.918   5.022 -0.3081 -0.0689 -0.7622
 4409TIP3    H134718   3.914   1.843   5.067 -0.8723 -0.6182 -1.1760
 4409TIP3    H234719   3.781   1.905   5.030 -0.4081  0.6253 -0.7955
 4410TIP3   OH234720   6.353   6.398   3.813  0.2110 -0.6964 -0.5160
 4410TIP3    H134721   6.286   6.403   3.882 -0.4147  0.4050 -1.1797
 4410TIP3    H234722   6.304   6.370   3.735  0.5906 -0.2390 -0.9180
 4411TIP3   OH234723   0.331   4.697  10.876  0.0604  0.3049  0.2562
 4411TIP3    H134724   0.304   4.788  10.864 -1.4283 -0.2639 -0.8801
 4411TIP3    H234725   0.423   4.696  10.851  0.1428  1.5263  0.4564
 4412TIP3   OH234726   4.316   4.923  11.585  0.0828 -0.8955 -0.6818
 4412TIP3    H134727   4.314   4.989  11.654 -0.5145 -1.3148 -0.2978
 4412TIP3    H234728   4.349   4.844  11.627 -0.1410 -1.1117 -0.9052
 4413TIP3   OH234729   4.143   1.322  13.176  0.0196  0.0733 -0.0081
 4413TIP3    H134730   4.124   1.314  13.269 -1.2076 -0.4599 -0.2969
 4413TIP3    H234731   4.173   1.412  13.165  1.6447 -0.3016  1.1526
 4414TIP3   OH234732   1.090   1.036  14.359  0.1158 -0.0292  0.0603
 4414TIP3    H134733   1.156   0.970  14.337 -1.0420 -1.6741  1.3975
 4414TIP3    H234734   1.087   1.035  14.454 -1.3868  0.4976  0.0179
 4415TIP3   OH234735   5.254   4.655  14.634 -0.0857  0.0981  0.4393
 4415TIP3    H134736   5.349   4.653  14.628 -0.2379 -1.6388 -2.2605
 4415TIP3    H234737   5.230   4.742  14.602  0.5405 -0.0436 -0.4427
 4416TIP3   OH234738   1.188   0.045  14.714 -0.7001  0.2106  0.1733
 4416TIP3    H134739   1.198  -0.050  14.726  0.6259  0.3343  0.1744
 4416TIP3    H234740   1.158   0.055  14.624  2.0328 -0.0815 -0.8219
 4417TIP3   OH234741   0.733   2.413  14.181 -0.1100 -0.6041  0.1359
 4417TIP3    H134742   0.759   2.479  14.246  2.3540 -2.0018  0.6551
 4417TIP3    H234743   0.706   2.463  14.104 -1.3405  1.0435  1.6071
 4418TIP3   OH234744   5.184   6.205  16.600 -0.5248 -0.1363 -0.8761
 4418TIP3    H134745   5.156   6.170  16.685 -2.1620  0.6654 -1.0626
 4418TIP3    H234746   5.207   6.128  16.549  1.1247 -0.5900  0.5193
 4419TIP3   OH234747   0.272   4.088  15.814  0.3997  0.1168 -0.0710
 4419TIP3    H134748   0.204   4.119  15.754  0.8884  0.5303 -0.4180
 4419TIP3    H234749   0.312   4.168  15.848  2.2048 -0.1095 -1.5827
 4420TIP3   OH234750   3.457   2.766   4.682  0.0074 -0.2160 -0.3331
 4420TIP3    H134751   3.509   2.703   4.732 -0.4788 -0.4830 -0.1636
 4420TIP3    H234752   3.391   2.713   4.637 -1.1770  0.2884  0.7700
 4421TIP3   OH234753   3.343   2.713  10.297  0.3797 -0.0636  0.3832
 4421TIP3    H134754   3.249   2.711  10.281  0.2926  0.4075  0.8357
 4421TIP3    H234755   3.362   2.629  10.338 -0.1961  0.6934  2.2280
 4422TIP3   OH234756   2.890   6.540  13.990  0.4084 -0.4980 -0.4083
 4422TIP3    H134757   2.800   6.529  14.021  0.9208 -0.4912  1.1275
 4422TIP3    H234758   2.884   6.528  13.896 -1.3010  0.0671 -0.3976
 4423TIP3   OH234759   3.578   2.796  14.520 -0.4138 -0.1454 -0.0481
 4423TIP3    H134760   3.518   2.870  14.521  0.4013  0.6094 -2.3493
 4423TIP3    H234761   3.627   2.806  14.438  1.0466 -2.1665  0.5239
 4424TIP3   OH234762   3.553   1.175  15.998 -0.7648  0.1112  0.0618
 4424TIP3    H134763   3.563   1.161  15.903 -1.4408  1.8234 -0.2828
 4424TIP3    H234764   3.614   1.112  16.038  1.0689  0.7921 -1.5760
 4425TIP3   OH234765   3.305   1.859  16.375  0.1027 -0.0944  0.1173
 4425TIP3    H134766   3.391   1.895  16.393  1.1866 -3.1576  1.4010
 4425TIP3    H234767   3.267   1.843  16.461 -0.4939 -1.5900 -0.4130
 4426TIP3   OH234768   3.195   5.158   4.257 -0.6203  0.2739 -0.2220
 4426TIP3    H134769   3.160   5.101   4.325 -1.4190  0.4552 -0.4778
 4426TIP3    H234770   3.124   5.220   4.239  0.3552  1.5945  0.3225
 4427TIP3   OH234771   6.314   2.669  13.932  0.3358 -0.4735  0.4929
 4427TIP3    H134772   6.290   2.694  14.022 -0.4870 -0.1275  0.1758
 4427TIP3    H234773   6.249   2.603  13.907  0.4203 -0.3914  0.0581
 4428TIP3   OH234774   3.488   2.620   1.395 -0.1157 -0.3695 -0.3105
 4428TIP3    H134775   3.546   2.610   1.470  0.2404  1.2330 -0.3528
 4428TIP3    H234776   3.415   2.672   1.428 -0.1392  0.0321 -0.9769
 4429TIP3   OH234777   4.655   5.720   4.822 -0.1273 -0.2429  0.0722
 4429TIP3    H134778   4.743   5.707   4.858  0.1155  1.0403 -0.0368
 4429TIP3    H234779   4.669   5.769   4.741 -0.9629  0.1933  0.1848
 4430TIP3   OH234780   2.020   5.850  16.295  0.1957 -0.3010 -0.5948
 4430TIP3    H134781   2.116   5.858  16.291  0.1830 -0.7011 -1.6950
 4430TIP3    H234782   2.005   5.771  16.346  0.4289  0.1843  0.2551
 4431TIP3   OH234783   1.810   1.390   2.957 -0.6249  0.4080 -0.5235
 4431TIP3    H134784   1.791   1.322   3.021  0.4510  1.6612  1.1842
 4431TIP3    H234785   1.729   1.399   2.907 -1.3905 -0.7974  0.4680
 4432TIP3   OH234786   5.279   2.527   0.068  0.0839 -0.2195  0.3826
 4432TIP3    H134787   5.218   2.600   0.073  0.2545  0.1657 -2.1798
 4432TIP3    H234788   5.338   2.550  -0.004 -0.0039 -2.9343 -0.6510
 4433TIP3   OH234789   1.055   5.912  14.914 -0.4523 -0.2919  0.0876
 4433TIP3    H134790   1.109   5.991  14.922 -0.1555 -0.4743 -0.0984
 4433TIP3    H234791   1.076   5.861  14.992 -0.9437 -0.0123  0.4117
 4434TIP3   OH234792   2.533   3.635  12.012  0.8964 -0.3379  0.5919
 4434TIP3    H134793   2.618   3.595  11.993  1.0920  0.9015 -1.2804
 4434TIP3    H234794   2.536   3.720  11.968 -1.6271 -0.6235 -0.2502
 4435TIP3   OH234795   6.562   5.007  15.738 -0.1831 -0.4249 -0.8503
 4435TIP3    H134796   6.592   5.072  15.802  0.8276 -1.8598  0.1584
 4435TIP3    H234797   6.642   4.971  15.701 -0.6867 -2.0929 -0.3754
 4436TIP3   OH234798   0.439   6.374   4.004  0.0217 -0.2450  0.2479
 4436TIP3    H134799   0.435   6.368   3.908  2.8411 -1.3435  0.1634
 4436TIP3    H234800   0.448   6.284   4.034 -0.0195  0.1601  1.5103
 4437TIP3   OH234801   4.586   6.456   3.087  0.1045 -0.1407 -0.4213
 4437TIP3    H134802   4.591   6.361   3.092 -0.4442 -0.1795 -0.5727
 4437TIP3    H234803   4.494   6.475   3.067  0.1390  0.4361 -0.0587
 4438TIP3   OH234804   5.433   3.603   3.813  0.0449 -0.3059 -0.4703
 4438TIP3    H134805   5.450   3.684   3.861  1.5962 -0.4691 -0.7313
 4438TIP3    H234806   5.448   3.534   3.878  0.1898 -0.4509 -0.6612
 4439TIP3   OH234807   5.802   4.550  12.547  0.3587  0.0747  0.6935
 4439TIP3    H134808   5.754   4.469  12.531  0.2688 -0.1251  1.9104
 4439TIP3    H234809   5.844   4.537  12.632 -0.4874  1.6956  1.3794
 4440TIP3   OH234810   4.494   5.194  16.259 -0.0360  0.7597  0.3076
 4440TIP3    H134811   4.555   5.122  16.247  0.4342  0.8842  1.8778
 4440TIP3    H234812   4.426   5.178  16.193  0.0239 -1.1606  0.6629
 4441TIP3   OH234813   5.815   4.167  11.764 -0.1934 -0.0021  0.6258
 4441TIP3    H134814   5.798   4.086  11.716 -1.5140  0.7779 -0.2393
 4441TIP3    H234815   5.827   4.233  11.695  2.6257  0.2406  1.2598
 4442TIP3   OH234816   4.337   5.430  12.203  0.3933 -0.2944  0.5645
 4442TIP3    H134817   4.330   5.347  12.156 -0.3738 -0.2216  0.5499
 4442TIP3    H234818   4.430   5.439  12.222  0.1907 -2.3466  2.7066
 4443TIP3   OH234819   1.123   5.497  14.007 -0.1469  0.0689 -0.4022
 4443TIP3    H134820   1.046   5.554  14.013  0.0908  0.5239 -1.5336
 4443TIP3    H234821   1.142   5.473  14.098 -1.2126  0.4991 -0.0521
 4444TIP3   OH234822   6.154   4.619   6.227  0.1072  0.0630  0.4801
 4444TIP3    H134823   6.061   4.628   6.248  0.1515  0.7673  0.3715
 4444TIP3    H234824   6.155   4.570   6.145 -0.1596 -0.1146  0.5821
 4445TIP3   OH234825   4.109   5.965  16.442  0.2973 -0.1659 -0.2691
 4445TIP3    H134826   4.165   6.019  16.498  0.3350  0.5626 -1.0124
 4445TIP3    H234827   4.079   5.895  16.500  0.8131  0.2484  0.5114
 4446TIP3   OH234828   5.711   2.632  16.017  0.0894  0.0095  0.1778
 4446TIP3    H134829   5.724   2.700  15.952 -0.4630 -0.9032 -0.9109
 4446TIP3    H234830   5.753   2.665  16.096 -0.3984  1.7207 -0.2614
 4447TIP3   OH234831   3.473   0.515   3.605 -0.4379 -0.0462 -0.3389
 4447TIP3    H134832   3.543   0.580   3.593 -0.4214  0.0713  0.4010
 4447TIP3    H234833   3.474   0.496   3.698 -0.8825 -0.6272 -0.4546
 4448TIP3   OH234834   2.888   5.244  15.664 -0.0953  0.4599  0.1207
 4448TIP3    H134835   2.952   5.243  15.593  0.8077  4.1956  0.7392
 4448TIP3    H234836   2.916   5.175  15.724  2.3328  0.8334 -0.5409
 4449TIP3   OH234837   4.971   6.709  14.563 -0.1314 -0.3938  0.1753
 4449TIP3    H134838   5.061   6.720  14.534  0.0488  0.4609  1.0524
 4449TIP3    H234839   4.977   6.661  14.645 -0.4299  0.3148  0.6154
 4450TIP3   OH234840   0.619   1.106  11.977  0.5568  0.0706 -0.4061
 4450TIP3    H134841   0.713   1.098  11.959  0.3679  0.5748 -1.5962
 4450TIP3    H234842   0.577   1.102  11.892 -0.5763 -0.9770  0.1887
 4451TIP3   OH234843   0.280   3.960   0.263  0.2843 -0.4618  1.1481
 4451TIP3    H134844   0.348   3.919   0.315 -0.2133 -0.3431  1.9098
 4451TIP3    H234845   0.198   3.932   0.304 -0.1033 -0.0293  0.6831
 4452TIP3   OH234846   0.809   2.965   0.146  0.5733 -0.8975 -0.0123
 4452TIP3    H134847   0.821   3.035   0.082 -0.1202 -0.8938 -0.1416
 4452TIP3    H234848   0.846   2.887   0.104  2.1332 -0.4310  0.4817
 4453TIP3   OH234849   5.909   6.239  13.809 -0.0002 -0.1268  0.3357
 4453TIP3    H134850   5.817   6.212  13.811 -0.0047 -0.1563 -0.1022
 4453TIP3    H234851   5.910   6.315  13.750  0.7233 -1.9585 -2.1040
 4454TIP3   OH234852   6.643   1.635   1.746 -0.4664  0.3891  0.0543
 4454TIP3    H134853   6.622   1.614   1.655 -0.1419  2.0343 -0.4051
 4454TIP3    H234854   6.557   1.643   1.789 -0.6330  0.2384 -0.2471
 4455TIP3   OH234855   6.481   2.612  14.566  0.7980  0.4103 -0.0296
 4455TIP3    H134856   6.472   2.517  14.571 -1.4476  0.6196  0.3777
 4455TIP3    H234857   6.489   2.631  14.473 -1.0147 -0.0290 -0.2993
 4456TIP3   OH234858   0.882   4.340  17.067 -0.7342 -0.6346 -0.3322
 4456TIP3    H134859   0.861   4.254  17.105 -0.1569 -0.6872 -0.1148
 4456TIP3    H234860   0.818   4.352  16.998 -1.4236 -0.8159  0.2714
 4457TIP3   OH234861   4.404   6.486  13.684 -0.5568  0.0112 -0.0975
 4457TIP3    H134862   4.434   6.440  13.605  0.0080  1.8300 -0.9555
 4457TIP3    H234863   4.436   6.432  13.756  0.2670 -0.8396 -1.0787
 4458TIP3   OH234864   3.613   3.701   0.250  0.2619  0.3204  0.1437
 4458TIP3    H134865   3.572   3.618   0.273 -0.7791  1.2765  1.8411
 4458TIP3    H234866   3.580   3.720   0.162 -0.0081 -0.7407  0.0055
 4459TIP3   OH234867   3.711   0.810   2.780 -0.4917  0.0074  0.4648
 4459TIP3    H134868   3.714   0.906   2.774 -0.5151 -0.0148  0.1202
 4459TIP3    H234869   3.723   0.792   2.874  1.4104  0.2742  0.2974
 4460TIP3   OH234870   3.668   4.280   4.785  0.1869  0.2337 -0.4462
 4460TIP3    H134871   3.605   4.217   4.750 -1.8090  0.6126  2.3071
 4460TIP3    H234872   3.617   4.359   4.800  1.6847  1.0761  0.3104
 4461TIP3   OH234873   6.428   1.768  14.058 -0.0199  0.0273  0.3147
 4461TIP3    H134874   6.413   1.860  14.039 -1.4047 -0.2284  0.1085
 4461TIP3    H234875   6.433   1.763  14.153  3.5877  0.8141  0.2546
 4462TIP3   OH234876   4.888   4.634   3.986 -0.2175 -0.7616  0.1112
 4462TIP3    H134877   4.861   4.542   3.978 -0.5852 -0.5947 -0.6177
 4462TIP3    H234878   4.872   4.656   4.078 -0.0604 -1.4495  0.3016
 4463TIP3   OH234879   0.591   4.266   5.900  0.2365 -0.3884 -0.4521
 4463TIP3    H134880   0.666   4.215   5.930 -0.7023 -0.4332  1.9950
 4463TIP3    H234881   0.618   4.357   5.908  0.0654 -0.4057  0.4075
 4464TIP3   OH234882   0.402   5.878   5.830  0.0462  0.9799 -0.7059
 4464TIP3    H134883   0.491   5.893   5.799  0.1741 -0.3637 -1.0200
 4464TIP3    H234884   0.368   5.965   5.850  1.3630  1.5078 -0.7693
 4465TIP3   OH234885   5.945   3.547  13.941  0.0670 -0.0240 -0.3700
 4465TIP3    H134886   5.940   3.642  13.934  1.7020  0.1063  0.0044
 4465TIP3    H234887   5.861   3.516  13.907  0.2163  1.4498 -2.1337
 4466TIP3   OH234888   3.343   3.476  15.388 -0.7248 -0.0759 -0.0112
 4466TIP3    H134889   3.423   3.430  15.414 -1.4904 -0.1948  2.2725
 4466TIP3    H234890   3.346   3.477  15.293  0.9560 -1.9492 -0.0222
 4467TIP3   OH234891   1.428   1.432   2.486 -0.4258  0.5499 -0.4874
 4467TIP3    H134892   1.339   1.418   2.455  0.4351 -3.3671 -1.4817
 4467TIP3    H234893   1.418   1.484   2.566 -3.7175 -0.9124  0.1272
 4468TIP3   OH234894   0.007   2.662  15.016  0.3975  0.1726 -0.1592
 4468TIP3    H134895   0.014   2.567  15.003  1.8003  0.4295 -1.3443
 4468TIP3    H234896   0.078   2.683  15.077  0.0563  0.4606  0.1440
 4469TIP3   OH234897   3.774   0.053   4.294 -0.0804  0.1713 -0.3130
 4469TIP3    H134898   3.704   0.071   4.356 -0.3812 -1.0073 -0.2844
 4469TIP3    H234899   3.731   0.052   4.209 -0.1422 -0.6980 -0.2818
 4470TIP3   OH234900   0.382   3.749   6.545 -0.5569  0.6690  0.1308
 4470TIP3    H134901   0.451   3.757   6.480 -0.9440 -2.2525 -0.7315
 4470TIP3    H234902   0.303   3.778   6.501 -0.0776  3.0193  0.7830
 4471TIP3   OH234903   5.645   4.802   1.414  0.3665  0.7246 -0.2815
 4471TIP3    H134904   5.660   4.855   1.492 -0.2391  0.4038  0.0581
 4471TIP3    H234905   5.648   4.711   1.446  1.5421  0.5485 -0.8783
 4472TIP3   OH234906   4.475   5.777   6.226  0.0987 -1.4169  0.7025
 4472TIP3    H134907   4.403   5.718   6.250 -0.7026 -0.3246  1.0640
 4472TIP3    H234908   4.435   5.864   6.228  1.0456 -0.9391 -0.6503
 4473TIP3   OH234909   5.368   4.479   5.530  1.1241  0.3333  0.5370
 4473TIP3    H134910   5.290   4.450   5.576  0.8622 -0.9778 -0.7200
 4473TIP3    H234911   5.374   4.573   5.549  0.3291  0.0500  2.1960
 4474TIP3   OH234912   6.327   4.859  12.816  0.4838 -0.3051 -0.7171
 4474TIP3    H134913   6.381   4.934  12.838 -0.2581 -0.0253  0.1872
 4474TIP3    H234914   6.254   4.862  12.878 -1.6401  0.4397 -3.1413
 4475TIP3   OH234915   0.365   4.278   3.751 -0.0262  0.1676  0.6924
 4475TIP3    H134916   0.316   4.349   3.792 -0.5787 -0.2825  0.8197
 4475TIP3    H234917   0.301   4.233   3.697  1.1205  1.9929 -2.3174
 4476TIP3   OH234918   0.762   1.559   1.104  0.4310  0.0361 -0.3206
 4476TIP3    H134919   0.841   1.584   1.055  0.4816  1.1497  0.3187
 4476TIP3    H234920   0.752   1.466   1.086  2.9539 -0.5568  1.0644
 4477TIP3   OH234921   0.427   6.605  15.175  0.7129 -0.5433  0.5563
 4477TIP3    H134922   0.479   6.578  15.099 -2.7183 -1.6080 -1.5054
 4477TIP3    H234923   0.416   6.700  15.164  0.0037 -0.7336 -0.4320
 4478TIP3   OH234924   3.915   2.616  10.741  0.3032 -0.3214  0.4599
 4478TIP3    H134925   3.946   2.693  10.694  0.1237 -0.6667 -0.2275
 4478TIP3    H234926   3.933   2.635  10.833 -0.6669  0.9720  0.3819
 4479TIP3   OH234927   2.904   1.180   2.622  0.4629 -0.2322  0.4789
 4479TIP3    H134928   2.916   1.130   2.542  0.3074 -1.4777  1.2187
 4479TIP3    H234929   2.810   1.196   2.627  0.7552  2.1066 -0.9111
 4480TIP3   OH234930   3.406   6.119   4.425 -0.6743  0.1425 -0.3085
 4480TIP3    H134931   3.344   6.188   4.402 -0.6416 -0.5208 -2.6071
 4480TIP3    H234932   3.484   6.138   4.372 -0.5019 -1.3540 -0.6338
 4481TIP3   OH234933   4.920   4.199   1.022  0.4156 -0.2592 -0.0099
 4481TIP3    H134934   4.902   4.270   1.083  1.8790  0.9917 -0.9820
 4481TIP3    H234935   4.913   4.119   1.074  1.6686  0.7776  1.8142
 4482TIP3   OH234936   4.524   5.495   3.971  0.4211  0.9254 -0.3978
 4482TIP3    H134937   4.444   5.445   3.986  0.9694  0.7806  2.2165
 4482TIP3    H234938   4.494   5.582   3.945 -0.5596  0.4547 -0.8740
 4483TIP3   OH234939   5.135   1.675   1.057 -0.1763 -0.6609  0.2572
 4483TIP3    H134940   5.054   1.725   1.051  0.4419  0.3661  0.3641
 4483TIP3    H234941   5.109   1.591   1.094 -1.0298  0.0414  1.2747
 4484TIP3   OH234942   5.922   0.465   5.317  0.1777 -0.0033 -0.3345
 4484TIP3    H134943   5.932   0.522   5.241  1.7384  1.0079  0.5923
 4484TIP3    H234944   5.973   0.508   5.386  1.1562 -2.3499  0.4742
 4485TIP3   OH234945   0.719   2.965  14.489  0.1087  0.0822  0.1752
 4485TIP3    H134946   0.776   2.905  14.537  1.5928  1.4601  0.1782
 4485TIP3    H234947   0.745   3.052  14.519 -2.0440  0.7497  0.2046
 4486TIP3   OH234948   2.499   2.690   6.272  1.1680  0.8201 -0.3219
 4486TIP3    H134949   2.510   2.785   6.284 -1.8697  1.0417  1.1990
 4486TIP3    H234950   2.526   2.674   6.182  1.4613  3.1941 -0.6935
 4487TIP3   OH234951   5.879   4.046  11.283 -0.3245 -0.3572  0.2844
 4487TIP3    H134952   5.832   3.975  11.239 -2.7198  1.1094  0.4108
 4487TIP3    H234953   5.910   4.007  11.365 -2.6969 -0.9310  0.9403
 4488TIP3   OH234954   3.097   3.506  12.131  0.0748 -0.1097  0.3417
 4488TIP3    H134955   3.157   3.504  12.205  0.0070 -2.6262  0.3558
 4488TIP3    H234956   3.124   3.434  12.075 -1.4181  0.2250 -0.8716
 4489TIP3   OH234957   4.525   5.581   3.014 -0.3133  0.4580 -0.0016
 4489TIP3    H134958   4.552   5.493   2.988 -0.6891  0.4773 -0.4715
 4489TIP3    H234959   4.531   5.581   3.110 -1.8159 -0.5873  0.1136
 4490TIP3   OH234960   6.134   5.230   2.447  0.0003 -0.2563  0.0955
 4490TIP3    H134961   6.169   5.147   2.413 -1.0901 -0.7867  0.2414
 4490TIP3    H234962   6.040   5.222   2.437  0.0120  2.0743 -2.3475
 4491TIP3   OH234963   2.571   1.426   1.644  0.0366 -0.0346  0.1851
 4491TIP3    H134964   2.587   1.446   1.737  0.3042 -1.1786  0.3856
 4491TIP3    H234965   2.611   1.500   1.597  0.5120  0.2045  0.9477
 4492TIP3   OH234966   5.470   3.214   2.019 -0.4955 -0.5604 -0.3027
 4492TIP3    H134967   5.470   3.232   2.113 -2.1363 -0.5830 -0.2837
 4492TIP3    H234968   5.496   3.297   1.978 -0.0499 -0.4747  0.1536
 4493TIP3   OH234969   0.573   1.652  13.179 -0.4329 -0.0801  0.6336
 4493TIP3    H134970   0.548   1.709  13.252 -0.5034 -0.7579  1.1527
 4493TIP3    H234971   0.630   1.706  13.124 -0.8424  0.6166  0.8931
 4494TIP3   OH234972   1.609   5.815  13.539 -0.4700 -0.0084 -0.6050
 4494TIP3    H134973   1.574   5.771  13.461  0.8765 -2.7925  0.2863
 4494TIP3    H234974   1.704   5.811  13.527 -0.2791  0.1615  0.8625
 4495TIP3   OH234975   3.102   0.436  11.406 -0.9689 -0.4155  0.1933
 4495TIP3    H134976   3.009   0.425  11.384 -0.6915 -1.1192 -0.6439
 4495TIP3    H234977   3.119   0.529  11.393 -2.0021  0.0594  2.0989
 4496TIP3   OH234978   3.109   5.846   3.117 -0.6043 -0.2998 -0.0054
 4496TIP3    H134979   3.148   5.833   3.204  2.5732  0.8373 -1.1509
 4496TIP3    H234980   3.114   5.941   3.104 -0.6553 -0.5121 -1.5846
 4497TIP3   OH234981   4.908   3.444  11.606  0.5483  0.3981 -0.1575
 4497TIP3    H134982   4.855   3.375  11.646  1.1883 -0.1571 -0.2768
 4497TIP3    H234983   4.850   3.520  11.605 -0.0005 -0.0081  0.3974
 4498TIP3   OH234984   6.333   4.529  16.821  0.2023 -0.1710 -0.4235
 4498TIP3    H134985   6.286   4.446  16.812 -1.4517  0.5947  0.8063
 4498TIP3    H234986   6.266   4.596  16.808  1.0440  0.9515  0.8215
 4499TIP3   OH234987   4.471   2.567   3.433 -0.2508 -0.3244 -0.1633
 4499TIP3    H134988   4.425   2.503   3.379 -0.5889 -0.8055  0.6845
 4499TIP3    H234989   4.561   2.535   3.436 -0.2117 -0.2539 -0.4980
 4500TIP3   OH234990   4.199   2.633  13.310 -0.2850  0.6343  0.2106
 4500TIP3    H134991   4.268   2.640  13.244 -0.4422 -1.0224 -0.1443
 4500TIP3    H234992   4.122   2.672  13.269 -0.0700  0.7193 -0.1136
 4501TIP3   OH234993   4.477   1.796   1.895 -0.3942 -0.0939 -0.3273
 4501TIP3    H134994   4.445   1.708   1.916 -3.0601  0.4846 -1.6588
 4501TIP3    H234995   4.498   1.835   1.980 -0.8288 -1.4336  0.4078
 4502TIP3   OH234996   5.993   5.206   4.727  0.0589 -0.1656  0.0320
 4502TIP3    H134997   5.909   5.250   4.736  0.6593  0.9309  0.3444
 4502TIP3    H234998   6.056   5.276   4.714  0.7488 -1.0573 -1.6616
 4503TIP3   OH234999   5.755   3.540   1.644  0.1098  0.1976  0.2732
 4503TIP3    H135000   5.837   3.570   1.685 -0.0589  0.8023  0.1768
 4503TIP3    H235001   5.778   3.457   1.602  0.6887  0.3937  0.1961
 4504TIP3   OH235002   3.868   5.145   0.739 -0.3111 -0.2533  0.1965
 4504TIP3    H135003   3.924   5.096   0.679 -1.3180 -1.5103  0.2610
 4504TIP3    H235004   3.788   5.162   0.689  0.2843  1.9706 -0.0690
 4505TIP3   OH235005   5.901   5.468  14.525  0.2292 -0.4190  0.2219
 4505TIP3    H135006   5.891   5.434  14.614 -1.8813  0.8978  0.5326
 4505TIP3    H235007   5.994   5.488  14.518 -0.0107  2.2454  3.2449
 4506TIP3   OH235008   0.036   5.845   2.572 -0.1805 -0.2548  0.4725
 4506TIP3    H135009   0.012   5.813   2.659 -1.0627  1.4462  0.8814
 4506TIP3    H235010   0.130   5.860   2.577  0.2019 -2.5101  0.3421
 4507TIP3   OH235011   1.180   4.939  12.318  0.3070  0.3511 -0.2511
 4507TIP3    H135012   1.171   5.030  12.344  0.7471  0.4749 -0.5194
 4507TIP3    H235013   1.260   4.937  12.265 -0.1692 -0.0266 -0.9652
 4508TIP3   OH235014   5.731   0.767   0.451 -0.3063  0.2398  0.7052
 4508TIP3    H135015   5.744   0.789   0.359  0.3434 -1.2688  0.4173
 4508TIP3    H235016   5.670   0.693   0.450  0.5587 -0.5053  1.4032
 4509TIP3   OH235017   6.114   6.167   0.501  0.0220  0.1057  0.4826
 4509TIP3    H135018   6.029   6.123   0.509 -1.0575  1.8826 -0.8749
 4509TIP3    H235019   6.176   6.106   0.541 -1.6867 -1.8079  0.3076
 4510TIP3   OH235020   4.537   2.176  16.918 -0.3681  0.4780 -0.8131
 4510TIP3    H135021   4.459   2.123  16.931  0.9244 -1.4315 -0.6792
 4510TIP3    H235022   4.597   2.148  16.986  0.1037  2.6050 -0.3276
 4511TIP3   OH235023   4.815   6.779  14.936 -0.4334 -0.6183  0.5109
 4511TIP3    H135024   4.824   6.701  14.991 -0.0856  0.8530  2.6095
 4511TIP3    H235025   4.735   6.822  14.969 -1.4532 -0.8262 -1.6043
 4512TIP3   OH235026   4.044   2.797  16.223  0.1505 -0.0624 -0.1933
 4512TIP3    H135027   4.040   2.702  16.233 -1.6548 -0.1246 -1.2750
 4512TIP3    H235028   4.108   2.826  16.289 -0.7089 -1.8262  1.4612
 4513TIP3   OH235029   4.772   3.284  14.116  0.3272  0.3428 -0.0881
 4513TIP3    H135030   4.812   3.329  14.190  0.8053  0.3878 -0.3705
 4513TIP3    H235031   4.806   3.194  14.122 -0.1448  0.1738  0.1193
 4514TIP3   OH235032   0.453   6.056   3.383 -0.1110 -0.2793 -0.2173
 4514TIP3    H135033   0.399   5.984   3.416  0.1917 -0.5337 -0.2833
 4514TIP3    H235034   0.524   6.014   3.335  0.2127  0.0527 -0.0354
 4515TIP3   OH235035   6.302   5.297   2.000 -0.1364  0.4517  0.0433
 4515TIP3    H135036   6.209   5.302   1.981 -0.4490  0.7350  1.5581
 4515TIP3    H235037   6.324   5.204   1.988 -1.0017  0.0612  1.3509
 4516TIP3   OH235038   4.457   4.522  15.030 -0.1854 -0.9339  0.8741
 4516TIP3    H135039   4.538   4.489  15.068  1.1951  1.4949  0.1521
 4516TIP3    H235040   4.431   4.594  15.087 -1.8200 -1.6501  1.0585
 4517TIP3   OH235041   0.981   0.044   2.221 -0.4226  0.5239 -0.2591
 4517TIP3    H135042   0.927   0.072   2.148 -0.4443  0.8502 -0.1199
 4517TIP3    H235043   1.027  -0.034   2.189 -0.9458  0.2680 -0.3875
 4518TIP3   OH235044   4.366   5.743  10.877 -0.2927 -0.4566 -0.0611
 4518TIP3    H135045   4.461   5.739  10.887 -0.2469 -3.1040 -1.0212
 4518TIP3    H235046   4.352   5.798  10.800  0.5812 -1.4548 -0.9622
 4519TIP3   OH235047   2.856   2.169  12.353 -0.2790  0.2697 -0.2900
 4519TIP3    H135048   2.951   2.172  12.346 -0.0960 -1.0679  1.4214
 4519TIP3    H235049   2.836   2.226  12.427 -0.6731 -0.7458  0.3938
 4520TIP3   OH235050   5.083   4.339  15.869 -0.1569 -0.2599  0.2503
 4520TIP3    H135051   5.011   4.374  15.817  0.1384 -2.0118 -1.3897
 4520TIP3    H235052   5.048   4.332  15.958 -1.5061  0.3028 -0.2363
 4521TIP3   OH235053   1.014   1.110  14.613  0.1022 -0.0874 -0.1463
 4521TIP3    H135054   0.969   1.032  14.646  1.6294 -1.7520 -1.9312
 4521TIP3    H235055   1.060   1.144  14.690 -1.9213  0.0637  1.0488
 4522TIP3   OH235056   3.805   6.105   3.822 -0.1193  0.3533  0.1611
 4522TIP3    H135057   3.877   6.160   3.791  0.3290  0.1527  0.8355
 4522TIP3    H235058   3.738   6.112   3.753  0.3985  0.8193 -0.3014
 4523TIP3   OH235059   3.659   5.220  16.962  0.9046  0.0339 -0.2575
 4523TIP3    H135060   3.646   5.304  17.004 -0.9421  0.9072 -2.4390
 4523TIP3    H235061   3.646   5.155  17.031 -2.1057  1.4157  0.5486
 4524TIP3   OH235062   2.709   6.685   3.124  0.0137  1.0599 -0.2471
 4524TIP3    H135063   2.636   6.747   3.122 -0.7152  0.2393  0.8235
 4524TIP3    H235064   2.721   6.659   3.033 -0.6796  1.6004 -0.4925
 4525TIP3   OH235065   5.013   2.035   3.164 -0.0704  0.3111 -0.6012
 4525TIP3    H135066   4.988   2.069   3.250  0.1421 -0.3503 -0.2732
 4525TIP3    H235067   4.973   1.948   3.160  0.9354 -0.1631 -0.6642
 4526TIP3   OH235068   2.085   1.347  14.774  0.5444 -0.4921 -0.3318
 4526TIP3    H135069   1.992   1.326  14.780  0.2780  1.0432  1.1764
 4526TIP3    H235070   2.092   1.435  14.810  2.3050  0.1699 -2.1968
 4527TIP3   OH235071   1.138   1.319  14.449 -0.2202 -0.2223 -0.2359
 4527TIP3    H135072   1.075   1.258  14.488  0.1599  0.1199  0.9076
 4527TIP3    H235073   1.150   1.387  14.515  0.3196  0.4353 -1.0028
 4528TIP3   OH235074   2.678   4.358  15.547 -0.3372 -0.1491  0.3471
 4528TIP3    H135075   2.770   4.376  15.528 -0.3215 -1.3258 -0.7127
 4528TIP3    H235076   2.642   4.325  15.465 -1.4417 -0.7193  1.0460
 4529TIP3   OH235077   1.728   3.903   6.381  0.4828 -0.1778  0.2742
 4529TIP3    H135078   1.798   3.964   6.406  0.3797  0.0900 -0.0877
 4529TIP3    H235079   1.649   3.939   6.421  0.5384 -0.4449  0.6279
 4530TIP3   OH235080   1.970   2.075   2.110  0.4089 -0.1613 -0.6479
 4530TIP3    H135081   1.926   2.036   2.035  0.1398  0.6605 -0.9176
 4530TIP3    H235082   2.062   2.049   2.101  0.4392  0.2283 -1.4439
 4531TIP3   OH235083   2.505   3.268  11.577  0.8486  0.0685 -0.0079
 4531TIP3    H135084   2.537   3.196  11.631  0.0210 -0.7102 -0.5471
 4531TIP3    H235085   2.415   3.282  11.606  1.2329  1.3805  0.5989
 4532TIP3   OH235086   2.000   4.089  11.005  0.1087 -0.3285 -0.3762
 4532TIP3    H135087   1.996   4.065  10.912  1.0383 -2.9827  0.2243
 4532TIP3    H235088   2.093   4.094  11.024 -0.0805  0.1330  0.4410
 4533TIP3   OH235089   1.476   6.643  16.104 -0.4413  0.0775 -0.6115
 4533TIP3    H135090   1.477   6.657  16.009 -0.0262  0.4971 -0.5426
 4533TIP3    H235091   1.388   6.669  16.131 -0.8346 -0.8031 -0.9955
 4534TIP3   OH235092   0.336   0.849  11.438 -0.0957  0.7121 -0.0435
 4534TIP3    H135093   0.250   0.872  11.473 -0.0435 -1.0418  1.3557
 4534TIP3    H235094   0.346   0.902  11.360 -3.1103 -0.1630 -1.1005
 4535TIP3   OH235095   3.801   3.348  13.296 -0.5552  0.0222  0.5223
 4535TIP3    H135096   3.716   3.381  13.324 -0.9024  0.1076 -0.6035
 4535TIP3    H235097   3.782   3.265  13.251  0.1734 -1.0485  2.1220
 4536TIP3   OH235098   0.183   0.529  14.336 -0.0154  0.1229 -0.4124
 4536TIP3    H135099   0.138   0.529  14.420 -0.4493 -0.4457 -0.6377
 4536TIP3    H235100   0.180   0.619  14.306  1.2414  0.5825  0.7655
 4537TIP3   OH235101   5.689   2.419  13.151  0.0286 -0.0150  0.0313
 4537TIP3    H135102   5.660   2.504  13.184  2.2421  0.8632 -0.2697
 4537TIP3    H235103   5.761   2.393  13.209  0.2851 -1.0488 -0.7277
 4538TIP3   OH235104   3.525   6.816  12.430 -0.2250 -0.0439  0.1535
 4538TIP3    H135105   3.564   6.756  12.494  1.1391  0.6667  0.0022
 4538TIP3    H235106   3.446   6.847  12.473 -0.1021 -0.7143  0.8944
 4539TIP3   OH235107   4.075   4.833  16.954 -0.3216 -0.2336  0.3225
 4539TIP3    H135108   4.124   4.762  16.912  0.0639 -1.1311  2.2692
 4539TIP3    H235109   4.005   4.853  16.891  0.7635 -0.9371 -1.1557
 4540TIP3   OH235110   1.858   0.022  14.297  0.4171  0.1147  0.2947
 4540TIP3    H135111   1.768   0.042  14.269  0.2495 -1.9832 -0.8167
 4540TIP3    H235112   1.879   0.090  14.360 -1.0884  2.0475 -1.2133
 4541TIP3   OH235113   1.659   5.714  14.413 -0.2639 -0.5839  0.0288
 4541TIP3    H135114   1.620   5.723  14.326 -0.6924 -1.1195  0.1680
 4541TIP3    H235115   1.741   5.764  14.407 -0.3768 -0.4689 -0.6280
 4542TIP3   OH235116   1.715   4.850  15.780  0.0984  0.0203  0.6547
 4542TIP3    H135117   1.699   4.816  15.868 -1.6815  0.4867  0.5205
 4542TIP3    H235118   1.672   4.935  15.779  1.0431  0.4934 -0.3292
 4543TIP3   OH235119   1.898   4.178   0.979  0.0761 -0.9679 -0.5081
 4543TIP3    H135120   1.904   4.176   0.883  0.0875 -1.2574 -0.5025
 4543TIP3    H235121   1.812   4.139   0.997  0.2161 -1.2213 -0.3867
 4544TIP3   OH235122   1.161   4.169   5.640  0.5667 -0.2093 -0.0732
 4544TIP3    H135123   1.165   4.081   5.678  0.9511 -1.3880 -2.7357
 4544TIP3    H235124   1.083   4.208   5.680 -0.5306 -2.3227 -0.0334
 4545TIP3   OH235125   3.405   5.851   4.463 -0.1175  0.4283 -0.0455
 4545TIP3    H135126   3.431   5.825   4.375  2.1297 -0.3003  0.8129
 4545TIP3    H235127   3.403   5.946   4.460 -0.4027  0.4035 -0.9595
 4546TIP3   OH235128   4.350   1.681   0.593 -0.2537 -0.2228 -0.0809
 4546TIP3    H135129   4.271   1.644   0.553  0.4298  0.4764 -2.1166
 4546TIP3    H235130   4.319   1.757   0.641 -0.6926  0.7426 -1.8440
 4547TIP3   OH235131   5.587   1.849   0.308  0.0679  0.2701  0.1769
 4547TIP3    H135132   5.502   1.818   0.338  0.2638  0.2996  0.7822
 4547TIP3    H235133   5.650   1.791   0.352  0.3015 -1.1107 -1.8951
 4548TIP3   OH235134   0.947   3.792   1.108  0.5665 -0.0851 -0.0504
 4548TIP3    H135135   0.922   3.834   1.026 -0.7993 -0.5264  0.1224
 4548TIP3    H235136   1.042   3.803   1.113  0.4164  1.6794 -0.7149
 4549TIP3   OH235137   6.200   3.615   1.383  0.0976 -0.1337  0.1909
 4549TIP3    H135138   6.162   3.533   1.355 -1.1851  0.4530  0.1708
 4549TIP3    H235139   6.125   3.669   1.410  1.0205  0.4890  1.6176
 4550TIP3   OH235140   0.345   6.382  11.915  0.0192  0.2072  0.1338
 4550TIP3    H135141   0.271   6.443  11.919 -0.1211  0.1571 -1.5715
 4550TIP3    H235142   0.390   6.404  11.833  0.6980 -1.1498  0.1387
 4551TIP3   OH235143   1.774   6.565   6.813 -0.3514 -0.0858 -0.6957
 4551TIP3    H135144   1.707   6.598   6.872  0.0673  0.0532 -0.2961
 4551TIP3    H235145   1.763   6.616   6.732 -2.0605 -1.4780 -1.3766
 4552TIP3   OH235146   6.538   3.526   4.892 -0.8177 -0.1810  0.0425
 4552TIP3    H135147   6.535   3.615   4.856 -0.5917  0.2904  1.1605
 4552TIP3    H235148   6.555   3.539   4.985 -1.0981 -1.3922  0.2671
 4553TIP3   OH235149   4.903   5.890  10.465 -0.0216  0.1997  0.3445
 4553TIP3    H135150   4.841   5.819  10.445 -0.8596  0.5022  1.8225
 4553TIP3    H235151   4.907   5.941  10.384 -0.2487 -0.9243 -0.3803
 4554TIP3   OH235152   6.115   1.294  13.331  0.1108  0.4998 -0.0952
 4554TIP3    H135153   6.112   1.364  13.266  2.0956  0.5937 -0.1205
 4554TIP3    H235154   6.023   1.272  13.348 -0.4409 -1.1068 -4.5687
 4555TIP3   OH235155   3.864   5.165  16.046  0.5175  0.3194  0.0373
 4555TIP3    H135156   3.899   5.127  15.966  1.4172 -0.7370  0.9255
 4555TIP3    H235157   3.842   5.090  16.101  0.2762  1.0469  0.9467
 4556TIP3   OH235158   4.744   2.619  12.841  0.0052 -0.6113  0.9508
 4556TIP3    H135159   4.693   2.695  12.814 -0.7352 -1.1308  0.8865
 4556TIP3    H235160   4.735   2.557  12.769  1.8183 -0.1939  0.3356
 4557TIP3   OH235161   2.788   6.577   4.670  0.5708  0.1058 -0.2150
 4557TIP3    H135162   2.710   6.633   4.667  2.0032  2.1574 -0.5156
 4557TIP3    H235163   2.768   6.505   4.611 -1.9000 -0.4798  1.2936
 4558TIP3   OH235164   2.363   5.876  16.005 -0.4405 -0.2035  0.3733
 4558TIP3    H135165   2.337   5.863  16.096  0.2770  2.6450  1.0577
 4558TIP3    H235166   2.289   5.844  15.954 -2.3377  1.2948  2.0963
 4559TIP3   OH235167   3.587   0.843  13.905  0.2489  0.7373  0.0612
 4559TIP3    H135168   3.593   0.758  13.862  0.2244  0.0943  1.3025
 4559TIP3    H235169   3.671   0.886  13.887  1.2157 -0.5355  1.4495
 4560TIP3   OH235170   5.166   3.200   1.214  0.4171  0.5936  0.1490
 4560TIP3    H135171   5.203   3.150   1.141  0.4836  0.7627  0.0662
 4560TIP3    H235172   5.131   3.279   1.174 -2.0104 -0.5480 -0.0763
 4561TIP3   OH235173   2.492   1.246  11.609  0.5014  0.4289 -0.7779
 4561TIP3    H135174   2.552   1.271  11.679  1.7259  0.8265 -1.9565
 4561TIP3    H235175   2.458   1.329  11.576  0.6244  0.2882 -1.2626
 4562TIP3   OH235176   6.635   6.400  15.395 -0.1198  0.1305  0.0035
 4562TIP3    H135177   6.730   6.398  15.398 -0.0703  0.7486 -0.7859
 4562TIP3    H235178   6.609   6.308  15.389  0.4175 -0.0489  0.4756
 4563TIP3   OH235179   0.666   1.054  16.512  0.6764 -0.6108 -0.1005
 4563TIP3    H135180   0.702   1.059  16.600 -0.9189 -0.0755  0.5339
 4563TIP3    H235181   0.631   0.965  16.505  0.3598 -0.4950 -0.0112
 4564TIP3   OH235182   5.520   5.572   3.832  0.5998  0.0888  0.2804
 4564TIP3    H135183   5.486   5.647   3.881 -0.3012 -0.6729  0.8391
 4564TIP3    H235184   5.562   5.610   3.756  2.0366  1.2947  1.6563
 4565TIP3   OH235185   5.760   0.314  14.720  0.2595  0.6907 -0.1359
 4565TIP3    H135186   5.763   0.382  14.787  0.4149  0.3445  0.2165
 4565TIP3    H235187   5.843   0.322  14.674  0.7087  0.1105  0.5466
 4566TIP3   OH235188   3.276   3.229  17.288 -0.2977 -0.2752  0.7987
 4566TIP3    H135189   3.231   3.163  17.341 -0.0819 -0.5446  0.6518
 4566TIP3    H235190   3.235   3.223  17.201 -0.3488 -0.1377  0.8137
 4567TIP3   OH235191   6.407   2.074  13.744 -0.5372  0.2481 -0.4670
 4567TIP3    H135192   6.405   2.050  13.837 -0.7593  0.7503 -0.3374
 4567TIP3    H235193   6.484   2.029  13.709  1.1108  2.1492  0.5717
 4568TIP3   OH235194   4.103   0.551  15.055  0.0297 -0.3169 -0.5622
 4568TIP3    H135195   4.171   0.512  15.000 -0.9245 -0.9289 -1.3477
 4568TIP3    H235196   4.023   0.540  15.004 -1.1279 -2.2111  1.5723
 4569TIP3   OH235197   2.167   5.594   3.851  0.2583  0.6327  0.0917
 4569TIP3    H135198   2.133   5.645   3.778  1.2207  2.8017  1.1223
 4569TIP3    H235199   2.251   5.635   3.872  1.5884 -2.0542  0.2573
 4570TIP3   OH235200   1.587   4.163   1.523  0.4330 -0.1491 -0.6060
 4570TIP3    H135201   1.510   4.201   1.482  0.4311  0.3106 -0.1635
 4570TIP3    H235202   1.655   4.230   1.514  0.3841  0.0213  0.3132
 4571TIP3   OH235203   5.484   1.884   1.815  0.3826 -0.6058 -0.4135
 4571TIP3    H135204   5.518   1.813   1.869  0.5807  0.0700  0.3704
 4571TIP3    H235205   5.390   1.865   1.807  0.4352 -0.9561 -0.2072
 4572TIP3   OH235206   1.738   1.516  16.672 -0.3205  0.1190  0.5404
 4572TIP3    H135207   1.745   1.607  16.699 -0.2974  0.0011  0.9304
 4572TIP3    H235208   1.826   1.480  16.686 -0.6630 -0.3135  1.6590
 4573TIP3   OH235209   5.882   0.391   3.527  0.6429 -0.2240 -0.3294
 4573TIP3    H135210   5.813   0.394   3.594  0.5932  2.2697 -0.4748
 4573TIP3    H235211   5.933   0.313   3.550 -0.8354 -0.8004  1.1499
 4574TIP3   OH235212   4.945   3.087  11.305  0.6073  1.1221 -0.3351
 4574TIP3    H135213   5.012   3.020  11.292 -1.6255 -1.4214  0.7784
 4574TIP3    H235214   4.973   3.132  11.385  2.4135  1.9628 -1.3949
 4575TIP3   OH235215   6.230   6.412  12.140 -0.0648  0.4656  0.1857
 4575TIP3    H135216   6.286   6.369  12.075  0.2655  1.7647 -0.4199
 4575TIP3    H235217   6.160   6.350  12.157  0.1072 -0.0968 -1.0685
 4576TIP3   OH235218   4.390   4.699   2.565 -0.3805 -0.3092 -0.1166
 4576TIP3    H135219   4.308   4.744   2.585  0.0442  0.4713 -0.1049
 4576TIP3    H235220   4.375   4.608   2.592 -1.0668 -0.0628  0.3399
 4577TIP3   OH235221   3.630   2.327   5.239 -0.2395 -0.6808  0.0463
 4577TIP3    H135222   3.575   2.326   5.317  1.1584 -1.8633  1.0401
 4577TIP3    H235223   3.589   2.392   5.181 -0.7151  0.9304  2.1628
 4578TIP3   OH235224   4.310   1.680  11.096 -0.3938  0.2812 -0.3497
 4578TIP3    H135225   4.348   1.764  11.122 -0.8853  0.2905  0.3586
 4578TIP3    H235226   4.382   1.618  11.104 -0.1501  0.5565 -0.4116
 4579TIP3   OH235227   6.731   4.214   2.561 -0.3978 -0.3780 -0.0278
 4579TIP3    H135228   6.782   4.262   2.626  0.3272 -1.1920  0.0056
 4579TIP3    H235229   6.640   4.241   2.577  0.1161  1.9500 -0.8329
 4580TIP3   OH235230   5.434   6.607  14.072  0.7488 -0.0953 -0.5169
 4580TIP3    H135231   5.364   6.566  14.022 -0.6848 -0.3468  1.6597
 4580TIP3    H235232   5.470   6.537  14.126  0.3825  0.7800  0.8907
 4581TIP3   OH235233   0.399   3.410   3.612  0.3420 -0.1739 -0.0118
 4581TIP3    H135234   0.333   3.409   3.543 -0.6892  0.1579  0.9352
 4581TIP3    H235235   0.434   3.499   3.611  1.5590 -0.6620 -1.2296
 4582TIP3   OH235236   6.455   6.695  16.210 -0.0252  0.7171  0.3859
 4582TIP3    H135237   6.399   6.648  16.273 -0.3878 -0.0252 -0.4753
 4582TIP3    H235238   6.422   6.785  16.212  1.1690  1.1320  2.6202
 4583TIP3   OH235239   3.257   6.408  16.188  0.6103  0.2263 -0.4839
 4583TIP3    H135240   3.300   6.330  16.152  1.2355  0.9317 -1.2747
 4583TIP3    H235241   3.244   6.387  16.281  0.6445 -0.8762 -0.7221
 4584TIP3   OH235242   5.410   5.775   4.485  0.2595 -0.2064 -0.0684
 4584TIP3    H135243   5.401   5.756   4.392  1.2332  0.2612 -0.2665
 4584TIP3    H235244   5.331   5.825   4.507 -0.5710 -1.3746 -0.3482
 4585TIP3   OH235245   2.280   1.728  17.255  0.1082  0.0780 -0.1825
 4585TIP3    H135246   2.317   1.718  17.343  0.5953 -2.1914 -0.6029
 4585TIP3    H235247   2.197   1.681  17.259 -0.7037  1.4706 -0.4605
 4586TIP3   OH235248   0.311   6.707   4.183  0.3537  0.0887  0.7669
 4586TIP3    H135249   0.280   6.722   4.094  1.8473  0.2096  0.2690
 4586TIP3    H235250   0.298   6.613   4.197  1.5982 -0.2198 -0.1406
 4587TIP3   OH235251   0.179   5.424   5.041  0.1291 -0.2540 -0.0154
 4587TIP3    H135252   0.159   5.335   5.071  0.4537 -0.0428  0.8626
 4587TIP3    H235253   0.109   5.444   4.979 -1.6948 -0.0193  2.0361
 4588TIP3   OH235254   0.807   2.533   3.404  0.6392  0.0912  0.2727
 4588TIP3    H135255   0.799   2.438   3.396 -0.5464 -0.0163  2.4303
 4588TIP3    H235256   0.755   2.568   3.331 -2.4800 -0.8798  1.9542
 4589TIP3   OH235257   4.668   1.543   5.503  0.1562 -0.3845  0.1309
 4589TIP3    H135258   4.680   1.616   5.564 -0.5166  0.0491 -0.2557
 4589TIP3    H235259   4.574   1.532   5.497  0.1402  0.9350 -2.4202
 4590TIP3   OH235260   4.086   0.634   5.944 -0.0653 -0.1568  0.7224
 4590TIP3    H135261   4.172   0.668   5.969 -0.2118 -0.7913  2.1580
 4590TIP3    H235262   4.056   0.586   6.021 -1.5102 -0.3366  0.0665
 4591TIP3   OH235263   6.177   2.474  13.322  0.0093 -0.5251  0.4564
 4591TIP3    H135264   6.142   2.444  13.405  1.4263 -1.1700  0.8483
 4591TIP3    H235265   6.197   2.566  13.336 -4.6190  0.7661 -0.8373
 4592TIP3   OH235266   2.754   4.506  11.669 -0.3113 -1.1773  0.3417
 4592TIP3    H135267   2.840   4.509  11.628 -0.9179  0.9020 -0.8850
 4592TIP3    H235268   2.753   4.581  11.728 -2.8496  1.6561 -3.0757
 4593TIP3   OH235269   5.105   3.985   5.470 -0.5851 -0.0338 -0.0345
 4593TIP3    H135270   5.188   4.031   5.458 -1.0992  1.8212  2.8360
 4593TIP3    H235271   5.065   4.028   5.547 -3.2448 -2.2343 -0.1068
 4594TIP3   OH235272   0.577   2.298   1.134  0.7824 -0.5154  0.2179
 4594TIP3    H135273   0.509   2.335   1.078  0.2176 -2.3819 -0.3399
 4594TIP3    H235274   0.658   2.311   1.084  0.3304 -1.8359 -0.8774
 4595TIP3   OH235275   0.782   2.604  14.436  0.3488  0.8961 -0.0379
 4595TIP3    H135276   0.869   2.629  14.404 -0.4362  1.9240 -1.4228
 4595TIP3    H235277   0.782   2.631  14.528  0.5920  3.2734 -0.7179
 4596TIP3   OH235278   1.073   3.436   4.401 -0.1162 -0.7074 -0.0955
 4596TIP3    H135279   1.031   3.371   4.344 -0.8706 -0.2181 -0.1008
 4596TIP3    H235280   1.024   3.432   4.483  1.6999 -2.2459  0.9622
 4597TIP3   OH235281   2.265   3.618  12.490  0.1577  0.1947 -0.1922
 4597TIP3    H135282   2.291   3.688  12.550  1.1997  0.4631 -0.9412
 4597TIP3    H235283   2.324   3.628  12.415 -0.4631 -0.7636 -0.8119
 4598TIP3   OH235284   5.081   4.416   3.497 -0.4749  0.1354 -0.0945
 4598TIP3    H135285   5.022   4.346   3.524 -0.8323  0.2787 -0.4899
 4598TIP3    H235286   5.138   4.375   3.431 -2.3427  0.8493 -2.2123
 4599TIP3   OH235287   2.182   5.829   0.347  0.0544  0.1429  0.1485
 4599TIP3    H135288   2.205   5.777   0.270  0.5238  0.2236  0.2373
 4599TIP3    H235289   2.087   5.844   0.338 -0.1540 -1.0598  0.3414
 4600TIP3   OH235290   2.637   4.622  13.145  0.4001  0.2180  0.1036
 4600TIP3    H135291   2.547   4.655  13.158  0.1095 -0.3693 -0.4045
 4600TIP3    H235292   2.677   4.685  13.085  0.0249 -0.0392 -0.4210
 4601TIP3   OH235293   6.511   5.620   0.416 -0.2454  0.0987 -0.1053
 4601TIP3    H135294   6.461   5.538   0.418 -0.2911  0.1300  0.0610
 4601TIP3    H235295   6.591   5.600   0.465 -0.8903  0.5664  1.1774
 4602TIP3   OH235296   5.360   0.586  14.926  0.3015  0.2170  0.5972
 4602TIP3    H135297   5.333   0.677  14.943 -1.2638 -0.0107 -0.5373
 4602TIP3    H235298   5.437   0.595  14.869 -1.5098  0.8573 -1.8722
 4603TIP3   OH235299   5.785   4.344  11.574  0.3675 -0.1702  0.0066
 4603TIP3    H135300   5.879   4.347  11.555 -0.1059 -0.1151 -2.3897
 4603TIP3    H235301   5.748   4.418  11.527 -0.8370  0.0502  1.2803
 4604TIP3   OH235302   3.800   4.848   5.742  0.1967  0.0051 -0.0153
 4604TIP3    H135303   3.732   4.857   5.675 -0.5166 -0.0056  0.6887
 4604TIP3    H235304   3.855   4.925   5.731  1.0552 -0.8331 -1.6814
 4605TIP3   OH235305   2.247   0.975  15.068  0.1561  0.3606 -0.2876
 4605TIP3    H135306   2.280   0.926  14.993 -0.1680 -1.3946  0.7021
 4605TIP3    H235307   2.315   0.965  15.135 -1.0548 -0.8709  0.7797
 4606TIP3   OH235308   2.688   5.935  12.627 -0.0126  0.4923 -0.1699
 4606TIP3    H135309   2.774   5.910  12.593 -0.0985  1.1633 -0.8843
 4606TIP3    H235310   2.680   5.886  12.709  1.0557  0.4389 -0.0905
 4607TIP3   OH235311   3.600   1.136  15.710  0.2107  0.2611 -0.8094
 4607TIP3    H135312   3.609   1.157  15.618  1.6459 -1.5323 -1.1064
 4607TIP3    H235313   3.622   1.043  15.716  1.3058  0.6308  1.5175
 4608TIP3   OH235314   3.650   2.433  11.187  0.2155 -1.0013 -0.0967
 4608TIP3    H135315   3.686   2.382  11.260  0.4650 -0.4529  0.1665
 4608TIP3    H235316   3.694   2.517  11.193  1.0446 -1.3136 -1.5471
 4609TIP3   OH235317   1.096   5.494  13.605 -0.0872 -0.5171  0.0623
 4609TIP3    H135318   1.117   5.401  13.596  3.0597  0.0792  0.6378
 4609TIP3    H235319   1.168   5.539  13.560 -1.1464  1.6568  0.4833
 4610TIP3   OH235320   3.669   1.001  17.126 -0.1132 -0.1317 -0.4728
 4610TIP3    H135321   3.603   0.935  17.145 -0.8251  0.3752 -1.1702
 4610TIP3    H235322   3.677   1.051  17.208 -0.2399 -0.4955 -0.2356
 4611TIP3   OH235323   1.211   3.773   1.026 -0.3124  0.5006  0.0478
 4611TIP3    H135324   1.220   3.866   1.007  0.4232  0.3379 -0.3773
 4611TIP3    H235325   1.278   3.755   1.092 -1.2210  0.5217  0.9969
 4612TIP3   OH235326   5.330   4.441  13.938  0.0631 -0.0494 -0.1636
 4612TIP3    H135327   5.397   4.384  13.899  1.6812  1.6579  0.0458
 4612TIP3    H235328   5.349   4.527  13.901 -1.4069  0.6443  0.7028
 4613TIP3   OH235329   5.287   1.282   3.268 -0.4472  0.5317 -0.5205
 4613TIP3    H135330   5.253   1.325   3.346 -1.3012 -1.2784  0.1187
 4613TIP3    H235331   5.347   1.216   3.301 -0.6232 -0.0820 -1.4045
 4614TIP3   OH235332   3.450   0.504   5.178 -0.1612  0.1884 -0.6788
 4614TIP3    H135333   3.452   0.414   5.211  0.4374  0.2924 -0.4280
 4614TIP3    H235334   3.525   0.547   5.220  0.0760  0.5623 -1.4744
 4615TIP3   OH235335   4.028   1.708   4.171  0.9623 -0.3029  0.2735
 4615TIP3    H135336   3.983   1.736   4.091  2.3784  0.3228 -0.3227
 4615TIP3    H235337   3.980   1.751   4.241  0.8480  0.6648 -0.3779
 4616TIP3   OH235338   5.307   2.128   1.770 -0.4319 -0.0360 -0.6307
 4616TIP3    H135339   5.246   2.100   1.701 -0.6210  2.2946 -1.4786
 4616TIP3    H235340   5.274   2.214   1.796 -0.3807 -0.8929  2.4294
 4617TIP3   OH235341   0.661   3.413  16.888 -0.0055 -0.5200  0.5357
 4617TIP3    H135342   0.749   3.394  16.920  0.6658 -0.1005 -1.0298
 4617TIP3    H235343   0.606   3.406  16.966  1.9669  3.0274  2.3887
 4618TIP3   OH235344   2.625   2.201   4.813  0.4156  0.2956  0.7781
 4618TIP3    H135345   2.648   2.265   4.880  2.6054  0.2361  0.1331
 4618TIP3    H235346   2.610   2.252   4.734 -0.5481  0.2299  0.9126
 4619TIP3   OH235347   4.825   0.332  13.753 -0.0665  0.3667 -0.1760
 4619TIP3    H135348   4.910   0.333  13.711  0.5324  1.3604  1.0187
 4619TIP3    H235349   4.766   0.375  13.691  0.4210  0.1727 -0.7655
 4620TIP3   OH235350   3.407   0.682   2.327 -0.5063  0.2707 -0.2650
 4620TIP3    H135351   3.393   0.693   2.421  0.3463 -1.6194  0.1054
 4620TIP3    H235352   3.477   0.617   2.321 -1.4264 -0.5534 -2.2119
 4621TIP3   OH235353   2.617   4.318   5.292  0.1175  0.0176 -0.1654
 4621TIP3    H135354   2.621   4.280   5.380  1.4057 -1.3832 -0.7983
 4621TIP3    H235355   2.709   4.325   5.265 -0.2948 -0.2181 -1.6738
 4622TIP3   OH235356   4.603   1.152  12.823 -0.3712 -0.0869 -0.5858
 4622TIP3    H135357   4.622   1.202  12.744  0.8175  0.1958 -0.1418
 4622TIP3    H235358   4.508   1.151  12.829 -0.4347  1.5115 -0.9967
 4623TIP3   OH235359   0.370   1.879  14.960 -0.1339 -0.4881 -0.1145
 4623TIP3    H135360   0.333   1.885  14.872  0.4677  1.7805 -0.2301
 4623TIP3    H235361   0.453   1.834  14.947  0.4735  0.8297 -0.8723
 4624TIP3   OH235362   6.641   4.547   0.996 -0.8759 -0.0600 -0.9540
 4624TIP3    H135363   6.672   4.595   1.072  1.4797 -3.4707  0.3412
 4624TIP3    H235364   6.587   4.477   1.032  0.3100 -1.7427 -2.4045
 4625TIP3   OH235365   5.011   3.158   1.459 -0.2569  1.0469 -0.0508
 4625TIP3    H135366   5.016   3.062   1.454  0.3461  1.0928 -0.2918
 4625TIP3    H235367   5.052   3.188   1.378  0.6255  1.5472  0.5846
 4626TIP3   OH235368   1.396   2.007   0.467 -0.0599  0.0615  0.2541
 4626TIP3    H135369   1.353   1.930   0.430 -1.3674  0.7702  0.2865
 4626TIP3    H235370   1.350   2.082   0.430  0.6392  0.8334  0.8899
 4627TIP3   OH235371   1.361   3.619  14.788  0.0528 -0.2769  0.1778
 4627TIP3    H135372   1.439   3.568  14.809  0.2205  0.1897  0.6960
 4627TIP3    H235373   1.307   3.615  14.867  0.0121  0.2471  0.1818
 4628TIP3   OH235374   4.563   0.235   2.814 -0.3094 -0.2477 -0.0251
 4628TIP3    H135375   4.576   0.295   2.741 -1.4993 -0.9127 -0.7945
 4628TIP3    H235376   4.568   0.148   2.775 -0.0630 -0.6303  0.8456
 4629TIP3   OH235377   3.614   2.310  12.427 -0.7363  0.5950  0.0810
 4629TIP3    H135378   3.526   2.297  12.390 -0.2024  1.0540 -1.4159
 4629TIP3    H235379   3.621   2.246  12.497 -1.7522 -0.3896 -0.7066
 4630TIP3   OH235380   3.958   0.266   4.326 -0.0272 -0.0591  0.2801
 4630TIP3    H135381   3.915   0.350   4.344 -0.5352 -0.5611  1.4735
 4630TIP3    H235382   3.888   0.208   4.297 -0.1129 -0.7663  1.8490
 4631TIP3   OH235383   0.196   3.665  16.610  0.3495  0.3804 -0.4836
 4631TIP3    H135384   0.257   3.595  16.634 -1.6778 -0.6250  1.9303
 4631TIP3    H235385   0.206   3.730  16.679  0.5779  1.4562 -1.5056
 4632TIP3   OH235386   6.341   6.253  12.836  0.2522  0.6692  0.2141
 4632TIP3    H135387   6.345   6.168  12.793 -0.6642  1.0511 -0.6435
 4632TIP3    H235388   6.302   6.311  12.771  1.5373  1.9178  0.5383
 4633TIP3   OH235389   0.603   2.103  11.720 -0.5794 -0.3436  0.1028
 4633TIP3    H135390   0.565   2.181  11.760  0.4353  0.7268 -0.9364
 4633TIP3    H235391   0.686   2.091  11.765 -0.2155 -0.1401 -0.5022
 4634TIP3   OH235392   0.688   4.635   1.531 -0.8551  0.6192  0.3071
 4634TIP3    H135393   0.631   4.706   1.562 -0.9420  0.0061  1.5517
 4634TIP3    H235394   0.633   4.557   1.534 -0.7269  0.4705 -0.9705
 4635TIP3   OH235395   0.647   2.061   0.821  0.3729 -0.0929 -0.2220
 4635TIP3    H135396   0.703   1.984   0.814  0.7253  0.4269 -3.7777
 4635TIP3    H235397   0.705   2.135   0.804 -0.4033  0.8227  1.0244
 4636TIP3   OH235398   5.152   3.187   1.748 -0.1594  0.5382 -0.2793
 4636TIP3    H135399   5.195   3.257   1.699  2.0444 -0.9374 -0.4947
 4636TIP3    H235400   5.067   3.177   1.705  0.7064  1.0381 -2.1730
 4637TIP3   OH235401   2.691   2.404   0.936  0.2006  0.1742  0.7158
 4637TIP3    H135402   2.674   2.309   0.936 -0.8729  0.3512 -1.1454
 4637TIP3    H235403   2.658   2.434   1.020  0.6279 -1.1200  1.3613
 4638TIP3   OH235404   1.132   4.948  15.033  0.2156 -0.3865 -0.6854
 4638TIP3    H135405   1.124   5.043  15.035 -0.0316 -0.4088 -0.5700
 4638TIP3    H235406   1.160   4.924  15.121  0.7816 -0.3750 -0.8654
 4639TIP3   OH235407   3.857   0.540  14.943  0.4071 -0.1996  0.5611
 4639TIP3    H135408   3.816   0.626  14.953  0.9626 -0.0604  1.6544
 4639TIP3    H235409   3.793   0.478  14.978 -0.8742 -0.4739 -2.0625
 4640TIP3   OH235410   4.470   6.447   3.526 -0.3181  0.3409 -0.3645
 4640TIP3    H135411   4.465   6.421   3.434 -0.8889 -1.9407  0.2773
 4640TIP3    H235412   4.563   6.434   3.548 -0.3207  0.2017 -0.4309
 4641TIP3   OH235413   1.679   3.216  11.895  0.3691  0.1392  0.0601
 4641TIP3    H135414   1.584   3.225  11.904  0.5644  0.7351  1.8571
 4641TIP3    H235415   1.706   3.295  11.848  0.3725  1.8836  2.8537
 4642TIP3   OH235416   0.769   1.341   5.873 -0.3083  0.5517 -0.0848
 4642TIP3    H135417   0.682   1.316   5.842 -0.3517  0.0401  0.4344
 4642TIP3    H235418   0.771   1.311   5.964  1.9033 -3.1155 -1.2538
 4643TIP3   OH235419   1.334   2.628   3.565  0.3271 -0.0726 -0.3462
 4643TIP3    H135420   1.415   2.577   3.565 -0.5881 -1.5619 -0.5996
 4643TIP3    H235421   1.271   2.573   3.518 -1.3515  0.1829  1.5310
 4644TIP3   OH235422   2.633   1.501   3.388  0.2420  0.1555 -0.0081
 4644TIP3    H135423   2.687   1.580   3.393  0.8384 -0.2795  0.5445
 4644TIP3    H235424   2.650   1.467   3.300 -1.2062  1.4685 -0.8135
 4645TIP3   OH235425   5.606   1.920   3.860  0.5422  0.0879 -0.1107
 4645TIP3    H135426   5.642   1.996   3.905 -0.1304 -0.0670  0.7028
 4645TIP3    H235427   5.573   1.955   3.777  0.4308  0.6409  0.1652
 4646TIP3   OH235428   0.208   1.566  16.063 -0.0942  0.0526  0.1861
 4646TIP3    H135429   0.242   1.513  15.990  1.8430  1.7179 -0.1824
 4646TIP3    H235430   0.255   1.534  16.140 -0.8963 -0.5670  0.4205
 4647TIP3   OH235431   0.846   2.372   5.281 -0.2678 -0.0993 -0.5623
 4647TIP3    H135432   0.836   2.355   5.187  0.4512 -2.2442 -0.2974
 4647TIP3    H235433   0.913   2.309   5.309 -0.6254  0.3705  1.4210
 4648TIP3   OH235434   6.406   0.369  14.016  0.1840  0.2292  0.2760
 4648TIP3    H135435   6.331   0.313  14.035  1.5500 -0.8212  2.7817
 4648TIP3    H235436   6.473   0.310  13.983  0.9129  0.6943  0.8926
 4649TIP3   OH235437   4.754   2.734  17.181  0.0277  0.3579  0.4523
 4649TIP3    H135438   4.679   2.783  17.216  0.0566  0.8938 -0.2367
 4649TIP3    H235439   4.815   2.729  17.255 -0.4137  0.4658  0.8273
 4650TIP3   OH235440   0.619   3.194  11.881  0.4251 -0.3325 -0.3472
 4650TIP3    H135441   0.571   3.266  11.923  0.8155  0.0622 -0.5787
 4650TIP3    H235442   0.703   3.192  11.927 -0.4028 -2.0479  1.1433
 4651TIP3   OH235443   6.204   6.364   1.498  0.1453  0.0827 -0.0419
 4651TIP3    H135444   6.141   6.347   1.428  0.9539 -0.0855 -0.7404
 4651TIP3    H235445   6.280   6.402   1.454  0.7764 -0.2922  0.6958
 4652TIP3   OH235446   2.478   4.823  14.456 -0.4536  0.0585 -0.0438
 4652TIP3    H135447   2.434   4.749  14.498 -0.9609 -0.1479 -0.9301
 4652TIP3    H235448   2.473   4.893  14.521  0.9280 -0.9691  1.2047
 4653TIP3   OH235449   5.987   2.475  17.049  0.6205 -0.1106  0.2410
 4653TIP3    H135450   5.893   2.463  17.065  0.0168  0.0936 -2.8705
 4653TIP3    H235451   6.026   2.475  17.136 -2.4601  1.4824  1.6999
 4654TIP3   OH235452   4.632   1.095   3.554  0.0000  0.3059 -0.0851
 4654TIP3    H135453   4.577   1.171   3.573  0.2844  0.9139 -1.5977
 4654TIP3    H235454   4.623   1.081   3.460  0.5943 -1.0356  0.0399
 4655TIP3   OH235455   1.374   6.199   0.165  0.1262 -0.1095 -0.4761
 4655TIP3    H135456   1.466   6.228   0.159  0.7932 -2.2338 -0.7021
 4655TIP3    H235457   1.378   6.113   0.207 -1.8231 -0.0251 -0.0587
 4656TIP3   OH235458   0.862   4.341   3.306 -0.7099  0.6680  1.0699
 4656TIP3    H135459   0.815   4.258   3.303  1.6671 -0.7123  1.3201
 4656TIP3    H235460   0.902   4.350   3.220 -1.5596  1.9242  0.7907
 4657TIP3   OH235461   4.639   0.149  16.902 -0.3372  0.4288 -0.3128
 4657TIP3    H135462   4.673   0.239  16.902 -0.8143  0.6105 -0.9068
 4657TIP3    H235463   4.551   0.157  16.866 -1.1764  0.0173  1.5960
 4658TIP3   OH235464   1.304   3.121   3.739  0.1409 -0.1536  0.2082
 4658TIP3    H135465   1.319   3.031   3.766 -0.3409  0.3288  2.1877
 4658TIP3    H235466   1.384   3.167   3.765 -0.2301  0.2813  0.5890
 4659TIP3   OH235467   6.166   0.552  16.377  0.2358  0.2232  0.4826
 4659TIP3    H135468   6.140   0.514  16.293  2.6088  1.5718 -0.9435
 4659TIP3    H235469   6.084   0.582  16.416 -0.7741  0.8812 -2.0331
 4660TIP3   OH235470   4.157   5.744  17.243  0.0338  0.0575 -0.3995
 4660TIP3    H135471   4.149   5.834  17.212 -3.5960  0.0382  0.2451
 4660TIP3    H235472   4.236   5.744  17.296  0.5624  2.6454 -1.1200
 4661TIP3   OH235473   6.347   0.425  12.001  0.0011 -0.6400 -0.2159
 4661TIP3    H135474   6.282   0.442  12.069 -0.5800 -1.7765 -0.4572
 4661TIP3    H235475   6.420   0.385  12.047 -0.0144 -0.5606 -0.1236
 4662TIP3   OH235476   2.125   6.077   0.137 -0.2110 -0.2131  0.0804
 4662TIP3    H135477   2.170   6.064   0.054 -3.6494 -0.3238 -1.8665
 4662TIP3    H235478   2.042   6.030   0.127 -0.4999 -0.6368  3.7688
 4663TIP3   OH235479   2.379   2.174  15.829 -0.4285 -0.2661  0.2523
 4663TIP3    H135480   2.454   2.151  15.884  0.8157  0.2582 -1.1915
 4663TIP3    H235481   2.322   2.226  15.887  1.5643  1.5521  0.6578
 4664TIP3   OH235482   0.029   1.457  15.396  0.9501 -0.8561  0.0448
 4664TIP3    H135483  -0.045   1.444  15.336  0.5090 -0.4497  0.4869
 4664TIP3    H235484   0.053   1.549  15.385  0.4335 -0.6001  0.9660
 4665TIP3   OH235485   5.556   1.135   0.118 -0.8520 -0.4709  0.4703
 4665TIP3    H135486   5.520   1.054   0.082 -1.6105  0.6211 -1.2704
 4665TIP3    H235487   5.495   1.159   0.189 -1.6719 -0.4368 -0.2402
 4666TIP3   OH235488   5.422   1.545  16.652 -0.4192 -0.1525 -0.3965
 4666TIP3    H135489   5.400   1.635  16.629  0.5605  0.5014  1.1326
 4666TIP3    H235490   5.424   1.545  16.747 -0.5296 -1.8242 -0.3863
 4667TIP3   OH235491   0.702   2.232   0.410 -0.7867 -0.2373  0.3572
 4667TIP3    H135492   0.747   2.316   0.418 -0.8842 -0.3400  2.0948
 4667TIP3    H235493   0.636   2.247   0.342 -0.3689  0.8781  0.1835
 4668TIP3   OH235494   5.071   2.864  15.743  0.2209 -0.7229 -0.5955
 4668TIP3    H135495   5.047   2.772  15.751 -0.7928 -0.4595 -0.5332
 4668TIP3    H235496   4.990   2.908  15.719  0.4698  0.2932  0.3630
 4669TIP3   OH235497   2.812   6.392  10.927 -0.6029 -0.0087  0.6756
 4669TIP3    H135498   2.800   6.428  10.839 -0.3542 -0.4157  0.4731
 4669TIP3    H235499   2.826   6.298  10.913 -1.0947 -0.1600  1.1899
 4670TIP3   OH235500   3.903   6.226  12.966 -0.3103  0.3326 -0.8074
 4670TIP3    H135501   3.866   6.235  13.054 -1.9335 -0.3730 -1.4092
 4670TIP3    H235502   3.936   6.136  12.964  0.5913  0.6455 -0.6173
 4671TIP3   OH235503   1.126   3.666  14.229  0.3101 -0.7743  0.3903
 4671TIP3    H135504   1.073   3.700  14.301 -1.2068 -0.6061 -0.7990
 4671TIP3    H235505   1.086   3.582  14.208 -0.9777  0.4384 -2.1116
 4672TIP3   OH235506   4.283   2.239  10.600 -0.1063 -0.1726 -0.5136
 4672TIP3    H135507   4.292   2.204  10.688 -1.6873  0.2759 -0.1523
 4672TIP3    H235508   4.292   2.334  10.611  2.1347 -0.2834 -1.1939
 4673TIP3   OH235509   1.944   1.086  16.116 -0.2373 -0.0603  0.1762
 4673TIP3    H135510   2.036   1.101  16.137 -0.0953 -0.9971  0.2318
 4673TIP3    H235511   1.900   1.167  16.142  0.4670  0.1246  0.8121
 4674TIP3   OH235512   4.718   4.603   6.173  0.0375 -0.0773 -0.1129
 4674TIP3    H135513   4.645   4.574   6.229  0.7868 -0.8683  0.4643
 4674TIP3    H235514   4.775   4.527   6.166  0.0130  0.0453 -1.8952
 4675TIP3   OH235515   4.785   4.383  12.446 -0.5216  0.3868  0.4340
 4675TIP3    H135516   4.704   4.346  12.411 -0.7204  0.5971  0.6714
 4675TIP3    H235517   4.832   4.308  12.482 -0.8532  0.3407  0.7746
 4676TIP3   OH235518   2.682   4.310  13.593 -0.0802  0.1384  0.1103
 4676TIP3    H135519   2.703   4.402  13.576  0.5385  0.1460  0.8577
 4676TIP3    H235520   2.587   4.305  13.587 -0.0858  0.7403 -0.3461
 4677TIP3   OH235521   0.753   0.409  13.770  0.1546  0.3457  0.4300
 4677TIP3    H135522   0.707   0.330  13.798  0.3429 -0.4045 -1.3252
 4677TIP3    H235523   0.683   0.470  13.746  0.0193 -0.3262 -0.9643
 4678TIP3   OH235524   5.043   2.083  14.104 -0.2453 -0.1013  0.0319
 4678TIP3    H135525   5.008   2.098  14.016 -0.2621 -0.1604  0.0285
 4678TIP3    H235526   5.000   2.149  14.159 -0.4314 -0.2367  0.0473
 4679TIP3   OH235527   1.148   4.431   0.436  0.0154 -0.0593 -0.1675
 4679TIP3    H135528   1.054   4.420   0.417 -0.2355 -0.1965  1.1009
 4679TIP3    H235529   1.183   4.473   0.357 -1.1659  0.2502 -0.5507
 4680TIP3   OH235530   1.983   0.940  13.504  0.2746  0.3798 -0.6867
 4680TIP3    H135531   2.070   0.979  13.514 -0.2846  1.6305 -0.6645
 4680TIP3    H235532   1.924   1.000  13.550 -0.3941 -1.2976  0.7074
 4681TIP3   OH235533   5.279   3.099   5.063 -0.0908 -0.4039 -0.3943
 4681TIP3    H135534   5.213   3.158   5.099  0.4622 -0.1888  0.2741
 4681TIP3    H235535   5.234   3.015   5.055 -1.2181  0.3810 -2.4576
 4682TIP3   OH235536   2.746   3.670   1.431 -0.3925 -0.2965  0.7268
 4682TIP3    H135537   2.817   3.645   1.490  1.3298  0.6209 -0.9071
 4682TIP3    H235538   2.710   3.751   1.469  0.7910  0.3606  0.4697
 4683TIP3   OH235539   1.644   0.596   2.729  0.2303 -0.0787 -0.4129
 4683TIP3    H135540   1.740   0.593   2.727  0.4099  2.1835  2.4199
 4683TIP3    H235541   1.621   0.658   2.660  0.7918 -0.5743 -1.0546
 4684TIP3   OH235542   4.401   6.323  11.818 -0.0964 -0.2068  0.2022
 4684TIP3    H135543   4.393   6.309  11.723  0.0287  2.9558 -0.3302
 4684TIP3    H235544   4.493   6.347  11.831  0.1079 -1.5379  1.2758
 4685TIP3   OH235545   0.983   1.938   2.353  0.0482 -0.0479 -0.0071
 4685TIP3    H135546   1.073   1.944   2.321 -0.1715  0.9027 -0.4609
 4685TIP3    H235547   0.972   1.846   2.377  1.0162 -0.2464 -0.3139
 4686TIP3   OH235548   0.078   6.567   0.562 -0.1494 -0.0584 -0.3897
 4686TIP3    H135549   0.143   6.601   0.501  0.6417 -1.4199 -0.3236
 4686TIP3    H235550   0.113   6.586   0.649  0.7860 -1.8914 -0.3412
 4687TIP3   OH235551   4.837   6.444  12.464  0.2869  0.0112  0.6562
 4687TIP3    H135552   4.885   6.526  12.476  3.0325 -1.1132 -2.1284
 4687TIP3    H235553   4.880   6.383  12.524  0.1159 -0.1502  0.6127
 4688TIP3   OH235554   0.736   5.255  16.684 -0.4049 -0.2100 -0.2874
 4688TIP3    H135555   0.724   5.349  16.674 -0.4547  0.2055  3.0334
 4688TIP3    H235556   0.647   5.221  16.695 -0.4104 -0.7037 -1.7982
 4689TIP3   OH235557   2.833   0.019   4.930  0.4713 -0.3847  0.0566
 4689TIP3    H135558   2.738   0.013   4.917  0.4028 -0.4407  0.5578
 4689TIP3    H235559   2.842   0.039   5.023  0.8966  1.0146 -0.2739
 4690TIP3   OH235560   0.076   5.041  13.595  0.1684  0.5700 -0.3702
 4690TIP3    H135561   0.099   4.958  13.553 -1.7307 -0.3392  0.3594
 4690TIP3    H235562   0.044   5.096  13.523 -1.8327 -0.5315 -0.3510
 4691TIP3   OH235563   3.919   0.310   3.358 -0.3641  0.2233  0.0073
 4691TIP3    H135564   3.833   0.284   3.324 -0.4853  3.8033 -2.6074
 4691TIP3    H235565   3.899   0.371   3.429 -0.0346  2.1407 -1.5049
 4692TIP3   OH235566   4.012   4.326   6.510 -0.4827 -0.1300 -0.6005
 4692TIP3    H135567   4.024   4.403   6.565  0.8659 -0.0456 -1.0115
 4692TIP3    H235568   3.921   4.333   6.480 -1.2887 -0.2474  1.6865
 4693TIP3   OH235569   2.982   3.057  15.491  0.3101 -0.2958  0.0256
 4693TIP3    H135570   2.914   3.124  15.489 -0.5661 -1.0352  2.6637
 4693TIP3    H235571   3.063   3.106  15.506 -0.4885  0.1230  3.2762
 4694TIP3   OH235572   0.607   4.557  14.840  0.6764  0.2763 -0.5785
 4694TIP3    H135573   0.603   4.553  14.744 -0.6424 -0.0176 -0.5205
 4694TIP3    H235574   0.575   4.471  14.868  3.3675 -0.5335  0.0823
 4695TIP3   OH235575   3.107   6.056  16.696  0.4073 -0.9668  0.0106
 4695TIP3    H135576   3.017   6.081  16.672  0.6686  0.3359  0.3507
 4695TIP3    H235577   3.162   6.114  16.643  1.0188  2.1917  3.8764
 4696TIP3   OH235578   2.417   0.598  17.154 -0.1308  0.3084  0.5804
 4696TIP3    H135579   2.500   0.613  17.108  0.1740  1.6032  1.5252
 4696TIP3    H235580   2.441   0.594  17.247 -1.1472  0.9449  0.8824
 4697TIP3   OH235581   3.427   1.265  17.047 -0.6097  0.0853 -0.6384
 4697TIP3    H135582   3.438   1.273  17.142 -0.9018 -1.2409 -0.4797
 4697TIP3    H235583   3.335   1.241  17.036 -1.1013  2.2300 -1.3954
 4698TIP3   OH235584   3.798   2.112   0.399  0.5226 -0.2809 -0.1740
 4698TIP3    H135585   3.833   2.082   0.482  0.0275  0.2017  0.2131
 4698TIP3    H235586   3.734   2.179   0.423  0.3716 -0.1495 -0.9399
 4699TIP3   OH235587   3.640   1.062   2.902 -0.6514  0.1407  0.4879
 4699TIP3    H135588   3.562   1.034   2.950  0.1164 -0.2996  1.4945
 4699TIP3    H235589   3.710   1.064   2.968  0.2260  0.3675 -0.4331
 4700TIP3   OH235590   6.490   4.762  13.922  0.6526 -0.7265 -0.1363
 4700TIP3    H135591   6.490   4.823  13.996  1.5551 -0.3290 -0.4528
 4700TIP3    H235592   6.582   4.755  13.897  0.2315  0.1624 -2.0430
 4701TIP3   OH235593   2.641   4.032   5.274  0.4354  0.3196 -0.1855
 4701TIP3    H135594   2.568   4.033   5.336  0.9834 -1.7265  0.5477
 4701TIP3    H235595   2.601   4.051   5.189 -0.9176 -0.6120  0.2320
 4702TIP3   OH235596   5.126   2.195   2.973  0.7648 -0.1669  0.2145
 4702TIP3    H135597   5.119   2.275   3.025 -0.8123 -0.2477  0.1591
 4702TIP3    H235598   5.050   2.143   3.000  1.1967 -1.1864 -0.5206
 4703TIP3   OH235599   5.088   5.993  17.229  0.5256  0.2279  0.5403
 4703TIP3    H135600   5.007   6.042  17.245  0.3443  0.1567 -0.1418
 4703TIP3    H235601   5.153   6.060  17.210 -0.0526  0.1465 -1.8223
 4704TIP3   OH235602   2.138   1.528   7.011  0.5037 -0.8164 -0.1342
 4704TIP3    H135603   2.141   1.624   7.005  0.5576 -0.8444 -0.6282
 4704TIP3    H235604   2.062   1.504   6.959  1.5250 -1.1488 -1.5122
 4705TIP3   OH235605   3.796   4.133   0.404 -0.0234 -0.2843 -0.3834
 4705TIP3    H135606   3.780   4.039   0.392  0.7410 -0.3066 -1.2947
 4705TIP3    H235607   3.822   4.141   0.495  1.1734 -1.1506 -0.6414
 4706TIP3   OH235608   0.256   4.802   5.710 -0.9052  0.1462  0.1834
 4706TIP3    H135609   0.292   4.856   5.780 -1.8144  1.6656 -0.4873
 4706TIP3    H235610   0.269   4.712   5.739  0.6917  0.7254  1.3023
 4707TIP3   OH235611   1.997   2.528   0.324  0.3354  0.1123 -0.0037
 4707TIP3    H135612   2.076   2.519   0.271  0.4489 -1.2359  0.3805
 4707TIP3    H235613   1.925   2.516   0.262  0.4559 -0.6341  0.0037
 4708TIP3   OH235614   6.509   4.830   3.119  0.1092 -0.2545  1.0908
 4708TIP3    H135615   6.519   4.884   3.040 -0.3957 -1.2613  0.3287
 4708TIP3    H235616   6.425   4.786   3.106  0.2793 -0.8244  1.9532
 4709TIP3   OH235617   4.504   4.476   3.376  0.3432  0.0380 -0.4550
 4709TIP3    H135618   4.427   4.436   3.336  0.3922 -0.3078 -0.2016
 4709TIP3    H235619   4.478   4.568   3.391 -0.5040 -0.3989  0.8851
 4710TIP3   OH235620   3.333   3.614   0.585  0.0302  0.3062  0.2724
 4710TIP3    H135621   3.348   3.594   0.493  0.3300  0.4309  0.2928
 4710TIP3    H235622   3.320   3.529   0.627  0.3992  0.2176  0.2047
 4711TIP3   OH235623   0.061   0.323   0.073 -0.0453  0.0493  0.1724
 4711TIP3    H135624   0.126   0.281   0.130  0.0795  1.0191  0.7620
 4711TIP3    H235625  -0.017   0.269   0.081 -0.2769  0.6368  1.8897
 4712TIP3   OH235626   4.758   5.607   0.910  0.0757 -0.3190 -0.1257
 4712TIP3    H135627   4.663   5.610   0.905 -0.0025 -0.3606  1.2666
 4712TIP3    H235628   4.777   5.599   1.003  1.4446 -0.2056 -0.3883
 4713TIP3   OH235629   2.090   3.378   3.142 -0.1975 -0.0261 -0.1063
 4713TIP3    H135630   2.110   3.390   3.234 -1.9143 -1.2616  0.4633
 4713TIP3    H235631   2.174   3.361   3.100  0.3974 -1.0440  1.4884
 4714TIP3   OH235632   6.690   0.404  13.691  0.1194 -0.1962 -0.4140
 4714TIP3    H135633   6.661   0.445  13.773  1.6458 -0.5423  0.3180
 4714TIP3    H235634   6.657   0.462  13.622  0.9914  1.4855  0.5411
 4715TIP3   OH235635   3.084   3.531   5.378  0.5231  0.0770 -0.4753
 4715TIP3    H135636   3.045   3.483   5.451 -1.0876  0.1855 -1.2506
 4715TIP3    H235637   3.154   3.583   5.419  0.1301 -0.4178  0.8713
 4716TIP3   OH235638   1.028   2.951  13.683  0.3461 -0.0627  0.3312
 4716TIP3    H135639   1.030   3.034  13.731 -1.9859  0.5972 -0.6014
 4716TIP3    H235640   1.029   2.977  13.591 -1.3571 -0.9872  0.0213
 4717TIP3   OH235641   3.893   3.243   4.952 -0.4933 -0.5050  0.1886
 4717TIP3    H135642   3.869   3.152   4.931  1.4327 -1.0300  0.1904
 4717TIP3    H235643   3.962   3.235   5.018 -1.5550  1.0035  1.5078
 4718TIP3   OH235644   0.403   4.444  16.415  0.5576  0.2206 -0.3946
 4718TIP3    H135645   0.476   4.391  16.383  0.9955  0.6301 -0.0930
 4718TIP3    H235646   0.405   4.522  16.360  1.1397  0.8012  0.4294
 4719TIP3   OH235647   2.959   4.069   3.339 -1.0667 -0.3431 -0.5679
 4719TIP3    H135648   2.938   4.147   3.391 -1.1167 -0.1665 -0.8535
 4719TIP3    H235649   2.927   3.996   3.392  1.0981 -0.3367  0.8285
 4720TIP3   OH235650   6.405   6.685  11.714 -0.3079 -0.0207 -0.1493
 4720TIP3    H135651   6.323   6.721  11.680 -0.4548 -3.6714 -4.0114
 4720TIP3    H235652   6.380   6.647  11.798 -2.0448  1.0424 -0.1417
 4721TIP3   OH235653   4.339   1.547  13.102 -0.2714 -0.0054  0.3976
 4721TIP3    H135654   4.428   1.546  13.068  0.0012 -0.0407  1.0891
 4721TIP3    H235655   4.329   1.635  13.140 -0.8737  0.3470 -0.5454
 4722TIP3   OH235656   2.497   6.269   1.935 -0.7911 -0.0484 -0.3181
 4722TIP3    H135657   2.518   6.192   1.882  1.0569  0.0240  0.2726
 4722TIP3    H235658   2.575   6.323   1.930 -1.3180  0.8434  0.9333
 4723TIP3   OH235659   3.505   6.273   5.641 -0.7591  0.1783  0.5357
 4723TIP3    H135660   3.451   6.326   5.582 -0.8786 -0.7060 -0.1652
 4723TIP3    H235661   3.595   6.300   5.622 -0.9813  2.4672  2.4985
 4724TIP3   OH235662   1.248   1.071  15.554 -0.5894  0.8849  0.4646
 4724TIP3    H135663   1.272   1.010  15.624 -0.5286  1.0438  0.5840
 4724TIP3    H235664   1.330   1.089  15.508 -0.8444 -0.1526 -0.3928
 4725TIP3   OH235665   5.148   2.680   2.013  0.3657  0.2000  0.2505
 4725TIP3    H135666   5.174   2.751   2.072  2.3906 -0.4737  0.2219
 4725TIP3    H235667   5.150   2.719   1.926 -1.1076  0.7872  0.4683
 4726TIP3   OH235668   6.264   0.944   2.374  0.0560 -0.2339 -0.1901
 4726TIP3    H135669   6.236   0.969   2.286 -1.9743 -1.4176  0.0916
 4726TIP3    H235670   6.186   0.904   2.414  1.5068 -1.5127  1.4479
 4727TIP3   OH235671   3.851   6.071   5.034 -0.6233 -0.2102  0.8309
 4727TIP3    H135672   3.807   6.075   4.949 -0.5005  0.1031  0.7821
 4727TIP3    H235673   3.941   6.098   5.015 -0.8381  0.8171  1.2282
 4728TIP3   OH235674   4.090   5.868   6.563  0.5088  0.2374 -0.6356
 4728TIP3    H135675   4.173   5.882   6.608 -0.4270  2.2815  0.5000
 4728TIP3    H235676   4.035   5.824   6.627 -0.0355  0.9669 -0.6005
 4729TIP3   OH235677   0.310   5.863   2.550 -0.3445  0.0115 -0.1792
 4729TIP3    H135678   0.360   5.945   2.552  1.5848 -1.1222 -0.9951
 4729TIP3    H235679   0.299   5.844   2.456  1.4067 -1.9620 -0.0052
 4730TIP3   OH235680   0.587   1.784   5.792  0.2278 -0.0389  0.0686
 4730TIP3    H135681   0.679   1.801   5.772  0.4102 -0.2330  0.7083
 4730TIP3    H235682   0.554   1.868   5.823 -0.5904  0.7756 -2.9451
 4731TIP3   OH235683   1.071   3.012  14.733 -0.2208  0.0927 -0.5987
 4731TIP3    H135684   1.034   3.090  14.692 -2.8859 -1.0886 -0.5424
 4731TIP3    H235685   1.096   2.956  14.660  2.8634  1.4555 -0.6651
 4732TIP3   OH235686   5.443   5.331  16.711  0.1700  0.0191 -0.3829
 4732TIP3    H135687   5.434   5.310  16.804  2.0802 -1.3067 -0.4669
 4732TIP3    H235688   5.504   5.265  16.677  1.5631  2.0485 -2.0054
 4733TIP3   OH235689   2.186   0.992  17.184 -1.3075 -0.2464 -0.2018
 4733TIP3    H135690   2.246   1.044  17.131 -0.2816 -0.2183  0.9498
 4733TIP3    H235691   2.182   0.907  17.139  1.9338 -1.2445  1.2451
 4734TIP3   OH235692   1.011   5.266   0.746  0.5446  0.1942  0.1632
 4734TIP3    H135693   0.918   5.269   0.723  0.5813 -0.7928 -0.1585
 4734TIP3    H235694   1.034   5.173   0.740  1.4646  0.3859  0.5967
 4735TIP3   OH235695   5.043   1.504  15.953 -0.1537 -0.3754 -0.4276
 4735TIP3    H135696   5.047   1.489  15.858 -1.3605  0.7378 -0.6732
 4735TIP3    H235697   5.117   1.560  15.972 -0.0516 -0.3973 -0.7552
 4736TIP3   OH235698   5.795   4.162  13.660 -0.3392 -0.4400 -0.0293
 4736TIP3    H135699   5.845   4.239  13.633  0.0684 -0.5720  0.3423
 4736TIP3    H235700   5.843   4.088  13.622 -0.3129 -0.5584  0.2304
 4737TIP3   OH235701   2.870   0.219   6.155  0.1085  0.8655  0.0002
 4737TIP3    H135702   2.952   0.201   6.201  0.4391 -2.0356 -1.6121
 4737TIP3    H235703   2.817   0.265   6.220  1.6069 -0.5943  2.3670
 4738TIP3   OH235704   5.193   4.963   1.184 -0.4025  0.6421  0.0498
 4738TIP3    H135705   5.164   5.051   1.207  1.1404  1.3168 -0.5069
 4738TIP3    H235706   5.276   4.953   1.232  0.0412 -0.0325 -0.8596
 4739TIP3   OH235707   2.295   4.513  11.954  0.4188 -0.6897 -0.0092
 4739TIP3    H135708   2.300   4.434  11.900  1.0991 -0.0036 -0.9729
 4739TIP3    H235709   2.334   4.488  12.037  2.3671 -0.8601 -0.9517
 4740TIP3   OH235710   6.510   4.781   2.286 -0.0636  0.2558  0.4643
 4740TIP3    H135711   6.513   4.756   2.194  0.7961 -0.7923  0.7714
 4740TIP3    H235712   6.454   4.715   2.328 -0.5843  0.8194  0.6757
 4741TIP3   OH235713   4.702   0.065  13.627 -0.3617  0.3308  0.0642
 4741TIP3    H135714   4.784   0.066  13.676 -0.1061  0.9424 -0.3711
 4741TIP3    H235715   4.635   0.047  13.692 -0.0032  0.9804  0.6197
 4742TIP3   OH235716   1.796   3.858  12.397  0.0020  0.4842 -0.1425
 4742TIP3    H135717   1.868   3.886  12.453 -1.4951  0.7364  1.7057
 4742TIP3    H235718   1.799   3.762  12.401  1.0981  0.4720 -1.2071
 4743TIP3   OH235719   3.620   6.057  13.075 -0.2877 -0.2707  0.7945
 4743TIP3    H135720   3.633   5.990  13.142 -2.4068  0.8391  2.3757
 4743TIP3    H235721   3.659   6.136  13.112  0.5667 -0.1742 -0.2731
 4744TIP3   OH235722   1.531   1.003   1.631 -0.2001 -0.4660 -0.2235
 4744TIP3    H135723   1.530   0.908   1.618 -0.5015 -0.5373  0.3292
 4744TIP3    H235724   1.610   1.032   1.585 -0.5355 -0.8857 -1.0971
 4745TIP3   OH235725   4.458   5.806  16.113 -0.1702  0.1720  0.3469
 4745TIP3    H135726   4.382   5.759  16.079 -0.8637  0.4069  1.5682
 4745TIP3    H235727   4.422   5.886  16.150  1.0060  1.7390 -1.7547
 4746TIP3   OH235728   1.229   5.312  12.989  0.5027 -0.3971 -0.3630
 4746TIP3    H135729   1.150   5.264  13.014  2.9920 -4.0940  0.6577
 4746TIP3    H235730   1.261   5.350  13.071  0.1629  0.5575 -0.6663
 4747TIP3   OH235731   6.374   2.490  15.515 -0.2747 -0.1087  0.5205
 4747TIP3    H135732   6.325   2.572  15.508  1.5543  0.9974  0.1556
 4747TIP3    H235733   6.358   2.459  15.604  0.7733  1.8245  1.4118
 4748TIP3   OH235734   1.902   4.775   6.679  0.2397  0.4154  0.3682
 4748TIP3    H135735   1.913   4.787   6.584  0.4436 -0.8233  0.2241
 4748TIP3    H235736   1.822   4.823   6.699 -0.0653  0.3102 -0.5295
 4749TIP3   OH235737   3.344   4.686  15.512 -0.2631 -0.5667  0.1978
 4749TIP3    H135738   3.417   4.723  15.563 -0.6151  0.9013 -0.3366
 4749TIP3    H235739   3.308   4.761  15.464 -0.8724 -1.6593 -1.0772
 4750TIP3   OH235740   2.177   6.004   6.120  0.1754  0.1879  0.3951
 4750TIP3    H135741   2.192   5.914   6.092 -0.4915 -0.6439  2.6286
 4750TIP3    H235742   2.090   6.026   6.088  0.0124 -0.2554  0.5279
 4751TIP3   OH235743   0.602   2.342   2.955  0.8260  0.4833  0.3712
 4751TIP3    H135744   0.555   2.421   2.931  0.6928  1.1135  2.5667
 4751TIP3    H235745   0.679   2.373   3.002  0.4085 -0.6640  1.8849
 4752TIP3   OH235746   0.625   3.354   4.015 -0.0967 -0.1401  0.2538
 4752TIP3    H135747   0.660   3.434   3.977 -0.8617  0.2197  0.2932
 4752TIP3    H235748   0.588   3.306   3.941  2.5755 -1.6551 -0.1674
 4753TIP3   OH235749   0.294   4.502  16.661 -0.1411  0.2560 -0.1136
 4753TIP3    H135750   0.315   4.591  16.688  1.0800  0.0530 -0.3227
 4753TIP3    H235751   0.314   4.500  16.567  0.2781 -0.3446 -0.0204
 4754TIP3   OH235752   0.154   4.710  14.438 -0.2168  0.1507  0.0288
 4754TIP3    H135753   0.227   4.677  14.489  0.8416  0.8497 -1.0202
 4754TIP3    H235754   0.110   4.631  14.405  1.2932 -0.2581 -1.0545
 4755TIP3   OH235755   5.521   0.213  14.956  0.0102  0.7189  0.2050
 4755TIP3    H135756   5.582   0.156  14.909 -0.1598  0.8547 -0.1843
 4755TIP3    H235757   5.483   0.157  15.024  0.2811  0.5278  0.1981
 4756TIP3   OH235758   3.222   1.789  15.096 -0.1065 -0.0272 -0.1168
 4756TIP3    H135759   3.188   1.872  15.064  0.1568 -0.0117 -0.3557
 4756TIP3    H235760   3.202   1.789  15.189 -1.2869 -0.2729 -0.3697
 4757TIP3   OH235761   0.567   0.324  15.836  0.1351 -0.0387 -0.3557
 4757TIP3    H135762   0.601   0.250  15.887 -1.3733  0.2442  1.0849
 4757TIP3    H235763   0.540   0.285  15.752 -0.5107 -1.1067  0.3429
 4758TIP3   OH235764   5.057   4.804   2.530 -0.7129 -0.1959 -0.1398
 4758TIP3    H135765   4.965   4.830   2.522 -0.5160 -0.0835 -2.4520
 4758TIP3    H235766   5.104   4.867   2.475  0.5087 -1.4021 -0.5070
 4759TIP3   OH235767   2.272   1.392  14.557  0.0047 -0.1292 -0.3324
 4759TIP3    H135768   2.229   1.376  14.641  0.7915 -1.0968 -0.1071
 4759TIP3    H235769   2.201   1.421  14.500 -0.6800 -0.2213  0.4530
 4760TIP3   OH235770   3.039   2.494  13.850 -0.0310  0.1695 -0.1229
 4760TIP3    H135771   3.075   2.536  13.929  1.4396 -0.2856 -0.5277
 4760TIP3    H235772   3.003   2.566  13.799 -4.8502  0.0840  2.8221
 4761TIP3   OH235773   5.758   3.733   0.285  0.0298 -0.0873  0.2335
 4761TIP3    H135774   5.697   3.749   0.357 -1.0165 -2.1863 -0.1407
 4761TIP3    H235775   5.842   3.714   0.327 -0.0043  1.0021  0.8069
 4762TIP3   OH235776   5.812   5.894  14.552 -0.4438 -0.3208  0.0697
 4762TIP3    H135777   5.835   5.985  14.568 -0.4630 -0.3223  0.1086
 4762TIP3    H235778   5.809   5.855  14.639 -3.2761  0.3178  0.2991
 4763TIP3   OH235779   0.474   4.452   0.340 -0.1973 -0.6499  0.2148
 4763TIP3    H135780   0.519   4.368   0.339  2.4698  0.7245 -1.7618
 4763TIP3    H235781   0.414   4.448   0.266 -0.3739 -0.9555  0.3730
 4764TIP3   OH235782   1.852   3.325  14.570  0.2601  0.7563 -0.0465
 4764TIP3    H135783   1.925   3.294  14.517 -0.6353 -1.4947 -0.0161
 4764TIP3    H235784   1.884   3.319  14.660  0.6797  1.5974 -0.1300
 4765TIP3   OH235785   2.718   6.106   1.378 -0.1942  0.3840 -0.2494
 4765TIP3    H135786   2.642   6.058   1.345 -0.5740 -1.1545  2.6483
 4765TIP3    H235787   2.785   6.039   1.388  0.4483  1.1245  0.4086
 4766TIP3   OH235788   4.530   1.772  12.697  0.4828 -0.0101  0.3437
 4766TIP3    H135789   4.537   1.838  12.766  0.2258 -0.4799  0.8235
 4766TIP3    H235790   4.519   1.689  12.744 -0.2097 -0.2701 -0.2672
 4767TIP3   OH235791   6.227   5.142   5.455 -0.5414 -0.2401 -0.2155
 4767TIP3    H135792   6.216   5.197   5.532 -0.6899 -0.2508 -0.2294
 4767TIP3    H235793   6.145   5.150   5.407 -0.2964  0.0906 -0.5859
 4768TIP3   OH235794   1.745   2.343  14.618  0.0021  0.6824  0.5086
 4768TIP3    H135795   1.771   2.427  14.656  3.4144 -0.1238  0.1038
 4768TIP3    H235796   1.826   2.293  14.612 -1.5036 -1.6155 -1.8740
 4769TIP3   OH235797   6.639   0.195   5.383  0.2045 -0.1700  0.3346
 4769TIP3    H135798   6.565   0.140   5.357  0.6650 -0.8456  0.4369
 4769TIP3    H235799   6.693   0.202   5.304 -0.2855  0.8240  0.0954
 4770TIP3   OH235800   6.589   1.984  12.226 -0.4278 -0.0289 -0.2492
 4770TIP3    H135801   6.658   2.043  12.258  1.8367 -3.2368  1.1586
 4770TIP3    H235802   6.516   2.041  12.203  1.4573  3.2333  1.5396
 4771TIP3   OH235803   2.638   2.745   2.477  0.3171 -0.3322  0.2303
 4771TIP3    H135804   2.561   2.699   2.508 -0.2000  1.6466  2.0328
 4771TIP3    H235805   2.699   2.743   2.550  1.2888 -0.3582 -0.5656
 4772TIP3   OH235806   5.357   0.138  14.656 -0.1467  0.2346 -0.2448
 4772TIP3    H135807   5.409   0.218  14.662 -0.3606  0.4463 -1.1410
 4772TIP3    H235808   5.267   0.167  14.671  0.1458 -0.3667  2.8611
 4773TIP3   OH235809   5.503   3.107  15.896 -0.1705 -0.3867 -0.3862
 4773TIP3    H135810   5.441   3.177  15.875  0.3543  0.7104  1.5414
 4773TIP3    H235811   5.454   3.050  15.955 -0.1808 -0.9432 -0.9348
 4774TIP3   OH235812   4.786   4.775  11.186 -0.3365  0.3414  0.2514
 4774TIP3    H135813   4.694   4.758  11.163 -0.1268  0.8665 -1.0399
 4774TIP3    H235814   4.784   4.857  11.236 -0.6265  0.0473  0.7263
 4775TIP3   OH235815   2.234   3.588   5.130 -0.0378  0.7868 -0.6410
 4775TIP3    H135816   2.207   3.514   5.184 -0.1797  0.8783 -0.5851
 4775TIP3    H235817   2.184   3.577   5.049 -1.7096  2.0122  0.1980
 4776TIP3   OH235818   6.031   4.011   3.762  0.4178 -0.6543 -0.4033
 4776TIP3    H135819   5.964   4.078   3.776 -0.0299 -0.7236 -2.1802
 4776TIP3    H235820   5.985   3.928   3.780  0.2756 -0.6482 -0.7425
 4777TIP3   OH235821   0.144   2.766  13.394 -0.2148  0.3225 -0.1249
 4777TIP3    H135822   0.091   2.814  13.331  1.4255  0.6001 -1.3319
 4777TIP3    H235823   0.131   2.674  13.371 -1.2583  0.3023  0.4923
 4778TIP3   OH235824   5.921   4.584   4.116  0.0657  0.1219 -0.8638
 4778TIP3    H135825   5.900   4.525   4.189 -1.3455  0.1628 -1.2207
 4778TIP3    H235826   5.926   4.671   4.156  1.2738 -0.1087 -0.4859
 4779TIP3   OH235827   6.280   0.674   2.173 -0.4003  0.0136  0.3767
 4779TIP3    H135828   6.366   0.709   2.149 -0.0958 -0.4106  0.8335
 4779TIP3    H235829   6.285   0.661   2.268 -1.6163  1.7259  0.6904
 4780TIP3   OH235830   6.063   1.434  14.335  0.0247 -0.0906 -0.0326
 4780TIP3    H135831   6.050   1.341  14.352  0.1830 -0.0174  0.4935
 4780TIP3    H235832   6.155   1.440  14.307 -0.0766 -0.1346 -0.3762
 4781TIP3   OH235833   6.647   4.639   4.672 -0.5474  0.4384  0.0974
 4781TIP3    H135834   6.557   4.620   4.697 -0.5710 -0.6822 -0.7918
 4781TIP3    H235835   6.644   4.648   4.576  0.1416  1.1895  0.1367
 4782TIP3   OH235836   4.779   6.210   6.279  0.1650 -0.4321  0.2494
 4782TIP3    H135837   4.780   6.231   6.373  0.5321  0.9371 -0.0418
 4782TIP3    H235838   4.863   6.243   6.247 -0.2700 -0.2389 -0.6990
 4783TIP3   OH235839   5.064   5.307  17.033  0.7781 -0.9457 -0.2459
 4783TIP3    H135840   5.114   5.228  17.012  0.6786 -1.7746  2.4050
 4783TIP3    H235841   4.985   5.274  17.076 -0.2363  0.5273 -0.9701
 4784TIP3   OH235842   3.366   4.395   4.932 -0.3510 -0.8109  0.6722
 4784TIP3    H135843   3.315   4.450   4.992 -1.2888 -0.6401 -0.2684
 4784TIP3    H235844   3.323   4.406   4.847  3.0689  1.7800 -0.8319
 4785TIP3   OH235845   4.129   5.575   5.896 -0.4788  0.1175  0.5661
 4785TIP3    H135846   4.201   5.610   5.842 -0.2183 -1.1828  0.0471
 4785TIP3    H235847   4.059   5.640   5.886 -0.3117  0.0775 -1.0699
 4786TIP3   OH235848   2.194   5.512  13.143  0.0441 -0.2274  0.2814
 4786TIP3    H135849   2.216   5.606  13.142  0.3999 -0.3133  0.1217
 4786TIP3    H235850   2.262   5.471  13.091  0.0838 -0.6203  0.6421
 4787TIP3   OH235851   5.787   4.967  12.188  0.1995  0.2435 -0.2535
 4787TIP3    H135852   5.802   5.047  12.137 -1.9111 -0.0368 -1.3959
 4787TIP3    H235853   5.871   4.921  12.185  0.8055  1.3692 -1.4668
 4788TIP3   OH235854   0.079   2.281  17.077 -0.2917  0.3723  0.0770
 4788TIP3    H135855   0.088   2.352  17.013 -1.5226  0.8501  0.4180
 4788TIP3    H235856   0.143   2.215  17.049  1.1144  1.7537 -0.0567
 4789TIP3   OH235857   2.299   4.955  11.828  0.6241  0.9467  0.4896
 4789TIP3    H135858   2.355   4.879  11.809 -2.5863 -1.6115  0.8708
 4789TIP3    H235859   2.283   4.949  11.922 -0.6870  1.3776  0.2913
 4790TIP3   OH235860   2.458   4.832   1.857 -0.2547  0.4096 -0.2252
 4790TIP3    H135861   2.413   4.833   1.773  0.7361  1.6211 -0.7586
 4790TIP3    H235862   2.417   4.902   1.907  0.3282  0.8388 -0.3402
 4791TIP3   OH235863   5.088   0.697  16.707  0.7978 -0.4714 -0.1623
 4791TIP3    H135864   5.143   0.635  16.659 -1.0479  0.5191 -3.6980
 4791TIP3    H235865   5.033   0.641  16.763  1.2598 -1.8303 -1.0310
 4792TIP3   OH235866   0.867   3.155  15.760 -0.1640  0.4267 -0.1519
 4792TIP3    H135867   0.871   3.119  15.849  0.8249  2.1110  0.5105
 4792TIP3    H235868   0.782   3.198  15.756  0.2753  1.3763  0.4107
 4793TIP3   OH235869   4.850   3.114   3.595  0.2169 -0.2299 -0.1462
 4793TIP3    H135870   4.815   3.030   3.566  0.0123 -0.6938  1.3852
 4793TIP3    H235871   4.929   3.126   3.542  0.5178 -1.6260 -0.0445
 4794TIP3   OH235872   5.105   6.027   1.519  0.0705  0.2019  0.2447
 4794TIP3    H135873   5.091   6.114   1.557  3.5873  1.4161 -1.1038
 4794TIP3    H235874   5.183   5.994   1.563 -1.3511 -2.4154  0.8916
 4795TIP3   OH235875   3.499   5.740  12.933 -0.1369  0.3972  0.2534
 4795TIP3    H135876   3.413   5.742  12.975 -1.7732  1.5765 -2.9868
 4795TIP3    H235877   3.481   5.715  12.842  2.4856  4.3487 -1.4729
 4796TIP3   OH235878   1.859   1.070   3.615 -0.0432 -0.2696  0.0777
 4796TIP3    H135879   1.917   0.994   3.611  0.5228  0.1782 -0.2755
 4796TIP3    H235880   1.807   1.065   3.535 -0.0167 -0.2892  0.0618
 4797TIP3   OH235881   0.969   2.719  14.941  0.0026  1.4089  0.1254
 4797TIP3    H135882   0.966   2.814  14.943 -0.3401  1.3960  0.3729
 4797TIP3    H235883   0.981   2.697  14.848  1.4316  1.7167  0.2371
 4798TIP3   OH235884   5.690   5.519   0.476 -0.4190  0.1322 -0.7310
 4798TIP3    H135885   5.609   5.471   0.463  0.9148 -1.7635 -2.3979
 4798TIP3    H235886   5.752   5.453   0.508  0.6589  1.3956 -0.1815
 4799TIP3   OH235887   4.478   3.344  14.928  0.1573 -0.4521 -0.4207
 4799TIP3    H135888   4.425   3.394  14.867  0.2308  0.1712  0.0212
 4799TIP3    H235889   4.539   3.294  14.873  0.1217 -0.0183 -0.8513
 4800TIP3   OH235890   6.600   2.016  16.531  1.2718 -0.1823  0.1510
 4800TIP3    H135891   6.692   1.990  16.535  1.8739  2.0375  2.8663
 4800TIP3    H235892   6.556   1.956  16.591  1.3329  0.0520  0.4344
 4801TIP3   OH235893   1.403   0.480   3.859  0.2201 -0.0264  0.5461
 4801TIP3    H135894   1.450   0.399   3.840  0.7233  0.2969  0.3789
 4801TIP3    H235895   1.312   0.454   3.871 -0.1836 -0.2437 -2.4741
 4802TIP3   OH235896   4.859   2.668  11.879 -0.2682  0.4881  0.5281
 4802TIP3    H135897   4.949   2.699  11.863 -0.5608  0.6486 -0.9441
 4802TIP3    H235898   4.858   2.642  11.971  1.2666  0.5704  0.5821
 4803TIP3   OH235899   4.990   5.424   0.603  0.1607  0.4588  0.6509
 4803TIP3    H135900   5.011   5.414   0.510 -0.3641  0.1954  0.5568
 4803TIP3    H235901   4.900   5.456   0.603 -0.5709 -1.5221  1.1132
 4804TIP3   OH235902   1.289   0.898  15.753 -0.0309 -0.2308  0.8572
 4804TIP3    H135903   1.261   0.970  15.809 -0.7489 -0.3157  0.6122
 4804TIP3    H235904   1.333   0.837  15.813 -0.4350 -0.1321  1.2608
 4805TIP3   OH235905   4.313   4.555   1.506  0.0391 -0.8100  0.4297
 4805TIP3    H135906   4.314   4.605   1.588 -1.3098  1.1392 -0.6907
 4805TIP3    H235907   4.406   4.543   1.485  0.4025  1.0161  0.8663
 4806TIP3   OH235908   6.663   5.468  14.527  0.0574  0.4337  0.3751
 4806TIP3    H135909   6.700   5.442  14.443  0.1207  3.3808 -0.5566
 4806TIP3    H235910   6.647   5.562  14.518 -1.7293  0.4263  2.9842
 4807TIP3   OH235911   2.621   2.757  11.085 -0.3649  0.0582  0.2328
 4807TIP3    H135912   2.696   2.815  11.095 -0.7672  1.1687 -2.7288
 4807TIP3    H235913   2.574   2.763  11.169  1.0744  1.8639  0.9289
 4808TIP3   OH235914   3.899   5.965  11.951 -0.2584 -0.2745 -0.0051
 4808TIP3    H135915   3.913   5.967  11.856 -1.9577 -2.2741 -0.3311
 4808TIP3    H235916   3.821   6.018  11.965  1.5482  2.2892  0.6214
 4809TIP3   OH235917   0.277   1.929   5.661 -0.5440  0.2454  0.7641
 4809TIP3    H135918   0.227   2.007   5.637 -1.7141 -0.7748 -0.1615
 4809TIP3    H235919   0.365   1.962   5.677 -0.6262  1.5360 -1.2091
 4810TIP3   OH235920   4.065   2.161   5.807  0.7388  0.2332  0.2476
 4810TIP3    H135921   4.134   2.158   5.873  0.2755 -0.0813  0.7209
 4810TIP3    H235922   4.007   2.231   5.837  0.4585  0.0030  0.2372
 4811TIP3   OH235923   4.089   3.461  12.019  0.2722 -0.2076 -0.9037
 4811TIP3    H135924   4.129   3.474  11.933 -0.5647  0.6583 -1.1692
 4811TIP3    H235925   4.158   3.420  12.071  1.2372  0.4911 -1.6011
 4812TIP3   OH235926   0.030   5.518  13.277 -0.5631 -0.3816 -0.2035
 4812TIP3    H135927  -0.018   5.558  13.350 -1.2689  0.0246 -0.8914
 4812TIP3    H235928   0.071   5.440  13.316  1.6951  1.5271  1.4320
 4813TIP3   OH235929   4.120   5.208  15.578 -0.4330  0.3714  0.4009
 4813TIP3    H135930   4.116   5.116  15.552  2.9586  0.2943 -0.0863
 4813TIP3    H235931   4.036   5.244  15.551 -1.0124 -2.1326 -1.3222
 4814TIP3   OH235932   1.442   4.658   0.918 -0.2544  0.1581 -0.3101
 4814TIP3    H135933   1.521   4.644   0.866  0.6895  1.2241  0.8376
 4814TIP3    H235934   1.370   4.636   0.858  0.8978 -0.8590 -1.3354
 4815TIP3   OH235935   1.233   6.657  16.202  0.2128  0.3731  0.0670
 4815TIP3    H135936   1.232   6.586  16.265  0.3664  0.2207 -0.1020
 4815TIP3    H235937   1.163   6.636  16.140  0.3986  0.2539 -0.1049
 4816TIP3   OH235938   1.707   1.693  12.928  0.5549 -0.2450 -0.2689
 4816TIP3    H135939   1.647   1.620  12.915  0.9590 -0.6536  0.1812
 4816TIP3    H235940   1.676   1.760  12.867  0.7916 -1.1588 -1.4122
 4817TIP3   OH235941   6.691   2.391   4.534 -0.2693  0.6147 -0.0069
 4817TIP3    H135942   6.769   2.442   4.510  0.9328 -0.8868  0.5859
 4817TIP3    H235943   6.620   2.455   4.537  0.8790  1.9594 -0.8884
 4818TIP3   OH235944   6.701   2.533  14.236  0.0544 -1.0041 -0.7812
 4818TIP3    H135945   6.765   2.575  14.294 -1.6206  1.4263 -0.6097
 4818TIP3    H235946   6.716   2.439  14.248  1.2431 -0.5316  1.9128
 4819TIP3   OH235947   3.380   0.661   4.075 -0.2277 -0.0532 -0.2737
 4819TIP3    H135948   3.359   0.753   4.090 -0.1353  0.2415 -1.8659
 4819TIP3    H235949   3.332   0.638   3.995  0.6759 -1.0585 -0.5394
 4820TIP3   OH235950   5.267   6.408   4.576  0.7565 -0.1524  0.0016
 4820TIP3    H135951   5.346   6.379   4.531  0.4880 -1.5597  0.4278
 4820TIP3    H235952   5.299   6.460   4.650  1.3420 -2.4306  1.3732
 4821TIP3   OH235953   0.394   0.242   0.903  0.4939 -0.5773 -0.0950
 4821TIP3    H135954   0.341   0.306   0.951  2.1324  0.8657 -0.1576
 4821TIP3    H235955   0.444   0.197   0.970  3.2721  1.8898 -0.4274
 4822TIP3   OH235956   0.186   6.258  12.563 -0.4218 -0.3043 -0.0891
 4822TIP3    H135957   0.188   6.333  12.504 -1.4774  0.7517  1.2024
 4822TIP3    H235958   0.100   6.219  12.550 -0.4184 -0.4441  0.3108
 4823TIP3   OH235959   5.800   0.391  12.447  0.0200 -0.0010  0.1398
 4823TIP3    H135960   5.788   0.459  12.513  0.0727  0.9880 -0.8484
 4823TIP3    H235961   5.894   0.391  12.428  0.2152 -1.2516  1.0777
 4824TIP3   OH235962   2.164   4.247  14.993 -0.4772 -0.0916  0.3053
 4824TIP3    H135963   2.140   4.251  15.086  1.3936  0.0655  0.8103
 4824TIP3    H235964   2.084   4.269  14.946 -0.4612  4.1206  1.9877
 4825TIP3   OH235965   6.527   1.852   3.557 -0.0685 -0.1379 -0.3710
 4825TIP3    H135966   6.561   1.830   3.470 -0.4840  2.9077 -1.3438
 4825TIP3    H235967   6.506   1.945   3.553 -1.7051 -0.3016  2.4862
 4826TIP3   OH235968   3.363   3.468  10.548  0.3701  0.1088 -0.1603
 4826TIP3    H135969   3.433   3.508  10.497 -0.1460 -0.7387 -1.5642
 4826TIP3    H235970   3.296   3.445  10.484 -0.2405 -1.0940  0.8758
 4827TIP3   OH235971   0.861   6.656   0.344 -0.3423 -0.1122 -0.0316
 4827TIP3    H135972   0.890   6.567   0.322  2.8692  1.0816 -0.9638
 4827TIP3    H235973   0.943   6.705   0.357 -2.0382  2.9327 -0.4409
 4828TIP3   OH235974   4.022   1.696   0.876  0.2205  0.5352 -0.6511
 4828TIP3    H135975   4.111   1.674   0.904  0.8728  1.4797 -1.9234
 4828TIP3    H235976   3.983   1.612   0.851  0.5834  0.0548  0.3746
 4829TIP3   OH235977   5.083   2.879   5.492 -0.2903 -0.5554 -0.1190
 4829TIP3    H135978   5.052   2.967   5.513  1.7686 -0.4220  2.6168
 4829TIP3    H235979   5.017   2.820   5.529 -0.6557 -0.1907 -0.1922
 4830TIP3   OH235980   1.543   4.564  14.966 -0.0535 -0.0529 -0.2857
 4830TIP3    H135981   1.530   4.659  14.964  1.4869  0.2170  0.8823
 4830TIP3    H235982   1.606   4.550  15.037 -0.1808 -1.9450 -0.5054
 4831TIP3   OH235983   6.521   0.198  13.736  0.4740 -0.4815  0.1771
 4831TIP3    H135984   6.458   0.266  13.711  1.2457 -0.2637 -1.1963
 4831TIP3    H235985   6.606   0.240  13.732  0.8961 -1.3256  0.0754
 4832TIP3   OH235986   1.807   4.097  16.903  0.3942  0.4964  0.0814
 4832TIP3    H135987   1.759   4.037  16.960  0.2623  0.2185 -0.3242
 4832TIP3    H235988   1.759   4.180  16.909  0.1022  0.3329 -0.0043
 4833TIP3   OH235989   4.110   3.723  14.603 -0.4311 -0.4810 -0.0813
 4833TIP3    H135990   4.087   3.630  14.596 -1.2956 -0.1968 -1.1518
 4833TIP3    H235991   4.168   3.740  14.529  0.0350 -0.2597  0.3342
 4834TIP3   OH235992   2.306   1.395  12.950 -0.3923  0.0324  0.0972
 4834TIP3    H135993   2.232   1.341  12.923  0.1403 -0.4929 -0.3288
 4834TIP3    H235994   2.270   1.454  13.016 -0.7382 -1.5655  1.3684
 4835TIP3   OH235995   0.309   0.010   4.442  0.2122  0.2850  0.3555
 4835TIP3    H135996   0.220   0.044   4.450  0.3129  0.3406  1.2679
 4835TIP3    H235997   0.308  -0.038   4.359 -0.6924  0.2145  0.3967
 4836TIP3   OH235998   1.965   1.740  15.273 -0.3300  0.2273 -0.1126
 4836TIP3    H135999   1.944   1.825  15.312 -0.1873  1.0301 -1.7615
 4836TIP3    H236000   2.021   1.761  15.198  2.0089 -1.5181  1.0843
 4837TIP3   OH236001   5.515   5.135   4.299 -0.2847 -0.3741 -0.1639
 4837TIP3    H136002   5.606   5.133   4.327 -0.2214  0.9544 -0.2426
 4837TIP3    H236003   5.464   5.142   4.380 -0.2239  0.8123 -0.2237
 4838TIP3   OH236004   5.073   1.340  11.877  0.4404 -0.1801 -0.2891
 4838TIP3    H136005   5.067   1.244  11.870 -0.1926 -0.1459 -0.2555
 4838TIP3    H236006   5.004   1.372  11.820 -0.2992  0.2284  0.8199
 4839TIP3   OH236007   3.668   1.096  13.378 -0.9139  0.3039 -0.8420
 4839TIP3    H136008   3.703   1.038  13.310  1.6176  1.2207 -0.3989
 4839TIP3    H236009   3.625   1.038  13.440 -1.1814 -0.7805 -2.0341
 4840TIP3   OH236010   2.825   6.571  14.843 -0.7004 -0.4792  0.2609
 4840TIP3    H136011   2.865   6.547  14.759  1.0328 -0.0776  0.9415
 4840TIP3    H236012   2.737   6.600  14.820  0.3270  1.3189 -1.6784
 4841TIP3   OH236013   4.673   4.307  16.114  0.1858 -0.0787  0.1795
 4841TIP3    H136014   4.674   4.291  16.019 -0.4605 -1.8842  0.4521
 4841TIP3    H236015   4.764   4.297  16.141  0.3875  0.5278 -0.2633
 4842TIP3   OH236016   5.244   3.281   3.118 -0.2148 -0.1077  0.0732
 4842TIP3    H136017   5.265   3.306   3.208  1.1897  0.9491 -0.5284
 4842TIP3    H236018   5.316   3.223   3.091 -0.8905 -0.8341 -0.2063
 4843TIP3   OH236019   3.914   0.970   3.778  0.3936  0.0858 -0.2265
 4843TIP3    H136020   3.846   1.025   3.740 -0.5565 -1.5006 -0.8421
 4843TIP3    H236021   3.933   1.011   3.863 -1.6883  0.2651  0.1829
 4844TIP3   OH236022   4.814   3.339  16.934 -0.2676  0.1122  0.0975
 4844TIP3    H136023   4.820   3.431  16.961  1.6882  0.1909 -0.4893
 4844TIP3    H236024   4.903   3.306  16.945 -0.9783 -1.7445  0.3732
 4845TIP3   OH236025   5.880   4.846  15.463  0.1093  0.1410  0.1366
 4845TIP3    H136026   5.943   4.886  15.523 -0.0727  0.7426 -0.0716
 4845TIP3    H236027   5.820   4.799  15.521  0.6887 -0.3594  0.3403
 4846TIP3   OH236028   6.236   5.133  13.539 -0.4587  0.1123 -0.2112
 4846TIP3    H136029   6.253   5.226  13.555  0.0085  0.1325 -0.8102
 4846TIP3    H236030   6.214   5.129  13.445 -0.6675 -0.3535 -0.1416
 4847TIP3   OH236031   3.741   2.145   1.752  0.5606  0.0004 -0.3720
 4847TIP3    H136032   3.766   2.235   1.729  0.7676  0.1509  0.4261
 4847TIP3    H236033   3.786   2.129   1.834 -0.5214 -0.3794  0.1465
 4848TIP3   OH236034   2.961   4.016   1.587  0.0535 -0.0381  0.4550
 4848TIP3    H136035   2.942   4.008   1.493 -0.5400  1.8200  0.3791
 4848TIP3    H236036   2.878   3.994   1.630 -0.2175  0.9212  0.4442
 4849TIP3   OH236037   1.644   3.308  16.819 -0.7386 -0.3458  0.4768
 4849TIP3    H136038   1.723   3.297  16.873 -0.3670  1.9721  0.4596
 4849TIP3    H236039   1.576   3.261  16.866  0.1001 -0.2565  1.8074
 4850TIP3   OH236040   0.236   6.702   3.556  0.9822  0.0052  0.4352
 4850TIP3    H136041   0.191   6.644   3.617  0.5747  0.4340  0.5473
 4850TIP3    H236042   0.322   6.717   3.595  0.7180  0.2867  0.9097
 4851TIP3   OH236043   6.327   6.812   1.354  0.9139  0.0367  0.0172
 4851TIP3    H136044   6.276   6.867   1.414  1.9110  2.7393 -1.5274
 4851TIP3    H236045   6.298   6.838   1.267  0.6349 -2.7211 -0.7585
 4852TIP3   OH236046   4.021   5.423   3.930  0.5272 -0.6722 -0.4962
 4852TIP3    H136047   4.019   5.518   3.941  1.6614 -0.6796 -0.2310
 4852TIP3    H236048   3.968   5.390   4.003  2.4643 -0.3712  1.0886
 4853TIP3   OH236049   2.461   0.378   3.178  0.0630 -0.1884 -0.2219
 4853TIP3    H136050   2.433   0.464   3.209 -0.7547 -0.8608  0.9372
 4853TIP3    H236051   2.487   0.331   3.258  0.2161 -1.1158 -0.8100
 4854TIP3   OH236052   4.397   0.523  10.829 -0.7573  0.1790 -0.6053
 4854TIP3    H136053   4.465   0.465  10.861 -0.4006  0.7439 -0.3263
 4854TIP3    H236054   4.344   0.545  10.906  0.6612  2.2825 -0.1878
 4855TIP3   OH236055   3.501   6.222   3.901 -0.4835 -0.0907  0.5484
 4855TIP3    H136056   3.505   6.131   3.931 -0.1209  0.7564  3.2052
 4855TIP3    H236057   3.569   6.266   3.952  1.0538  1.1844 -2.5434
 4856TIP3   OH236058   6.566   0.041   5.723 -0.3295 -0.2723 -0.0503
 4856TIP3    H136059   6.574   0.136   5.731  1.6731 -0.2098 -2.2345
 4856TIP3    H236060   6.501   0.029   5.653  0.4633 -0.4773 -0.7582
 4857TIP3   OH236061   2.354   4.792   2.830 -0.6417  0.3847 -0.3150
 4857TIP3    H136062   2.301   4.856   2.877 -0.2672  0.7701 -0.4070
 4857TIP3    H236063   2.385   4.732   2.898 -1.4537 -0.0332 -0.3079
 4858TIP3   OH236064   2.524   4.917   0.411  0.1952 -0.0720  0.1422
 4858TIP3    H136065   2.612   4.931   0.447 -0.0270 -1.2263  1.2034
 4858TIP3    H236066   2.505   4.825   0.431 -1.8521  0.5726  1.3043
 4859TIP3   OH236067   0.248   0.158   4.734 -0.2259 -0.1859 -0.5463
 4859TIP3    H136068   0.305   0.089   4.701  0.3019  0.0047 -0.0452
 4859TIP3    H236069   0.289   0.239   4.704 -0.0767 -0.0378  0.0430
 4860TIP3   OH236070   0.615   4.057  11.611  0.9713  1.0537 -0.0372
 4860TIP3    H136071   0.655   3.970  11.610 -0.5612  0.3035  1.5970
 4860TIP3    H236072   0.680   4.112  11.654  0.9104  0.1793  1.1891
 4861TIP3   OH236073   2.019   6.137  11.528 -0.7304 -0.5517 -0.2117
 4861TIP3    H136074   1.951   6.086  11.571  0.6130 -1.5827  0.7255
 4861TIP3    H236075   2.065   6.075  11.471  1.1000 -0.5007  1.1509
 4862TIP3   OH236076   2.559   5.476   3.701 -0.3863 -0.0344 -0.4681
 4862TIP3    H136077   2.654   5.471   3.694 -0.4254 -0.6997 -0.5330
 4862TIP3    H236078   2.532   5.527   3.625 -0.1864 -0.9270 -1.1443
 4863TIP3   OH236079   3.062   4.634  15.162  0.1820 -0.2108  0.6112
 4863TIP3    H136080   3.064   4.644  15.258 -1.3320  0.5650  0.5862
 4863TIP3    H236081   3.011   4.709  15.132 -1.5094 -1.8069 -0.5976
 4864TIP3   OH236082   3.411   0.044  16.082  0.0383 -0.0990  0.6951
 4864TIP3    H136083   3.332   0.020  16.130  0.2164 -0.5140  0.7847
 4864TIP3    H236084   3.384   0.044  15.990 -0.4723  1.3451  0.8253
 4865TIP3   OH236085   2.339   1.078  14.788  0.7157  0.9296  0.0408
 4865TIP3    H136086   2.343   0.983  14.791  0.8826  0.9571  0.7509
 4865TIP3    H236087   2.386   1.102  14.708  1.1399  0.4536  0.1511
 4866TIP3   OH236088   5.612   3.373  11.906 -0.0340  0.6362 -0.5189
 4866TIP3    H136089   5.691   3.335  11.868  0.5422  1.5583 -0.2509
 4866TIP3    H236090   5.644   3.429  11.977 -1.0705 -0.8444  1.1731
 4867TIP3   OH236091   0.283   2.484   1.944 -0.3916 -0.3138 -0.1030
 4867TIP3    H136092   0.207   2.532   1.973  0.3908 -0.2535  1.9044
 4867TIP3    H236093   0.322   2.539   1.876 -0.3238  1.1970  1.1403
 4868TIP3   OH236094   6.735   2.760  10.968  1.0907  0.0560  0.1205
 4868TIP3    H136095   6.655   2.814  10.971  0.6973 -0.5529  1.1714
 4868TIP3    H236096   6.796   2.805  11.026  0.7481 -0.6239  1.0319
 4869TIP3   OH236097   6.478   4.305   2.650 -0.4267  0.0435 -0.2777
 4869TIP3    H136098   6.384   4.291   2.653 -0.1345 -1.8898 -0.0647
 4869TIP3    H236099   6.512   4.264   2.729  0.7517 -0.4394 -1.0164
 4870TIP3   OH236100   3.968   3.399   3.922  0.3651 -0.3139  0.3712
 4870TIP3    H136101   3.914   3.382   4.000 -0.1744  1.8861  0.5092
 4870TIP3    H236102   3.924   3.349   3.853 -0.0265 -1.0757  1.1469
 4871TIP3   OH236103   6.412   2.544  16.822  0.0679 -0.2752  0.4091
 4871TIP3    H136104   6.348   2.528  16.892  0.1098  1.0707  0.7804
 4871TIP3    H236105   6.437   2.457  16.792  1.1295 -0.9405  3.0535
 4872TIP3   OH236106   2.840   4.147  16.153 -0.5323  0.2685 -0.1694
 4872TIP3    H136107   2.846   4.163  16.247  0.3294  0.3809 -0.2482
 4872TIP3    H236108   2.754   4.182  16.128 -0.9242 -0.1174  0.6439
 4873TIP3   OH236109   5.710   3.013   1.845 -0.8188  0.6676  0.0285
 4873TIP3    H136110   5.792   3.062   1.845 -1.1226  1.2155 -0.9692
 4873TIP3    H236111   5.643   3.080   1.856 -1.1753  0.3369 -0.1111
 4874TIP3   OH236112   6.012   0.997   5.424  0.0462  0.0060 -0.2889
 4874TIP3    H136113   5.945   1.014   5.491 -0.7124  1.4410 -1.3884
 4874TIP3    H236114   6.095   1.010   5.469 -0.2965 -3.9226  1.6858
 4875TIP3   OH236115   1.213   3.800   2.418  0.4972  0.1026  0.4020
 4875TIP3    H136116   1.169   3.736   2.475 -0.2269 -2.0964 -2.4943
 4875TIP3    H236117   1.288   3.753   2.382 -0.6882  0.4192 -2.6691
 4876TIP3   OH236118   5.362   0.858   0.199  0.2368  0.4366  0.4698
 4876TIP3    H136119   5.348   0.764   0.212  0.7952  0.2391 -0.3170
 4876TIP3    H236120   5.352   0.896   0.286 -2.2504 -0.0590  0.4642
 4877TIP3   OH236121   3.465   2.126  16.690  0.0886 -0.3522 -0.5499
 4877TIP3    H136122   3.438   2.189  16.624 -0.9148 -0.1656  0.0398
 4877TIP3    H236123   3.387   2.109  16.742  0.7329 -0.8934  0.2681
 4878TIP3   OH236124   4.513   3.906  16.224 -0.3048 -0.1870 -0.3072
 4878TIP3    H136125   4.456   3.873  16.154  1.5067 -1.0760 -1.4001
 4878TIP3    H236126   4.560   3.829  16.255  0.7515  0.6271  0.1531
 4879TIP3   OH236127   6.643   3.249   3.245  0.1217 -0.1099 -0.0835
 4879TIP3    H136128   6.556   3.285   3.263  0.1014  0.0665 -0.5332
 4879TIP3    H236129   6.638   3.218   3.155  0.3016 -0.7688  0.1364
 4880TIP3   OH236130   6.143   1.675   2.494 -0.4131  0.0027 -0.1849
 4880TIP3    H136131   6.163   1.593   2.449 -0.6923 -0.3902  0.3910
 4880TIP3    H236132   6.047   1.679   2.495 -0.4222 -0.3001  0.9051
 4881TIP3   OH236133   0.604   3.491   6.211 -0.1479  0.0259 -0.6568
 4881TIP3    H136134   0.686   3.480   6.162 -0.2297  0.4125 -0.8773
 4881TIP3    H236135   0.569   3.402   6.218  0.6013 -0.2269 -0.0266
 4882TIP3   OH236136   0.634   1.673  12.257 -0.2066  0.8891 -0.6704
 4882TIP3    H136137   0.706   1.621  12.292 -1.7646  0.6136  2.3379
 4882TIP3    H236138   0.625   1.645  12.166  1.7732 -0.9450 -0.3312
 4883TIP3   OH236139   3.512   0.342  13.336 -0.2722 -0.5245 -0.0431
 4883TIP3    H136140   3.543   0.332  13.426 -0.8983 -2.3594  0.0003
 4883TIP3    H236141   3.591   0.341  13.283  0.0259 -0.6526  0.4020
 4884TIP3   OH236142   2.813   1.710   3.189  0.8183  0.4372  0.5058
 4884TIP3    H136143   2.775   1.758   3.116  0.1874 -0.6179  0.1331
 4884TIP3    H236144   2.895   1.674   3.153  1.8457  2.1172  1.1022
 4885TIP3   OH236145   1.438   6.683  12.026 -0.4220  0.2742 -0.0543
 4885TIP3    H136146   1.487   6.709  12.104 -0.0071  0.1594 -0.2740
 4885TIP3    H236147   1.351   6.663  12.058 -0.6216  1.5077  0.1825
 4886TIP3   OH236148   1.093   2.762  15.647 -0.0325  0.3210 -0.3503
 4886TIP3    H136149   1.121   2.672  15.631  0.9571  0.5036  0.3145
 4886TIP3    H236150   0.997   2.758  15.651  0.0589 -0.8991  0.8493
 4887TIP3   OH236151   0.966   6.116   1.135  0.1613  0.3594  0.4378
 4887TIP3    H136152   1.054   6.121   1.096  0.3385 -0.2999  0.7556
 4887TIP3    H236153   0.952   6.203   1.172  1.1401  0.1326  1.3759
 4888TIP3   OH236154   2.937   0.474  10.793 -0.0170 -0.0339 -0.3205
 4888TIP3    H136155   2.947   0.557  10.839 -0.9695 -0.1563  0.1293
 4888TIP3    H236156   2.991   0.412  10.842  1.5512  0.5422 -1.2867
 4889TIP3   OH236157   2.905   2.935  15.796 -0.0704 -0.0455 -0.2432
 4889TIP3    H136158   2.904   3.026  15.765 -2.5162  0.5197  1.3313
 4889TIP3    H236159   2.813   2.908  15.793  0.4620 -2.0156  0.5798
 4890TIP3   OH236160   0.197   6.262   2.352 -0.7677 -0.2574 -0.0678
 4890TIP3    H136161   0.168   6.182   2.309 -0.4773  0.5190 -1.8008
 4890TIP3    H236162   0.177   6.331   2.289  0.5221  0.8250  0.6683
 4891TIP3   OH236163   6.508   5.310   0.331  0.1456  0.9291  0.2673
 4891TIP3    H136164   6.581   5.263   0.371  0.2008  1.0970  0.3613
 4891TIP3    H236165   6.447   5.241   0.305 -0.3339  0.8837  1.4982
 4892TIP3   OH236166   6.176   6.273  14.718  0.0790  0.8121 -0.0398
 4892TIP3    H136167   6.190   6.250  14.810 -0.4144 -1.0958 -0.4015
 4892TIP3    H236168   6.093   6.319  14.717 -0.4040 -0.0324  0.3653
 4893TIP3   OH236169   5.506   3.179  12.187 -0.0721  0.3602  0.3279
 4893TIP3    H136170   5.510   3.273  12.171  0.6422  0.0361 -1.4205
 4893TIP3    H236171   5.462   3.143  12.110  0.1019 -0.8012  0.7633
 4894TIP3   OH236172   1.603   3.004   5.534 -0.0625 -0.0522  0.3971
 4894TIP3    H136173   1.631   2.919   5.498 -0.9507 -0.3410  0.3694
 4894TIP3    H236174   1.601   2.990   5.629  1.2754  0.4004  0.4989
 4895TIP3   OH236175   2.080   4.022  11.723  0.1085  0.4584  0.2273
 4895TIP3    H136176   2.004   4.059  11.677 -0.3190  0.3109  0.8113
 4895TIP3    H236177   2.066   3.927  11.720 -0.1558  0.4690  1.0633
 4896TIP3   OH236178   1.516   3.281   3.189  0.1433  0.6354 -0.1224
 4896TIP3    H136179   1.448   3.284   3.122 -1.3600  0.5966  1.3548
 4896TIP3    H236180   1.531   3.187   3.204 -0.7775  0.6342  0.8213
 4897TIP3   OH236181   2.994   0.868  12.869 -0.2785  0.3701 -0.5240
 4897TIP3    H136182   2.953   0.928  12.931 -0.8742  0.8521 -1.3839
 4897TIP3    H236183   3.047   0.924  12.813  0.1172 -0.0457 -0.5683
 4898TIP3   OH236184   4.031   0.263  13.622  0.2736 -0.4985  0.2295
 4898TIP3    H136185   4.074   0.240  13.539 -1.3062  0.6089 -0.9200
 4898TIP3    H236186   4.102   0.294  13.678  1.2397 -0.4648 -0.9967
 4899TIP3   OH236187   1.645   4.097   1.035  0.4029 -0.0723  0.4037
 4899TIP3    H136188   1.584   4.168   1.050 -0.8228 -0.8867 -0.6238
 4899TIP3    H236189   1.593   4.017   1.047  1.6752 -0.8042  1.2286
 4900TIP3   OH236190   4.688   4.511  13.734 -0.7078  0.1904 -0.3676
 4900TIP3    H136191   4.743   4.589  13.740 -0.1323 -0.0984 -1.7502
 4900TIP3    H236192   4.707   4.474  13.648 -2.0230 -0.6973 -0.3008
 4901TIP3   OH236193   1.296   2.861   1.629 -0.5343 -0.2926  0.0792
 4901TIP3    H136194   1.206   2.891   1.614 -0.7248 -0.2300  1.3150
 4901TIP3    H236195   1.289   2.803   1.705  0.3527 -0.8944 -0.2964
 4902TIP3   OH236196   1.115   1.233   1.979  0.2447 -0.2100  0.1186
 4902TIP3    H136197   1.183   1.268   1.921 -0.4607  0.7638 -0.1501
 4902TIP3    H236198   1.047   1.202   1.919 -1.1459  2.1526  0.4148
 4903TIP3   OH236199   0.059   6.321  11.025  0.0512  0.2557  0.3678
 4903TIP3    H136200  -0.005   6.304  10.956  0.6802 -1.6137  0.1946
 4903TIP3    H236201   0.142   6.335  10.979  0.7554 -2.3792  0.7477
 4904TIP3   OH236202   4.089   2.794  15.402 -1.1850 -0.1850  0.1522
 4904TIP3    H136203   4.134   2.878  15.394 -2.3371  0.3739 -0.6342
 4904TIP3    H236204   4.040   2.801  15.484 -1.9565  0.2477 -0.3413
 4905TIP3   OH236205   4.755   2.875  13.877 -0.0507 -0.0069  0.1399
 4905TIP3    H136206   4.676   2.887  13.931 -1.2630 -1.3559 -1.2940
 4905TIP3    H236207   4.814   2.824  13.932 -1.9081 -2.7562 -0.3394
 4906TIP3   OH236208   1.885   6.605   3.661  0.1726 -0.1988 -0.4651
 4906TIP3    H136209   1.910   6.617   3.570  1.1604  0.2919 -0.1342
 4906TIP3    H236210   1.818   6.536   3.659  1.6677 -1.6614 -1.3554
 4907TIP3   OH236211   6.766   1.300   0.912  0.0106 -0.3719  0.1853
 4907TIP3    H136212   6.830   1.230   0.930  1.0901  0.3223 -0.9235
 4907TIP3    H236213   6.697   1.257   0.861 -0.5169 -1.1609  1.5247
 4908TIP3   OH236214   6.474   2.618  10.730  0.5970  0.7914 -0.1207
 4908TIP3    H136215   6.409   2.584  10.792  0.9486  0.1528 -0.0941
 4908TIP3    H236216   6.425   2.634  10.650 -0.0299  2.4015  0.5603
 4909TIP3   OH236217   3.269   6.488  12.965  0.0088 -0.1434 -0.0146
 4909TIP3    H136218   3.341   6.427  12.980 -0.1199 -0.2547  0.1436
 4909TIP3    H236219   3.248   6.524  13.051 -2.5118 -2.7623  0.5375
 4910TIP3   OH236220   4.734   0.550   2.873  0.4803 -0.3485  0.1142
 4910TIP3    H136221   4.699   0.625   2.824  0.0483 -1.2492 -0.9949
 4910TIP3    H236222   4.772   0.588   2.952 -2.2250  0.7628  0.9215
 4911TIP3   OH236223   6.403   3.653  14.941 -0.0299 -0.8274 -0.1787
 4911TIP3    H136224   6.444   3.610  14.866  1.1756  2.4296 -1.4698
 4911TIP3    H236225   6.345   3.719  14.902 -0.0832  0.3038  1.7398
 4912TIP3   OH236226   6.324   5.824   3.778  0.5297 -0.4586  0.0138
 4912TIP3    H136227   6.236   5.861   3.771  0.0137 -1.6340  0.1272
 4912TIP3    H236228   6.378   5.881   3.724 -0.6836 -0.8942 -1.6850
 4913TIP3   OH236229   0.076   6.445   3.084  0.3159  0.4003  0.0103
 4913TIP3    H136230   0.126   6.513   3.129  0.3185  1.3565 -1.4131
 4913TIP3    H236231  -0.006   6.440   3.132  1.8471 -1.4364  2.6003
 4914TIP3   OH236232   4.300   4.974   1.589  0.0231  0.2811  0.2019
 4914TIP3    H136233   4.289   5.024   1.670  0.6599  0.5003  0.1602
 4914TIP3    H236234   4.387   4.999   1.558 -0.0382 -0.1459 -0.3136
 4915TIP3   OH236235   2.409   4.757  13.157  0.1745  0.5581 -0.2576
 4915TIP3    H136236   2.385   4.846  13.134 -2.0792  0.1341  0.3706
 4915TIP3    H236237   2.341   4.702  13.119  0.3660 -0.7271  1.1698
 4916TIP3   OH236238   4.811   3.613   4.138  0.7434  0.2707  0.1017
 4916TIP3    H136239   4.793   3.682   4.201 -2.2289 -0.1776 -0.1817
 4916TIP3    H236240   4.867   3.654   4.072  0.0476  2.0281  0.5999
 4917TIP3   OH236241   6.066   6.739   1.217  0.2029 -0.1706  0.1458
 4917TIP3    H136242   6.083   6.696   1.133 -1.1079 -0.1941 -0.1141
 4917TIP3    H236243   6.075   6.832   1.199  4.7764 -0.3258  1.0947
 4918TIP3   OH236244   4.611   4.056   2.873 -0.2006  0.2410 -0.3104
 4918TIP3    H136245   4.537   4.070   2.814 -0.0890  0.8142 -0.3252
 4918TIP3    H236246   4.599   4.123   2.941 -0.0967 -0.1372  0.0809
 4919TIP3   OH236247   3.842   4.964   5.352 -0.5499 -0.0719  0.9118
 4919TIP3    H136248   3.757   4.957   5.309  0.5145 -1.8281 -1.0454
 4919TIP3    H236249   3.889   5.030   5.302  0.5820 -1.8959 -0.5186
 4920TIP3   OH236250   0.853   2.841   6.383  0.4349 -0.4180  0.0009
 4920TIP3    H136251   0.760   2.862   6.387  0.5216 -0.0680  0.1987
 4920TIP3    H236252   0.885   2.888   6.306  0.5895  0.0108  0.3298
 4921TIP3   OH236253   2.111   4.914  14.164  0.3504  0.4116 -0.0824
 4921TIP3    H136254   2.143   4.946  14.248 -1.5471  0.8994  0.4806
 4921TIP3    H236255   2.045   4.849  14.186  1.3503 -1.0298 -1.2200
 4922TIP3   OH236256   4.001   4.075  15.401  0.1631 -0.3185 -0.5959
 4922TIP3    H136257   4.021   4.167  15.414  1.1085 -0.3746 -1.5423
 4922TIP3    H236258   3.968   4.045  15.486  1.4669  0.4752  0.2105
 4923TIP3   OH236259   0.551   6.532  11.187 -0.6113 -0.1632  0.0521
 4923TIP3    H136260   0.457   6.539  11.203 -1.1315  1.5083 -3.2933
 4923TIP3    H236261   0.560   6.454  11.133 -0.2583  0.3715 -0.6767
 4924TIP3   OH236262   1.791   4.423   5.666  0.5025 -0.0624 -0.8929
 4924TIP3    H136263   1.865   4.472   5.631  0.8512  0.1033  0.0549
 4924TIP3    H236264   1.823   4.386   5.748 -0.3423 -0.2984 -0.6577
 4925TIP3   OH236265   6.266   0.440  14.259  0.2334  0.7921  0.3120
 4925TIP3    H136266   6.333   0.376  14.284  0.3919  1.0575  0.5701
 4925TIP3    H236267   6.227   0.404  14.179  1.4672  1.2033 -0.4846
 4926TIP3   OH236268   5.541   2.908  13.665 -0.0757  0.4656  0.0435
 4926TIP3    H136269   5.524   2.998  13.636  2.3225  1.3325  1.1743
 4926TIP3    H236270   5.589   2.868  13.593 -1.3775 -0.0136 -0.5702
 4927TIP3   OH236271   4.797   1.772   5.945 -0.0702 -0.0839 -0.3582
 4927TIP3    H136272   4.714   1.809   5.973 -1.5156 -3.3669 -0.1413
 4927TIP3    H236273   4.845   1.756   6.027  0.4959  1.0962 -0.4452
 4928TIP3   OH236274   5.492   0.795  16.250  0.4363 -0.9102 -0.3069
 4928TIP3    H136275   5.579   0.800  16.212 -0.6405 -0.6298 -2.8246
 4928TIP3    H236276   5.464   0.886  16.260 -0.3621 -1.0206 -1.4292
 4929TIP3   OH236277   4.507   5.327  15.065  0.7068 -0.2263 -0.0658
 4929TIP3    H136278   4.431   5.281  15.100  1.6334 -1.7192  0.0232
 4929TIP3    H236279   4.531   5.389  15.133 -0.6557  0.5505 -0.2600
 4930TIP3   OH236280   5.211   2.966   5.928 -0.5660  0.2367  0.5708
 4930TIP3    H136281   5.119   2.944   5.915 -0.8340  0.7817  1.5020
 4930TIP3    H236282   5.214   3.008   6.014  0.9362 -1.9646  1.6292
 4931TIP3   OH236283   6.154   5.411   4.704 -0.1425 -0.0947 -0.7225
 4931TIP3    H136284   6.123   5.498   4.682  0.0377  0.7948  2.3450
 4931TIP3    H236285   6.248   5.414   4.687  0.0939  0.7682  0.6411
 4932TIP3   OH236286   4.133   1.791  13.520  0.8584 -0.7555 -0.4996
 4932TIP3    H136287   4.086   1.746  13.450 -0.6494  0.6737 -0.4387
 4932TIP3    H236288   4.075   1.785  13.596  1.1479  0.2789 -0.1852
 4933TIP3   OH236289   2.400   4.676   0.471  0.0194 -0.0402 -0.5555
 4933TIP3    H136290   2.413   4.612   0.401 -1.1585 -0.4507 -0.4055
 4933TIP3    H236291   2.391   4.624   0.550  0.4542  0.3826 -0.2281
 4934TIP3   OH236292   0.281   3.135  10.558  0.7400  0.2579 -0.0193
 4934TIP3    H136293   0.360   3.086  10.578  1.2190 -0.0360 -2.4743
 4934TIP3    H236294   0.311   3.206  10.500 -0.9688 -0.6556 -2.0726
 4935TIP3   OH236295   1.341   4.210   1.202  0.2985  0.6439 -0.1138
 4935TIP3    H136296   1.322   4.229   1.294  0.1888  1.0250 -0.2143
 4935TIP3    H236297   1.416   4.265   1.182 -0.2606  1.2676 -0.5158
 4936TIP3   OH236298   0.143   4.922  11.626  0.5743 -0.3861 -0.1562
 4936TIP3    H136299   0.112   4.952  11.540  0.5299  0.1203  0.0370
 4936TIP3    H236300   0.116   4.991  11.687  0.8715 -0.6009  0.2223
 4937TIP3   OH236301   4.601   6.198   5.307  0.2031  0.4466  0.6448
 4937TIP3    H136302   4.646   6.114   5.303  0.9063  0.8213  0.6306
 4937TIP3    H236303   4.563   6.209   5.220 -0.1141  0.0231  0.7285
 4938TIP3   OH236304   2.552   4.347   5.560  0.5780 -0.5776 -0.2222
 4938TIP3    H136305   2.608   4.346   5.637 -1.1419  0.1787  1.0857
 4938TIP3    H236306   2.531   4.439   5.546 -0.5605 -0.8655 -0.5000
 4939TIP3   OH236307   0.210   5.572  14.834 -0.3115  0.4969 -0.2857
 4939TIP3    H136308   0.247   5.502  14.888  0.3455  0.2999 -0.9824
 4939TIP3    H236309   0.165   5.525  14.763 -1.0530  0.7567  0.0062
 4940TIP3   OH236310   3.869   1.592   3.445 -0.4677  0.1178 -0.2579
 4940TIP3    H136311   3.940   1.528   3.434 -0.2901  0.1280  0.7754
 4940TIP3    H236312   3.808   1.571   3.374 -1.2448 -2.3268  1.0571
 4941TIP3   OH236313   3.204   2.523   0.123  0.3978  0.0483  0.3626
 4941TIP3    H136314   3.279   2.467   0.100 -0.6823 -0.7345 -1.3408
 4941TIP3    H236315   3.128   2.471   0.100 -0.6599  1.6427  0.2104
 4942TIP3   OH236316   2.062   1.107   6.026  0.2913  0.0378 -0.1899
 4942TIP3    H136317   2.132   1.094   5.962 -1.0258 -1.2885 -1.3981
 4942TIP3    H236318   2.019   1.188   5.998 -0.3947 -0.6355 -1.1006
 4943TIP3   OH236319   1.126   3.070  13.132  0.2937 -0.1883  0.4471
 4943TIP3    H136320   1.068   3.057  13.207 -1.5679  0.8532 -0.7790
 4943TIP3    H236321   1.083   3.024  13.060  0.0081  2.1301 -0.9188
 4944TIP3   OH236322   3.021   3.503   2.990  0.0153  1.1440  0.3939
 4944TIP3    H136323   2.950   3.445   3.015  0.8644 -0.2380 -0.3359
 4944TIP3    H236324   3.090   3.486   3.055  1.4852 -1.0464 -1.6483
 4945TIP3   OH236325   6.035   3.277  11.527  0.0452  0.3326 -0.2443
 4945TIP3    H136326   6.076   3.203  11.481 -1.5798 -0.6619 -0.1031
 4945TIP3    H236327   5.971   3.311  11.465 -0.6623  0.3185  0.4699
 4946TIP3   OH236328   6.308   2.440   5.914 -0.3585  0.1333 -0.2419
 4946TIP3    H136329   6.353   2.387   5.848  0.6999 -1.6122  1.8338
 4946TIP3    H236330   6.311   2.387   5.994 -0.9151  2.5362  1.4282
 4947TIP3   OH236331   0.016   4.330   6.828  0.3879  0.5653 -0.1714
 4947TIP3    H136332   0.090   4.389   6.813  0.6690  0.1946 -0.2726
 4947TIP3    H236333   0.037   4.252   6.775  1.2547 -0.6441  1.8622
 4948TIP3   OH236334   2.557   0.380  12.997 -0.1684  0.0112 -0.2187
 4948TIP3    H136335   2.632   0.401  12.941 -1.3911 -1.6500 -2.5744
 4948TIP3    H236336   2.585   0.303  13.047  0.5152  0.8018  0.6305
 4949TIP3   OH236337   0.646   4.172  13.259 -0.5909  1.0219  0.0959
 4949TIP3    H136338   0.576   4.224  13.298 -1.4722 -0.2762  0.2717
 4949TIP3    H236339   0.704   4.151  13.332  0.2359  2.4674 -0.1258
 4950TIP3   OH236340   5.816   3.590  16.698  0.4483  0.1581  0.3578
 4950TIP3    H136341   5.836   3.501  16.729 -2.1544 -0.4190  0.5557
 4950TIP3    H236342   5.781   3.635  16.775  1.0866  1.1231  0.0795
 4951TIP3   OH236343   4.093   6.642   2.285  0.3066 -0.2778  0.0479
 4951TIP3    H136344   4.042   6.713   2.322  0.7329  0.2337 -0.3317
 4951TIP3    H236345   4.028   6.578   2.255 -0.1462  0.6654 -1.0348
 4952TIP3   OH236346   2.642   0.802  15.909 -0.1311  0.3072  0.3682
 4952TIP3    H136347   2.547   0.810  15.911 -0.3215 -1.4858 -0.7270
 4952TIP3    H236348   2.659   0.711  15.932  1.1435 -0.2535 -2.6323
 4953TIP3   OH236349   1.154   4.180  13.378 -0.1810  0.4849 -0.0973
 4953TIP3    H136350   1.096   4.194  13.303 -1.6463 -0.7079  0.7784
 4953TIP3    H236351   1.150   4.085  13.394 -0.5397  0.8331  1.9969
 4954TIP3   OH236352   3.827   4.471  12.964  0.2164 -0.3382 -0.1536
 4954TIP3    H136353   3.838   4.561  12.995 -1.6815  1.0608 -3.3087
 4954TIP3    H236354   3.735   4.450  12.980 -0.1503 -0.5257 -2.3006
 4955TIP3   OH236355   3.488   3.623  14.535 -0.0085 -0.0205 -0.0160
 4955TIP3    H136356   3.584   3.629  14.526 -0.1197  0.3588 -1.0574
 4955TIP3    H236357   3.469   3.531  14.515  0.1324 -0.0755  0.1015
 4956TIP3   OH236358   2.611   5.888  13.205 -0.4518 -0.4367 -0.5308
 4956TIP3    H136359   2.664   5.922  13.277 -0.9213 -2.5222  0.8312
 4956TIP3    H236360   2.665   5.819  13.167 -1.3176 -1.1323 -0.4895
 4957TIP3   OH236361   1.643   3.776   0.945  0.0980 -0.6278 -0.1624
 4957TIP3    H136362   1.733   3.807   0.953  0.1359 -0.7213 -0.2239
 4957TIP3    H236363   1.608   3.777   1.034  0.4590 -1.5000 -0.0073
 4958TIP3   OH236364   5.199   1.434   5.443  0.6323  0.4642  0.1645
 4958TIP3    H136365   5.258   1.500   5.480  0.5527  0.1758  0.8034
 4958TIP3    H236366   5.138   1.485   5.390  0.5876  0.9040  0.6331
 4959TIP3   OH236367   5.787   4.077   6.229  0.5174  0.6142  0.0005
 4959TIP3    H136368   5.791   4.150   6.167  0.0603  0.3331 -0.3612
 4959TIP3    H236369   5.704   4.034   6.210  1.7231 -1.2282 -1.1644
 4960TIP3   OH236370   6.485   2.931   1.320 -0.8512 -0.1738  0.3077
 4960TIP3    H136371   6.402   2.975   1.302 -0.7020 -0.2790 -0.6863
 4960TIP3    H236372   6.479   2.905   1.411 -1.4376  0.8435  0.5677
 4961TIP3   OH236373   3.446   3.017   2.698  0.0235 -0.1351  0.4279
 4961TIP3    H136374   3.503   3.087   2.730  0.8853 -1.1071  1.0209
 4961TIP3    H236375   3.418   3.047   2.611  1.6851  0.1872 -0.0077
 4962TIP3   OH236376   2.365   5.615  10.773  0.1123  0.5055 -0.0769
 4962TIP3    H136377   2.421   5.683  10.810  0.3385 -0.6665  1.7698
 4962TIP3    H236378   2.294   5.663  10.732 -0.3397  1.8593  2.1957
 4963TIP3   OH236379   1.069   1.442  15.867  0.1789 -0.0194 -0.8286
 4963TIP3    H136380   1.087   1.349  15.856 -1.8697 -0.7786  1.5741
 4963TIP3    H236381   0.992   1.458  15.812 -0.2537 -0.0654 -0.2448
 4964TIP3   OH236382   3.192   4.938  11.636  0.0399 -0.3219 -0.3143
 4964TIP3    H136383   3.229   4.877  11.573  0.0733  2.3973 -3.0491
 4964TIP3    H236384   3.123   4.888  11.681  1.0070 -2.7477 -1.4658
 4965TIP3   OH236385   6.495   6.357   2.878  0.1402 -0.4331 -0.0994
 4965TIP3    H136386   6.457   6.432   2.832  0.0632  0.0575  0.7629
 4965TIP3    H236387   6.503   6.290   2.810 -0.8172 -0.0234 -0.6356
 4966TIP3   OH236388   1.554   4.366   1.092  0.0114 -0.5207  0.4351
 4966TIP3    H136389   1.633   4.417   1.076 -0.3154  0.7434  2.6049
 4966TIP3    H236390   1.507   4.368   1.009  0.7196  1.4370  0.0546
 4967TIP3   OH236391   6.528   0.995  13.565 -0.9607  0.1016 -0.3502
 4967TIP3    H136392   6.610   0.995  13.614 -1.2439  0.9103  0.1329
 4967TIP3    H236393   6.476   1.066  13.604 -0.5299  1.9067 -2.9569
 4968TIP3   OH236394   5.335   0.851  15.010  0.7189 -0.2414 -0.2165
 4968TIP3    H136395   5.297   0.847  15.098  1.6559 -1.5037  0.1539
 4968TIP3    H236396   5.414   0.903  15.020  1.0965 -0.8105 -0.1973
 4969TIP3   OH236397   3.095   2.220  16.595  0.2542  0.6146 -0.1028
 4969TIP3    H136398   3.088   2.261  16.680 -2.5247 -1.5077  0.7895
 4969TIP3    H236399   3.173   2.259  16.555  1.2788  2.0529  3.1380
 4970TIP3   OH236400   4.028   3.606  11.484 -0.4122  0.7866  0.1439
 4970TIP3    H136401   4.047   3.521  11.443 -2.5233  0.9556 -1.2578
 4970TIP3    H236402   3.954   3.640  11.434  0.7354  3.6974  0.3638
 4971TIP3   OH236403   3.313   0.746   5.691 -0.5192  0.7119  0.6117
 4971TIP3    H136404   3.375   0.782   5.754  0.4237 -0.8760  0.6224
 4971TIP3    H236405   3.356   0.668   5.656 -1.5130  0.8983 -1.1369
 4972TIP3   OH236406   6.501   1.094   2.827 -1.0649 -0.3447  0.7984
 4972TIP3    H136407   6.473   1.111   2.917  0.1823  0.7525  0.9923
 4972TIP3    H236408   6.425   1.119   2.773 -2.3053 -2.2851  1.5989
 4973TIP3   OH236409   5.961   0.049   2.891 -0.1469 -0.2930 -0.4165
 4973TIP3    H136410   5.995   0.137   2.903  2.4085 -1.3813  0.7371
 4973TIP3    H236411   5.924   0.025   2.976 -1.6866 -0.0234 -0.9867
 4974TIP3   OH236412   4.614   4.790   2.218  1.1864  0.5209  0.5454
 4974TIP3    H136413   4.690   4.792   2.159  1.8350  2.3085  1.4117
 4974TIP3    H236414   4.546   4.840   2.171  0.5458 -0.9993 -0.1883
 4975TIP3   OH236415   1.736   5.063   2.168 -0.3965  0.5173  0.7309
 4975TIP3    H136416   1.808   5.034   2.224 -0.0937  0.8250  0.5039
 4975TIP3    H236417   1.680   4.986   2.160 -1.0320  0.7777  2.3664
 4976TIP3   OH236418   2.991   2.291   3.457 -0.1347 -0.1055  0.6003
 4976TIP3    H136419   2.956   2.378   3.434  2.2826  0.4193 -1.2256
 4976TIP3    H236420   2.966   2.235   3.384  0.4869 -0.3754  0.5983
 4977TIP3   OH236421   0.984   3.778   3.742  0.3013  0.1852 -0.3767
 4977TIP3    H136422   0.898   3.793   3.781  0.6862  1.7214 -0.0702
 4977TIP3    H236423   0.980   3.820   3.656  0.2300 -1.1288 -1.0266
 4978TIP3   OH236424   5.314   0.194   3.552  0.1608  0.8982  0.2833
 4978TIP3    H136425   5.325   0.249   3.629  1.7766  1.4748 -0.3372
 4978TIP3    H236426   5.400   0.196   3.509 -0.6818  0.4735 -1.4505
 4979TIP3   OH236427   3.680   3.566   4.789 -0.2225  0.3416  0.1215
 4979TIP3    H136428   3.663   3.506   4.862 -0.5836  0.7236  0.3562
 4979TIP3    H236429   3.665   3.513   4.710 -1.2778  0.3169  0.3246
 4980TIP3   OH236430   2.567   2.062   2.123  0.3611 -0.3978 -0.1596
 4980TIP3    H136431   2.541   1.975   2.092  0.0644 -0.1783 -0.5376
 4980TIP3    H236432   2.521   2.072   2.206  0.0569 -0.4344 -0.3209
 4981TIP3   OH236433   2.050   5.064   3.978  0.4215 -0.4040 -0.3839
 4981TIP3    H136434   2.059   5.150   3.939 -3.0614 -0.4881 -1.5041
 4981TIP3    H236435   2.134   5.049   4.023  0.5416  4.1391  1.1009
 4982TIP3   OH236436   1.148   3.504  13.156  0.1176  0.0337 -0.3087
 4982TIP3    H136437   1.106   3.497  13.070  0.3692 -0.9643 -0.3542
 4982TIP3    H236438   1.175   3.596  13.162 -1.0005  0.4090 -0.7758
 4983TIP3   OH236439   6.631   3.993   3.210  0.9720  0.3194  0.1842
 4983TIP3    H136440   6.613   3.899   3.218 -0.5610  0.7511  2.3054
 4983TIP3    H236441   6.716   3.998   3.167 -0.8925 -1.9649 -4.0298
 4984TIP3   OH236442   2.554   2.791   5.666 -0.5645  0.1105 -0.1316
 4984TIP3    H136443   2.546   2.701   5.699  0.6989  0.2547  0.5711
 4984TIP3    H236444   2.537   2.846   5.742 -0.4300  0.4681 -0.3606
 4985TIP3   OH236445   5.176   4.750   0.142 -0.2041 -0.3615 -0.1133
 4985TIP3    H136446   5.264   4.754   0.179  0.1823  2.0018 -1.1468
 4985TIP3    H236447   5.120   4.728   0.216  1.1776 -1.3202  0.6765
 4986TIP3   OH236448   0.127   5.987  14.756  0.8190  0.4934 -0.0571
 4986TIP3    H136449   0.173   5.984  14.840  0.1145  0.9092  0.3498
 4986TIP3    H236450   0.084   6.073  14.756 -0.6334 -0.2200 -0.0622
 4987TIP3   OH236451   1.465   3.710  15.147  0.5196 -0.1021 -0.1359
 4987TIP3    H136452   1.481   3.616  15.145 -2.1223 -0.6318  1.4862
 4987TIP3    H236453   1.393   3.724  15.086  0.8714  0.8799 -0.3479
 4988TIP3   OH236454   3.717   0.645  17.285  0.2904 -0.6804 -0.0964
 4988TIP3    H136455   3.767   0.632  17.366  0.1076 -0.2667  0.0802
 4988TIP3    H236456   3.755   0.582  17.224 -0.1360 -1.5921  0.5648
 4989TIP3   OH236457   1.940   5.145  15.373 -0.5011  0.8363  0.1817
 4989TIP3    H136458   1.918   5.085  15.444 -3.3131  0.6986 -0.7648
 4989TIP3    H236459   2.035   5.154  15.379 -0.4860 -0.5034  2.8796
 4990TIP3   OH236460   4.633   6.474  13.366 -0.3894 -0.0708 -0.9446
 4990TIP3    H136461   4.580   6.396  13.384 -0.5119  0.1677 -0.2844
 4990TIP3    H236462   4.712   6.462  13.417 -0.8852  0.7663  0.0393
 4991TIP3   OH236463   2.807   1.052  16.881 -0.0716  0.4543  0.2651
 4991TIP3    H136464   2.757   1.106  16.942  1.8840  0.4515  1.8920
 4991TIP3    H236465   2.797   0.962  16.914 -2.3176 -0.1061 -1.7481
 4992TIP3   OH236466   3.211   6.231  12.610  0.2292 -0.0499  0.1307
 4992TIP3    H136467   3.220   6.190  12.696  0.3832 -1.8661 -0.7274
 4992TIP3    H236468   3.225   6.160  12.548  0.0683  1.2301 -1.4073
 4993TIP3   OH236469   0.195   2.346  14.757 -0.2346 -0.1607  0.1540
 4993TIP3    H136470   0.242   2.264  14.742  0.8452  0.3477  0.6591
 4993TIP3    H236471   0.140   2.357  14.680  0.4738 -0.7906 -0.4533
 4994TIP3   OH236472   0.105   6.062  16.881  0.4077 -0.0880 -0.2238
 4994TIP3    H136473   0.112   6.139  16.823 -1.0370 -0.3525 -0.7718
 4994TIP3    H236474   0.041   6.006  16.838 -2.7171  0.8811  2.9045
 4995TIP3   OH236475   1.431   1.112   5.665  0.0793 -0.6610 -0.3591
 4995TIP3    H136476   1.474   1.026   5.671 -2.4461 -1.8891  0.8629
 4995TIP3    H236477   1.482   1.159   5.599  1.7780 -2.9461 -0.7571
 4996TIP3   OH236478   0.394   1.447   0.514 -0.1673 -0.3441 -0.2762
 4996TIP3    H136479   0.447   1.527   0.522 -0.4584 -0.2622  0.9068
 4996TIP3    H236480   0.356   1.435   0.601  2.6005 -3.6585  0.5981
 4997TIP3   OH236481   5.521   2.836   4.211 -0.0210  0.1782  0.3725
 4997TIP3    H136482   5.593   2.823   4.273 -1.0396  1.3745  1.8316
 4997TIP3    H236483   5.562   2.878   4.135  0.9775  0.0640  0.8446
 4998TIP3   OH236484   2.864   1.600  16.821  0.1117  0.7226 -1.0401
 4998TIP3    H136485   2.849   1.618  16.913 -0.0210  1.6683 -1.2453
 4998TIP3    H236486   2.820   1.516  16.806 -1.4183  1.4481 -0.6660
 4999TIP3   OH236487   4.180   6.193   5.447  0.2310  0.2296 -0.2535
 4999TIP3    H136488   4.213   6.150   5.368  2.0294 -1.4189  1.3524
 4999TIP3    H236489   4.156   6.122   5.505  1.8733  1.3656  1.8821
 5000TIP3   OH236490   5.826   3.999  12.018  1.1359 -0.8320  0.2103
 5000TIP3    H136491   5.783   4.061  12.076  0.9208 -1.1324  0.3748
 5000TIP3    H236492   5.857   4.052  11.944 -4.2637 -1.3318 -2.6097
 5001TIP3   OH236493   0.439   2.503  16.217 -0.0267  0.4023  0.6752
 5001TIP3    H136494   0.494   2.465  16.285 -0.9153 -0.8573  0.7051
 5001TIP3    H236495   0.429   2.594  16.243  1.5735  0.5157  0.9714
 5002TIP3   OH236496   4.295   5.081   5.705  0.4664  0.0508  0.1278
 5002TIP3    H136497   4.367   5.125   5.750 -0.2295  3.0293 -1.5107
 5002TIP3    H236498   4.318   5.087   5.612 -0.9792 -0.6695 -0.2869
 5003TIP3   OH236499   5.404   4.359   0.520  0.7660 -0.6720  0.4929
 5003TIP3    H136500   5.393   4.321   0.432  1.8227 -0.3517  0.2148
 5003TIP3    H236501   5.315   4.368   0.553  0.4452 -2.6616  0.2437
 5004TIP3   OH236502   6.509   2.242  11.504  0.3126  0.5572 -0.3276
 5004TIP3    H136503   6.536   2.323  11.548 -3.9961  2.0454 -0.2249
 5004TIP3    H236504   6.488   2.269  11.415 -0.3758 -0.6394 -0.5385
 5005TIP3   OH236505   4.065   0.398   1.870  0.5710  0.1797  0.1939
 5005TIP3    H136506   4.031   0.486   1.885 -0.0401 -0.2070  1.1247
 5005TIP3    H236507   4.039   0.378   1.780  1.7106  1.3882 -0.4222
 5006TIP3   OH236508   0.673   3.058   1.187 -0.4141 -0.1543  0.0927
 5006TIP3    H136509   0.739   3.030   1.251 -0.4404  1.2941  0.7846
 5006TIP3    H236510   0.719   3.056   1.103  0.0957 -0.5423  0.3774
 5007TIP3   OH236511   3.220   2.169   0.887 -0.3786  0.5907 -0.6132
 5007TIP3    H136512   3.174   2.120   0.818  0.5122  1.4115 -1.8224
 5007TIP3    H236513   3.304   2.192   0.847  0.1513  1.0824  0.7647
 5008TIP3   OH236514   2.698   1.039  13.409 -0.4029 -0.0994  0.7970
 5008TIP3    H136515   2.679   1.048  13.316 -1.4835 -0.0021  1.0150
 5008TIP3    H236516   2.788   1.069  13.419 -0.8785  1.6287  0.0631
 5009TIP3   OH236517   2.750   5.868   6.119  0.1075  0.3699  0.4039
 5009TIP3    H136518   2.841   5.897   6.124 -0.4490  2.3047 -0.3370
 5009TIP3    H236519   2.750   5.802   6.049  1.0800 -0.2625  0.9817
 5010TIP3   OH236520   4.875   0.648   4.043  0.2264  0.5752 -0.8240
 5010TIP3    H136521   4.939   0.677   4.108  1.5083 -0.2039 -1.7326
 5010TIP3    H236522   4.921   0.653   3.960 -0.3352 -1.5971 -1.2925
 5011TIP3   OH236523   5.552   3.420   3.401 -0.2781  0.4106 -0.4994
 5011TIP3    H136524   5.466   3.461   3.413 -0.7716 -0.6803 -0.3156
 5011TIP3    H236525   5.564   3.416   3.307 -0.4458  0.5211 -0.5257
 5012TIP3   OH236526   2.926   4.428  10.821 -0.3375  0.2734  0.0574
 5012TIP3    H136527   2.894   4.512  10.790 -1.4365 -0.1248  0.0990
 5012TIP3    H236528   2.857   4.366  10.797  0.2305 -0.5300  0.4952
 5013TIP3   OH236529   5.227   2.857   5.268 -0.5105 -0.8754 -0.2083
 5013TIP3    H136530   5.298   2.909   5.305 -0.4562 -1.1349  0.0520
 5013TIP3    H236531   5.161   2.852   5.337 -0.9489 -0.3309 -0.5736
 5014TIP3   OH236532   2.141   5.154  11.427  0.4679 -0.6781 -0.1941
 5014TIP3    H136533   2.209   5.126  11.365 -0.3837 -1.7010 -0.6785
 5014TIP3    H236534   2.100   5.073  11.456 -0.5958 -0.0723  0.0376
 5015TIP3   OH236535   0.755   6.073   2.870  0.2523 -0.5758 -0.2572
 5015TIP3    H136536   0.763   5.996   2.813  0.6480  0.1999 -1.2611
 5015TIP3    H236537   0.717   6.140   2.815  1.5613  0.4848  0.1069
 5016TIP3   OH236538   2.243   1.937  15.370 -0.9188  0.0594 -0.4782
 5016TIP3    H136539   2.313   1.872  15.373  0.8578  1.9206 -0.3098
 5016TIP3    H236540   2.203   1.925  15.284  0.4090 -0.2252 -1.0773
 5017TIP3   OH236541   0.760   5.815   3.576  0.0176  0.9986  0.2036
 5017TIP3    H136542   0.757   5.818   3.480  0.2563  0.3075  0.1727
 5017TIP3    H236543   0.837   5.867   3.599  0.9494 -0.2497 -0.0628
 5018TIP3   OH236544   2.790   1.363  13.908 -0.0071 -0.2677 -0.4719
 5018TIP3    H136545   2.845   1.437  13.933  2.1004 -1.6967 -0.7566
 5018TIP3    H236546   2.714   1.369  13.966  2.1385 -0.2880  2.4580
 5019TIP3   OH236547   3.879   0.630   1.641 -0.5739  0.3017  0.1500
 5019TIP3    H136548   3.955   0.670   1.598 -1.3184  0.6241 -0.9125
 5019TIP3    H236549   3.841   0.573   1.573 -2.0326  1.1601  0.2314
 5020TIP3   OH236550   4.987   0.506   2.015 -0.5025  0.8372  0.1441
 5020TIP3    H136551   5.050   0.577   2.031 -1.3001  1.3383  1.0950
 5020TIP3    H236552   4.926   0.543   1.951  0.2337  0.3025 -0.8839
 5021TIP3   OH236553   5.646   4.423   5.876  0.1487 -0.3412  0.0126
 5021TIP3    H136554   5.708   4.411   5.804  0.2230 -0.7859  0.1497
 5021TIP3    H236555   5.603   4.507   5.856 -1.0599 -1.2883 -1.4667
 5022TIP3   OH236556   0.938   2.615   1.636 -0.4502  0.3530  0.2810
 5022TIP3    H136557   0.910   2.599   1.546  1.1479  2.4130 -0.6275
 5022TIP3    H236558   0.967   2.529   1.668 -2.8482 -0.7852 -0.4746
 5023TIP3   OH236559   5.548   5.477  16.064 -0.4422 -0.0380 -0.6520
 5023TIP3    H136560   5.609   5.413  16.099 -0.3969  0.3734  0.0271
 5023TIP3    H236561   5.600   5.557  16.054 -0.5392 -0.0524 -1.3223
 5024TIP3   OH236562   5.032   4.188  11.469 -0.8252  0.1185  0.1970
 5024TIP3    H136563   5.040   4.094  11.482  0.9088  0.0537 -1.1927
 5024TIP3    H236564   5.120   4.222  11.488 -2.1221  1.8469  3.6406
 5025TIP3   OH236565   6.759   4.603   3.606  0.0468  0.1896 -0.3086
 5025TIP3    H136566   6.739   4.548   3.682  0.6666  1.2106  0.6017
 5025TIP3    H236567   6.674   4.636   3.577 -0.1936 -0.2064 -0.0589
 5026TIP3   OH236568   3.729   1.626   5.805 -0.0103 -0.4177 -0.0703
 5026TIP3    H136569   3.663   1.557   5.800 -1.3975  0.6961  1.8756
 5026TIP3    H236570   3.680   1.706   5.786  0.8098  0.3967  1.1868
 5027TIP3   OH236571   2.650   2.333  13.285  0.0210  0.1489  0.0195
 5027TIP3    H136572   2.690   2.410  13.325  0.6853  0.4276 -1.1446
 5027TIP3    H236573   2.636   2.358  13.193 -0.5950 -0.7942 -0.1539
 5028TIP3   OH236574   2.720   3.976   5.694 -0.5259 -0.1889 -0.6072
 5028TIP3    H136575   2.739   3.902   5.637  2.2220 -0.3122  0.3912
 5028TIP3    H236576   2.786   4.041   5.672 -0.6962  0.5569  0.9806
 5029TIP3   OH236577   4.889   5.237  13.609  0.7460  0.1378  0.1726
 5029TIP3    H136578   4.935   5.185  13.675  1.8278  1.2162  0.2892
 5029TIP3    H236579   4.807   5.262  13.650 -0.5752 -2.8790 -0.4810
 5030TIP3   OH236580   5.475   1.365  16.178  0.4209 -0.5523  0.4614
 5030TIP3    H136581   5.507   1.406  16.097  0.9516 -1.7169  0.0731
 5030TIP3    H236582   5.394   1.322  16.154  1.5994 -2.6251  0.0419
 5031TIP3   OH236583   0.851   4.249   6.277  0.8934  0.2580 -0.6150
 5031TIP3    H136584   0.810   4.177   6.229 -1.4273  1.1583 -0.0148
 5031TIP3    H236585   0.843   4.224   6.369  0.1579  1.2359 -0.4063
 5032TIP3   OH236586   1.759   3.622   2.019  0.0242  0.3360 -0.0409
 5032TIP3    H136587   1.784   3.631   2.110  1.2559  0.8226 -0.4205
 5032TIP3    H236588   1.729   3.532   2.011 -1.4103  0.6820  1.1455
 5033TIP3   OH236589   5.947   0.248   3.263 -0.3394 -0.3851  0.4900
 5033TIP3    H136590   5.990   0.266   3.346  1.8383  1.3667 -0.9683
 5033TIP3    H236591   5.918   0.157   3.270  1.4549 -0.8371  2.4403
 5034TIP3   OH236592   1.242   3.358   4.958 -0.6702  0.3969  0.2901
 5034TIP3    H136593   1.251   3.339   4.865 -0.8718  3.5074 -0.4116
 5034TIP3    H236594   1.305   3.300   5.001  0.3523 -0.1353 -1.8837
 5035TIP3   OH236595   3.549   1.475   0.887 -0.2659 -0.2842 -0.0539
 5035TIP3    H136596   3.604   1.535   0.938  1.6065 -0.1963 -2.0976
 5035TIP3    H236597   3.605   1.399   0.872 -1.5740 -1.2519 -0.0881
 5036TIP3   OH236598   4.158   5.046   0.786  0.1782 -0.0256  0.4582
 5036TIP3    H136599   4.199   5.089   0.711  0.8990 -0.2903  0.6922
 5036TIP3    H236600   4.194   5.090   0.862 -1.2939  0.8923  0.6383
 5037TIP3   OH236601   4.812   3.568  17.073 -0.6197 -0.2951  0.0289
 5037TIP3    H136602   4.810   3.510  17.150 -1.7743  1.9298  1.7294
 5037TIP3    H236603   4.727   3.613  17.075 -0.3721  0.3009 -2.1714
 5038TIP3   OH236604   6.272   2.264   2.256 -1.0232 -0.2628  0.3114
 5038TIP3    H136605   6.291   2.351   2.292  1.4871 -1.0586  1.0132
 5038TIP3    H236606   6.302   2.268   2.166  0.0979 -0.7089  0.6540
 5039TIP3   OH236607   4.012   3.804   0.095  0.1214  0.2678 -0.6708
 5039TIP3    H136608   3.987   3.731   0.151  1.6764  1.2427  1.3398
 5039TIP3    H236609   3.936   3.861   0.093 -0.4137 -0.4419 -0.6675
 5040TIP3   OH236610   2.125   5.595   2.359  0.3521  0.2342  0.2713
 5040TIP3    H136611   2.171   5.679   2.357  0.5727  0.1016 -0.8758
 5040TIP3    H236612   2.166   5.544   2.289 -0.4864 -0.4557  0.2701
 5041TIP3   OH236613   5.033   2.193  15.779  0.6089 -0.4058  0.0760
 5041TIP3    H136614   4.978   2.163  15.707 -0.8798  2.0111  0.1338
 5041TIP3    H236615   5.113   2.223  15.737  0.3093 -0.3040 -0.4304
 5042TIP3   OH236616   2.456   4.164  11.927  0.0418 -0.1719 -0.2182
 5042TIP3    H136617   2.393   4.232  11.906 -0.4864 -0.5719  0.0719
 5042TIP3    H236618   2.540   4.210  11.933 -0.2385  0.3759 -0.4753
 5043TIP3   OH236619   3.306   1.922  13.548 -0.0877 -0.5261  0.2757
 5043TIP3    H136620   3.387   1.960  13.583  0.1922 -0.1869 -0.7195
 5043TIP3    H236621   3.334   1.877  13.468 -0.6519 -1.6248  0.6955
 5044TIP3   OH236622   5.012   5.590  12.005 -0.2091  0.5293  0.1430
 5044TIP3    H136623   4.975   5.589  12.093  0.3892  1.2145  0.4021
 5044TIP3    H236624   4.995   5.502  11.971  1.2601 -0.3646  1.6374
 5045TIP3   OH236625   0.605   1.796   2.011  0.1375 -0.6768  0.1637
 5045TIP3    H136626   0.571   1.879   1.977  2.0147  0.8040  1.7977
 5045TIP3    H236627   0.642   1.752   1.934  0.7091  0.7982 -0.4254
 5046TIP3   OH236628   0.478   4.925  15.454 -0.1995  0.4174  0.0594
 5046TIP3    H136629   0.478   4.927  15.358  1.9757  0.4093  0.0359
 5046TIP3    H236630   0.518   5.008  15.479  0.1920 -0.0315  0.9348
 5047TIP3   OH236631   1.861   4.158  11.616  0.0170 -0.4096 -0.2368
 5047TIP3    H136632   1.869   4.247  11.580 -0.2397 -0.1578  0.3256
 5047TIP3    H236633   1.819   4.108  11.547 -1.2201  0.2652  0.0131
 5048TIP3   OH236634   4.995   6.547   4.589  1.1878 -0.1313  0.7497
 5048TIP3    H136635   5.021   6.639   4.582  1.5966 -0.1858  1.5306
 5048TIP3    H236636   5.078   6.499   4.587  0.9170 -0.5745 -0.9246
 5049TIP3   OH236637   4.295   4.789   0.700 -0.4690  0.3905 -0.3818
 5049TIP3    H136638   4.339   4.874   0.708 -0.3738  0.3185 -0.1556
 5049TIP3    H236639   4.235   4.786   0.774  0.5209 -0.3384  0.3920
 5050TIP3   OH236640   2.402   4.303   3.021 -0.1130  1.1574 -0.0106
 5050TIP3    H136641   2.366   4.352   2.947  0.9214  2.6319  0.4377
 5050TIP3    H236642   2.347   4.226   3.028  0.1813  0.6404 -2.7619
 5051TIP3   OH236643   5.958   2.971   1.026  0.0272  0.3890  0.1930
 5051TIP3    H136644   5.978   2.909   1.096  2.3361 -0.1058 -0.8441
 5051TIP3    H236645   5.884   3.021   1.059  0.6669 -0.2530  2.7298
 5052TIP3   OH236646   1.656   3.460   0.925 -0.0045  0.2567 -0.0588
 5052TIP3    H136647   1.638   3.501   1.010  1.8399 -0.0921  0.5178
 5052TIP3    H236648   1.569   3.440   0.890 -0.8083  0.8703  1.5151
 5053TIP3   OH236649   1.329   3.558  12.818  0.1583 -0.3774 -0.0576
 5053TIP3    H136650   1.302   3.650  12.821 -0.9092 -0.6921  0.0954
 5053TIP3    H236651   1.408   3.554  12.872  0.1632  0.4383 -0.0080
 5054TIP3   OH236652   1.839   0.372  15.839  0.0697 -0.0783 -0.7991
 5054TIP3    H136653   1.748   0.348  15.852 -0.2051  1.1350 -0.4493
 5054TIP3    H236654   1.837   0.437  15.769  0.3134  2.2825  1.3005
 5055TIP3   OH236655   2.488   5.650   0.826 -0.1519  0.0025  0.0632
 5055TIP3    H136656   2.505   5.565   0.786  1.9961  0.6556 -0.4357
 5055TIP3    H236657   2.473   5.709   0.752 -2.8044 -0.1200  0.4246
 5056TIP3   OH236658   1.481   0.015   2.721 -0.0485  0.4147  0.4689
 5056TIP3    H136659   1.474   0.103   2.758  0.9019  0.7213 -0.0750
 5056TIP3    H236660   1.410  -0.034   2.762 -0.6797  1.4775  0.6571
 5057TIP3   OH236661   6.064   0.214   3.581  0.1015 -0.2421 -0.2165
 5057TIP3    H136662   6.046   0.156   3.655  2.6454  1.5171  1.9262
 5057TIP3    H236663   6.155   0.197   3.558 -0.3155  0.0735 -2.1924
 5058TIP3   OH236664   4.734   0.094   0.514 -0.3431 -0.6922 -0.0465
 5058TIP3    H136665   4.748   0.014   0.463 -0.7688 -0.3051 -0.7860
 5058TIP3    H236666   4.794   0.086   0.588  0.4089 -1.1968 -0.6942
 5059TIP3   OH236667   0.332   6.081   1.175 -0.0180 -0.2013  0.0713
 5059TIP3    H136668   0.327   5.987   1.189 -0.3043 -0.2750 -0.5025
 5059TIP3    H236669   0.244   6.113   1.196 -0.6261 -0.3916 -2.0514
 5060TIP3   OH236670   1.546   2.768  14.285  0.3977  0.1354 -0.0809
 5060TIP3    H136671   1.588   2.853  14.273 -0.5710  0.5281 -0.7832
 5060TIP3    H236672   1.502   2.751  14.202  0.3442 -0.9182  0.1562
 5061TIP3   OH236673   4.853   5.131  13.958 -0.3686  0.3424  0.2400
 5061TIP3    H136674   4.778   5.170  13.914  0.4828 -0.3949 -1.9535
 5061TIP3    H236675   4.903   5.088  13.888  1.8242  0.3787  1.7085
 5062TIP3   OH236676   3.390   6.579   2.854  0.1847 -0.7130 -0.0473
 5062TIP3    H136677   3.465   6.631   2.825 -0.7444  0.2783 -0.7009
 5062TIP3    H236678   3.313   6.627   2.823 -0.7322 -1.7103  0.6178
 5063TIP3   OH236679   6.141   4.683  14.058  0.1378  0.5353  0.1558
 5063TIP3    H136680   6.076   4.689  14.128  0.2698  0.3780  0.2914
 5063TIP3    H236681   6.213   4.632  14.096 -0.4447 -0.8820 -0.5997
 5064TIP3   OH236682   6.493   3.951   0.748 -0.0280  0.0172  0.0338
 5064TIP3    H136683   6.469   3.928   0.837 -1.4622  0.1228 -0.3066
 5064TIP3    H236684   6.448   3.887   0.693  1.7963 -0.7735 -0.5642
 5065TIP3   OH236685   2.286   6.484  15.717 -0.2837  0.3468  0.1430
 5065TIP3    H136686   2.268   6.393  15.740  0.1334  0.1188 -0.4269
 5065TIP3    H236687   2.365   6.507  15.767  1.0886 -0.3956 -1.6507
 5066TIP3   OH236688   4.106   6.405   2.743 -0.1773  0.5695 -0.0945
 5066TIP3    H136689   4.079   6.495   2.762 -0.2622  0.8539 -1.5268
 5066TIP3    H236690   4.178   6.414   2.680  0.4115 -0.3322  0.4455
 5067TIP3   OH236691   2.831   4.120  16.434  0.6727  0.0586  0.2181
 5067TIP3    H136692   2.867   4.032  16.442  1.2473  0.2203 -0.4998
 5067TIP3    H236693   2.906   4.175  16.414  0.1130  0.4849 -0.7490
 5068TIP3   OH236694   6.285   1.663  16.062  0.1820 -0.5072  0.1952
 5068TIP3    H136695   6.235   1.642  16.142  0.6744  0.1142  0.6712
 5068TIP3    H236696   6.231   1.629  15.991  0.6585 -2.8154  0.8966
 5069TIP3   OH236697   1.409   6.571  12.337  0.0698 -0.5170  0.1701
 5069TIP3    H136698   1.331   6.560  12.391  0.7118 -0.6300  1.1082
 5069TIP3    H236699   1.404   6.502  12.271 -0.7583 -0.3446  0.0589
 5070TIP3   OH236700   2.592   4.733   1.027  0.3747 -0.7109  0.0235
 5070TIP3    H136701   2.503   4.703   1.046 -0.7445  1.4159 -1.5511
 5070TIP3    H236702   2.635   4.736   1.112 -1.0462 -1.8587  0.8051
 5071TIP3   OH236703   3.039   6.393   3.088  0.5121 -0.1143 -0.2307
 5071TIP3    H136704   3.006   6.421   3.174 -1.1824  0.2798 -0.9889
 5071TIP3    H236705   3.028   6.471   3.033  0.4969 -0.7298 -1.0961
 5072TIP3   OH236706   4.363   3.545   5.213  0.1234  0.1796  0.0736
 5072TIP3    H136707   4.339   3.498   5.292  0.4614 -0.1157 -0.0002
 5072TIP3    H236708   4.280   3.577   5.178 -0.4382 -2.6728 -1.3416
 5073TIP3   OH236709   5.418   4.271  15.451 -0.0606  0.3696  0.5460
 5073TIP3    H136710   5.493   4.316  15.491  0.6856 -0.5755  0.2351
 5073TIP3    H236711   5.354   4.263  15.522  0.6049  0.1606  1.1294
 5074TIP3   OH236712   1.490   4.744  16.915 -0.3966 -0.4561  0.3770
 5074TIP3    H136713   1.506   4.777  17.004 -1.5299 -1.5022  0.9824
 5074TIP3    H236714   1.474   4.651  16.927 -0.7352 -0.5694 -0.9174
 5075TIP3   OH236715   4.216   0.603   2.774 -0.1088  0.5306 -0.1213
 5075TIP3    H136716   4.151   0.670   2.758 -1.4295 -0.5678  0.5487
 5075TIP3    H236717   4.184   0.555   2.850  1.9762  0.5791  0.8393
 5076TIP3   OH236718   0.761   2.146   4.123 -0.2551  0.3594 -0.6795
 5076TIP3    H136719   0.851   2.177   4.120 -0.5192  0.9583 -3.2966
 5076TIP3    H236720   0.711   2.221   4.154 -0.0990  0.5624 -0.9273
 5077TIP3   OH236721   1.605   2.936  12.419  0.1131 -0.1320 -0.6829
 5077TIP3    H136722   1.624   2.939  12.325  0.2575 -0.5346 -0.6697
 5077TIP3    H236723   1.580   2.845  12.435 -1.3206  0.2707 -0.6045
 5078TIP3   OH236724   3.041   5.578  13.490  0.0745 -0.1875 -0.2200
 5078TIP3    H136725   2.971   5.590  13.426  0.9623 -0.6011 -1.2815
 5078TIP3    H236726   3.099   5.652  13.476 -1.9120  2.1020  3.0311
 5079TIP3   OH236727   5.384   3.481  13.276 -0.1483  0.3284  0.3645
 5079TIP3    H136728   5.320   3.540  13.317  0.1915  2.1972 -1.6819
 5079TIP3    H236729   5.334   3.435  13.208  0.7312  2.1640 -1.5769
 5080TIP3   OH236730   1.126   3.624   0.824 -0.0789 -0.0870  0.7065
 5080TIP3    H136731   1.109   3.684   0.752  1.3159 -0.3889  0.1185
 5080TIP3    H236732   1.167   3.678   0.891  1.3426 -0.3881  0.1075
 5081TIP3   OH236733   5.051   4.389  13.276  0.6774  0.0009 -0.3359
 5081TIP3    H136734   5.104   4.378  13.354 -1.6667  1.3665  1.5000
 5081TIP3    H236735   5.087   4.465  13.232  0.5800  0.6020  0.6194
 5082TIP3   OH236736   6.735   4.986  16.672  0.0798  0.4875  0.6283
 5082TIP3    H136737   6.689   4.921  16.726  1.6594  0.6696  2.2433
 5082TIP3    H236738   6.826   4.958  16.674  0.5039  1.8062 -0.0609
 5083TIP3   OH236739   6.211   3.558   2.808  0.5641  0.2633  0.3334
 5083TIP3    H136740   6.162   3.637   2.785 -0.7789 -0.4230  0.7871
 5083TIP3    H236741   6.298   3.590   2.829  0.3739  1.4982 -0.6251
 5084TIP3   OH236742   1.854   2.903  16.783  0.0296 -0.2128  0.0521
 5084TIP3    H136743   1.824   2.959  16.855  1.6079  0.1355  0.4576
 5084TIP3    H236744   1.902   2.962  16.725 -1.3293 -0.4642 -1.3841
 5085TIP3   OH236745   5.844   3.348   2.422  0.1218 -0.7456 -0.5897
 5085TIP3    H136746   5.772   3.297   2.457  0.1775 -0.4326 -0.0075
 5085TIP3    H236747   5.917   3.286   2.418  0.4345 -0.5008  0.9556
 5086TIP3   OH236748   5.979   1.536   0.231 -0.0037 -0.3859 -0.1632
 5086TIP3    H136749   6.041   1.511   0.163  0.1959 -0.7554  0.1591
 5086TIP3    H236750   6.019   1.611   0.274 -0.3541  0.1630 -0.7661
 5087TIP3   OH236751   3.367   5.633  12.205 -0.6562 -0.1307 -0.0701
 5087TIP3    H136752   3.284   5.585  12.208 -0.7573 -0.0025 -0.7010
 5087TIP3    H236753   3.356   5.693  12.131 -0.3742  0.5687  0.4505
 5088TIP3   OH236754   2.208   3.701  16.127  0.0632 -0.8344  0.2323
 5088TIP3    H136755   2.269   3.773  16.113 -0.3023 -0.2501  1.6425
 5088TIP3    H236756   2.155   3.728  16.202 -2.5648 -0.8963 -1.5345
 5089TIP3   OH236757   2.416   6.757   1.441 -0.3285 -0.3293 -0.1724
 5089TIP3    H136758   2.460   6.815   1.503 -2.2195  1.2640 -0.2516
 5089TIP3    H236759   2.479   6.687   1.424  1.8723  1.4908  0.2392
 5090TIP3   OH236760   5.119   3.829  13.098  0.3533 -0.3960  0.4402
 5090TIP3    H136761   5.170   3.837  13.178 -0.4051  1.6461  0.7570
 5090TIP3    H236762   5.028   3.821  13.127  0.0957  0.1143 -0.1941
 5091TIP3   OH236763   2.212   6.291   1.881  0.2477  0.4651  0.0416
 5091TIP3    H136764   2.303   6.289   1.913  0.9688  1.5482 -1.8297
 5091TIP3    H236765   2.220   6.270   1.788 -1.8030 -2.7745  0.5467
 5092TIP3   OH236766   1.022   0.896  13.744 -1.1389  0.7022 -0.8607
 5092TIP3    H136767   0.972   0.824  13.783 -1.9017  1.2446 -0.8116
 5092TIP3    H236768   0.977   0.913  13.661 -0.3882  0.4962 -1.3102
 5093TIP3   OH236769   4.897   4.688   4.251  0.2689  0.6976 -0.0233
 5093TIP3    H136770   4.812   4.645   4.257  1.3539 -1.5155 -0.1049
 5093TIP3    H236771   4.942   4.664   4.333  1.2536  0.8726 -0.5026
 5094TIP3   OH236772   0.875   2.300  16.758  0.2676 -0.0191  0.5233
 5094TIP3    H136773   0.837   2.220  16.793  2.6951 -2.2484 -1.6893
 5094TIP3    H236774   0.809   2.334  16.697 -0.3263 -0.9570  0.6382
 5095TIP3   OH236775   5.138   6.603   5.256 -0.5639 -0.3959 -0.0136
 5095TIP3    H136776   5.163   6.667   5.322 -1.6192 -1.5482  1.5265
 5095TIP3    H236777   5.222   6.565   5.227 -0.0007  1.0854 -0.3541
 5096TIP3   OH236778   3.874   1.769   5.273  0.0106 -0.1727  0.1969
 5096TIP3    H136779   3.968   1.789   5.274 -0.0676  0.4239 -1.7601
 5096TIP3    H236780   3.832   1.848   5.306  0.1679 -0.2964  0.6997
 5097TIP3   OH236781   3.001   0.407  17.088 -0.4705  0.4279 -0.3185
 5097TIP3    H136782   3.027   0.496  17.112  0.8719 -0.3624  1.2475
 5097TIP3    H236783   3.073   0.374  17.034  0.1329 -0.5042  1.0302
 5098TIP3   OH236784   5.034   4.635   5.103  0.5202  0.3311 -0.0089
 5098TIP3    H136785   5.079   4.595   5.177 -1.5599  0.5673  1.4302
 5098TIP3    H236786   4.946   4.597   5.105 -0.1532  1.7547 -1.2046
 5099TIP3   OH236787   4.372   2.204  13.949  0.3292 -0.1306  0.4970
 5099TIP3    H136788   4.376   2.281  14.005  1.8942 -0.5191  0.9483
 5099TIP3    H236789   4.398   2.236  13.862  1.5997 -0.2609  0.8196
 5100TIP3   OH236790   1.045   5.723  10.770 -0.1885 -0.6370 -0.7024
 5100TIP3    H136791   0.959   5.761  10.753  0.3160  0.7829 -0.1711
 5100TIP3    H236792   1.079   5.700  10.684 -0.4920  0.1528 -1.0329
 5101TIP3   OH236793   3.468   1.871   1.101  0.0480  0.0981 -0.1147
 5101TIP3    H136794   3.438   1.791   1.144  1.4960  0.0519  0.8305
 5101TIP3    H236795   3.401   1.936   1.121 -0.4399 -0.5223  0.2643
 5102TIP3   OH236796   1.462   3.792   3.874  0.1167 -0.4067 -0.2081
 5102TIP3    H136797   1.423   3.758   3.955  0.4314  0.3738  0.2751
 5102TIP3    H236798   1.477   3.885   3.892 -0.4261 -0.0857 -1.4035
 5103TIP3   OH236799   0.499   4.677  13.586 -0.3229 -0.2143  0.1328
 5103TIP3    H136800   0.470   4.746  13.645 -1.4512 -0.0977 -0.5372
 5103TIP3    H236801   0.539   4.723  13.512 -1.4178 -0.2457 -0.4945
 5104TIP3   OH236802   1.369   2.791  12.679 -0.6483  0.0090 -0.1543
 5104TIP3    H136803   1.368   2.880  12.716 -2.2662  0.3494 -0.9920
 5104TIP3    H236804   1.369   2.734  12.756 -0.4252  0.7258  0.3884
 5105TIP3   OH236805   2.761   1.205   4.342 -0.6078 -0.3330  0.3399
 5105TIP3    H136806   2.756   1.197   4.437 -0.3222  2.5756  0.6496
 5105TIP3    H236807   2.854   1.218   4.324 -1.0270  2.7167  0.0603
 5106TIP3   OH236808   2.938   1.098   4.937 -0.0523  0.0088 -0.3464
 5106TIP3    H136809   2.898   1.030   4.883 -2.2820  0.1067  1.1021
 5106TIP3    H236810   2.883   1.175   4.923  1.0799  0.8572 -0.1876
 5107TIP3   OH236811   3.454   4.147   3.021 -0.1457 -0.2352 -0.1949
 5107TIP3    H136812   3.491   4.169   2.936  1.8463  0.3689  0.8142
 5107TIP3    H236813   3.483   4.057   3.038  1.5778  0.4960  0.9315
 5108TIP3   OH236814   0.615   2.349  16.906 -0.0395  0.1970 -0.4449
 5108TIP3    H136815   0.588   2.364  16.997 -0.3457  0.6732 -0.6140
 5108TIP3    H236816   0.675   2.274  16.911  0.1457  0.3816  0.1851
 5109TIP3   OH236817   0.122   4.842  16.731 -0.0170 -0.3966 -0.2435
 5109TIP3    H136818   0.070   4.771  16.693  0.0597 -0.7823  0.3674
 5109TIP3    H236819   0.173   4.800  16.800  1.4030 -0.0933 -1.0941
 5110TIP3   OH236820   1.560   4.109   6.432 -0.5051  0.4805 -0.0805
 5110TIP3    H136821   1.475   4.084   6.469 -0.3819 -1.6475 -1.1682
 5110TIP3    H236822   1.556   4.204   6.426 -2.1013  0.5478  1.5919
 5111TIP3   OH236823   2.415   0.253   4.263  0.0215  0.2642 -0.5945
 5111TIP3    H136824   2.366   0.239   4.344 -2.0153  1.8802 -1.4824
 5111TIP3    H236825   2.506   0.240   4.287 -0.5311  0.9331  2.0130
 5112TIP3   OH236826   0.372   2.794  16.009 -0.2317 -0.2932 -0.0220
 5112TIP3    H136827   0.407   2.821  15.924 -0.4862  0.7240  0.1853
 5112TIP3    H236828   0.326   2.712  15.991 -0.5256  0.0604 -0.9208
 5113TIP3   OH236829   1.656   3.089  11.612  0.4991  0.2438 -0.2214
 5113TIP3    H136830   1.654   3.185  11.606 -1.2964  0.5876  4.3127
 5113TIP3    H236831   1.565   3.062  11.595  0.4436 -0.4386  1.1278
 5114TIP3   OH236832   5.932   6.396   1.368 -0.4607 -0.4816  0.2851
 5114TIP3    H136833   5.895   6.444   1.442 -0.2980 -0.9133  0.6605
 5114TIP3    H236834   5.937   6.459   1.297  0.2289  0.2004  0.9218
 5115TIP3   OH236835   0.264   1.192   5.368  0.2241  0.3626 -0.1919
 5115TIP3    H136836   0.329   1.256   5.397 -0.5966  1.0214  0.2086
 5115TIP3    H236837   0.217   1.236   5.297 -0.6665  0.3840  0.4088
 5116TIP3   OH236838   5.979   1.347   5.382  0.3629  0.0146  0.7242
 5116TIP3    H136839   6.012   1.431   5.414  1.0311 -0.3506  0.9943
 5116TIP3    H236840   5.885   1.352   5.397  0.5502  0.2115  1.9110
 5117TIP3   OH236841   5.057   1.204  16.372  0.2538  0.3412  0.0630
 5117TIP3    H136842   5.016   1.252  16.300 -2.9252 -0.7768  1.0174
 5117TIP3    H236843   5.111   1.269  16.417 -2.8160  2.7648  0.4794
 5118TIP3   OH236844   5.254   1.455  15.581  0.5211  0.1629  0.0649
 5118TIP3    H136845   5.296   1.461  15.495  0.7143  1.1842  0.2236
 5118TIP3    H236846   5.167   1.492  15.569  0.0010 -1.0380 -0.0223
 5119TIP3   OH236847   4.264   5.541   3.703  0.8745  0.9742  0.5295
 5119TIP3    H136848   4.200   5.471   3.688  0.1475  1.9348 -0.9710
 5119TIP3    H236849   4.329   5.529   3.635  0.0293  2.5514 -0.5982
 5120TIP3   OH236850   6.420   1.535   3.425  0.0405  0.0391  0.0749
 5120TIP3    H136851   6.437   1.546   3.518  1.3446  2.9823 -0.4575
 5120TIP3    H236852   6.488   1.474   3.396  0.4810  0.1758  0.7984
 5121TIP3   OH236853   5.315   4.509   4.432  0.0802  0.1130 -0.0572
 5121TIP3    H136854   5.228   4.510   4.473  0.6513 -1.1772  1.2314
 5121TIP3    H236855   5.298   4.527   4.340 -1.5242  0.2454  0.2478
 5122TIP3   OH236856   1.508   2.692   1.525  0.7187 -0.1511 -0.3540
 5122TIP3    H136857   1.447   2.698   1.451  0.5372 -2.2308 -0.3948
 5122TIP3    H236858   1.564   2.618   1.504  0.0611 -1.3891  2.0271
 5123TIP3   OH236859   3.103   3.528  13.831 -0.3047 -0.1354 -0.4151
 5123TIP3    H136860   3.029   3.557  13.884 -0.1461 -0.4828  0.0094
 5123TIP3    H236861   3.172   3.592  13.850  0.4078 -1.3691  1.3878
 5124TIP3   OH236862   0.356   3.520   2.904 -0.1402 -0.2476  0.2970
 5124TIP3    H136863   0.307   3.601   2.917 -0.3513 -0.2911 -0.2236
 5124TIP3    H236864   0.420   3.520   2.976  0.8599  1.1266 -0.5599
 5125TIP3   OH236865   2.297   5.806   2.886 -0.5936 -0.2967  0.0703
 5125TIP3    H136866   2.285   5.894   2.851  0.9011  0.1369  0.5905
 5125TIP3    H236867   2.392   5.794   2.887 -0.7393 -1.4790  1.0683
 5126TIP3   OH236868   4.282   6.592   5.847 -0.0710 -0.2434 -0.2228
 5126TIP3    H136869   4.349   6.601   5.780 -0.7755  1.6293 -0.6954
 5126TIP3    H236870   4.237   6.511   5.825  0.0558  0.0742 -1.6821
 5127TIP3   OH236871   5.450   5.961  13.960  0.1852 -0.6253 -0.0338
 5127TIP3    H136872   5.381   5.952  13.894 -0.9125  0.2861  0.9723
 5127TIP3    H236873   5.426   5.898  14.028 -0.1469  0.3225  0.7315
 5128TIP3   OH236874   3.263   2.872   4.986 -0.2707  0.1557 -0.2069
 5128TIP3    H136875   3.316   2.901   4.912 -0.2683  0.6587 -0.0117
 5128TIP3    H236876   3.199   2.812   4.948 -0.8582  1.1203 -0.7685
 5129TIP3   OH236877   4.315   2.493  14.737  0.4859 -0.3600 -0.5288
 5129TIP3    H136878   4.331   2.580  14.701  0.3308 -1.7041 -3.9961
 5129TIP3    H236879   4.220   2.488  14.748  0.2012 -1.0341 -2.9843
 5130TIP3   OH236880   3.873   2.102   0.934 -0.0427  0.6054 -0.1507
 5130TIP3    H136881   3.868   2.083   1.028 -0.6644 -0.9013 -0.4804
 5130TIP3    H236882   3.833   2.026   0.892  0.6525  1.0677 -1.6649
 5131TIP3   OH236883   6.377   2.753   3.418 -0.3665 -0.0778 -0.4245
 5131TIP3    H136884   6.405   2.662   3.426  1.0086  0.1977 -1.8059
 5131TIP3    H236885   6.456   2.800   3.390 -1.0060  1.5702  0.4934
 5132TIP3   OH236886   3.262   4.919  16.193  0.5634  0.1278 -0.5652
 5132TIP3    H136887   3.229   4.994  16.242  3.0172 -0.3675  1.9926
 5132TIP3    H236888   3.190   4.856  16.193 -0.4134  1.2309  0.0296
 5133TIP3   OH236889   3.879   5.422  17.071 -0.6727 -0.5009  0.3343
 5133TIP3    H136890   3.789   5.451  17.084 -1.1384 -1.3870 -0.8088
 5133TIP3    H236891   3.904   5.460  16.987 -0.6377 -1.7988 -0.2574
 5134TIP3   OH236892   3.055   5.727   0.914  0.3873  0.0836  0.4551
 5134TIP3    H136893   3.131   5.783   0.933  1.3500 -0.9643 -0.2272
 5134TIP3    H236894   3.077   5.643   0.953 -0.2299 -0.3488 -0.1161
 5135TIP3   OH236895   2.971   1.365  12.175 -0.2320  0.3651 -0.0692
 5135TIP3    H136896   2.987   1.377  12.269  2.5284  1.6487 -0.6507
 5135TIP3    H236897   2.963   1.454  12.141 -1.7073 -0.1100 -0.9873
 5136TIP3   OH236898   3.463   6.146  13.492 -0.1896  0.4084 -0.5562
 5136TIP3    H136899   3.550   6.185  13.481 -0.2221  0.1809 -1.7063
 5136TIP3    H236900   3.412   6.213  13.537  0.8421  0.1708  1.0093
 5137TIP3   OH236901   1.179   4.578   1.368  0.0857  0.5470 -0.3267
 5137TIP3    H136902   1.125   4.506   1.337 -0.0420  0.2381  0.5885
 5137TIP3    H236903   1.254   4.580   1.308 -0.2148  0.0465 -0.7202
 5138TIP3   OH236904   6.720   5.497  14.881 -0.8645 -0.4199  0.2953
 5138TIP3    H136905   6.781   5.441  14.833  0.0280 -0.5251  1.5289
 5138TIP3    H236906   6.707   5.573  14.824  3.6245  1.5488  1.6659
 5139TIP3   OH236907   0.017   4.649  12.882 -0.3057 -0.8794  0.4246
 5139TIP3    H136908   0.003   4.577  12.821 -1.9406 -0.7216  0.5803
 5139TIP3    H236909  -0.041   4.718  12.851 -0.5539 -0.5100  1.6872
 5140TIP3   OH236910   0.814   3.131   3.835  0.4347  0.1237  0.3505
 5140TIP3    H136911   0.755   3.159   3.764 -0.3388 -1.4406  0.3664
 5140TIP3    H236912   0.891   3.188   3.826 -0.3490  1.0213 -0.7420
 5141TIP3   OH236913   0.455   3.841  13.589 -0.0705 -0.4079  0.1628
 5141TIP3    H136914   0.426   3.802  13.671 -1.0261  0.4765  0.2627
 5141TIP3    H236915   0.441   3.772  13.524 -0.7505 -0.6024  0.5053
 5142TIP3   OH236916   3.273   3.587  14.688 -0.1449 -0.3231  0.1121
 5142TIP3    H136917   3.360   3.624  14.673  0.2747 -1.3963 -0.1246
 5142TIP3    H236918   3.220   3.619  14.615 -0.1255  0.8483  0.5913
 5143TIP3   OH236919   2.359   0.608  13.758  0.1357 -0.5500 -0.4910
 5143TIP3    H136920   2.436   0.657  13.729 -0.0903 -0.8579 -1.6407
 5143TIP3    H236921   2.287   0.670  13.749  0.0015 -0.7776 -1.0067
 5144TIP3   OH236922   3.648   5.839   5.225 -0.0788  0.1822  0.1651
 5144TIP3    H136923   3.723   5.851   5.167 -0.4692  0.9342 -0.2017
 5144TIP3    H236924   3.655   5.910   5.289 -0.8140  0.6365 -0.2482
 5145TIP3   OH236925   5.711   6.545  12.140  0.1637 -0.2783  0.1130
 5145TIP3    H136926   5.724   6.602  12.065  2.1124  2.5523  2.5137
 5145TIP3    H236927   5.616   6.540  12.151 -0.1735 -0.9852 -2.6245
 5146TIP3   OH236928   0.228   6.675  14.009  0.0130 -0.4383 -0.2728
 5146TIP3    H136929   0.203   6.593  13.965  1.1491 -0.0927 -1.5682
 5146TIP3    H236930   0.290   6.647  14.076  0.5784 -0.6085 -0.8652
 5147TIP3   OH236931   0.095   4.424   1.905  0.0681  0.0801 -0.3831
 5147TIP3    H136932   0.189   4.408   1.913 -0.3156 -1.6296  1.0118
 5147TIP3    H236933   0.065   4.439   1.995 -1.0702  0.0854 -0.7549
 5148TIP3   OH236934   2.030   0.851  16.709 -0.0100  0.1144  0.4136
 5148TIP3    H136935   2.036   0.792  16.634 -0.2580  1.6622 -0.8429
 5148TIP3    H236936   1.966   0.809  16.767  0.9107 -1.5872  0.2411
 5149TIP3   OH236937   3.441   4.415  15.707  0.0102  1.0661  0.2222
 5149TIP3    H136938   3.501   4.342  15.722  0.2898  1.3138  0.3199
 5149TIP3    H236939   3.363   4.375  15.669 -0.8641  0.3749  2.6725
 5150TIP3   OH236940   4.339   2.446   2.563 -0.1019  0.8228 -0.5812
 5150TIP3    H136941   4.258   2.394   2.563 -0.1041  0.8279 -0.7002
 5150TIP3    H236942   4.309   2.537   2.556 -0.1118  0.8623 -0.0646
 5151TIP3   OH236943   5.629   1.901  11.578  0.1339 -0.6952 -0.0023
 5151TIP3    H136944   5.535   1.887  11.593  0.0643 -1.3288 -0.9846
 5151TIP3    H236945   5.672   1.845  11.642 -0.1428  1.0483  1.7590
 5152TIP3   OH236946   3.124   6.050  16.974 -0.7024 -0.1886 -0.1126
 5152TIP3    H136947   3.058   6.087  17.033  0.8700 -0.2101  1.6885
 5152TIP3    H236948   3.079   6.045  16.889 -2.9467  0.0254  1.0033
 5153TIP3   OH236949   6.275   0.377   3.924  0.4226  0.6208 -0.9092
 5153TIP3    H136950   6.256   0.471   3.927  1.7942  0.8765  1.3458
 5153TIP3    H236951   6.329   0.366   3.846  0.9538  1.8486 -0.7220
 5154TIP3   OH236952   4.193   5.592  15.334 -0.1763  0.3502  0.3434
 5154TIP3    H136953   4.224   5.653  15.267  0.9811 -3.3054 -2.6115
 5154TIP3    H236954   4.112   5.556  15.298 -0.6958 -0.1272  1.9320
 5155TIP3   OH236955   5.909   5.089  12.727 -0.3993 -0.0879 -0.7629
 5155TIP3    H136956   5.950   5.011  12.764  0.1048  0.6460  0.2556
 5155TIP3    H236957   5.818   5.064  12.710  0.2485 -1.4939 -2.3089
 5156TIP3   OH236958   2.581   2.617   1.623  0.5430  0.3380  0.4383
 5156TIP3    H136959   2.523   2.551   1.661 -1.4142  0.6882 -1.7969
 5156TIP3    H236960   2.659   2.568   1.596 -0.3226 -0.8126  0.0151
 5157TIP3   OH236961   5.149   5.385   0.963  0.1471 -0.4589  0.0394
 5157TIP3    H136962   5.064   5.359   0.927  0.3587  0.6457 -1.2800
 5157TIP3    H236963   5.201   5.304   0.961 -0.6870 -1.0095  0.3237
 5158TIP3   OH236964   4.103   4.599   4.495 -0.1053 -0.4720  0.4656
 5158TIP3    H136965   4.047   4.615   4.419  0.4005  0.7600  0.3526
 5158TIP3    H236966   4.055   4.533   4.545 -1.5223  0.3328  0.2073
 5159TIP3   OH236967   3.852   2.665   0.995 -0.2916 -0.2096  0.2207
 5159TIP3    H136968   3.781   2.704   0.943 -0.8078 -0.5714  0.6429
 5159TIP3    H236969   3.812   2.650   1.081  0.1698 -0.8453  0.3224
 5160TIP3   OH236970   5.625   5.055  12.716 -0.4240 -1.0487 -0.1310
 5160TIP3    H136971   5.585   5.069  12.630  0.5157 -0.5487 -0.4997
 5160TIP3    H236972   5.629   5.142  12.756  1.1282 -0.9369 -0.4869
 5161TIP3   OH236973   4.403   6.538   1.302  0.2914  0.0015  0.1485
 5161TIP3    H136974   4.402   6.626   1.265  1.4927 -0.5400 -1.1901
 5161TIP3    H236975   4.340   6.543   1.375 -0.9323  1.4929 -0.9590
 5162TIP3   OH236976   3.373   4.191   3.784 -0.1365 -0.0083 -0.1530
 5162TIP3    H136977   3.331   4.191   3.870 -1.1098  0.9290 -0.6177
 5162TIP3    H236978   3.339   4.113   3.740  1.5531 -1.3589  0.8582
 5163TIP3   OH236979   4.613   0.388   2.587  0.3709 -0.0186 -0.3722
 5163TIP3    H136980   4.706   0.381   2.565  0.7334  0.6441  0.8725
 5163TIP3    H236981   4.597   0.482   2.595 -0.2514 -0.1595  0.0640
 5164TIP3   OH236982   0.843   2.987  16.170 -0.3863  0.2185 -0.2265
 5164TIP3    H136983   0.784   2.999  16.245  0.4059  1.3956  0.2186
 5164TIP3    H236984   0.867   2.895  16.173 -1.5615 -0.0899  0.0641
 5165TIP3   OH236985   5.634   3.009   5.538 -0.5205  0.0069  0.2140
 5165TIP3    H136986   5.654   2.946   5.607  0.5307  0.1953  0.0867
 5165TIP3    H236987   5.539   3.000   5.524 -1.0043  0.9940  2.6764
 5166TIP3   OH236988   5.093   1.094   5.823  0.0683  0.1877  0.3461
 5166TIP3    H136989   5.130   1.137   5.746  1.5734  0.8661  1.4265
 5166TIP3    H236990   5.100   1.000   5.804  2.0062  0.3051  0.3464
 5167TIP3   OH236991   1.902   4.621  15.970 -0.2848 -0.1277  0.2561
 5167TIP3    H136992   1.827   4.648  16.023  0.5094  0.7733  0.9429
 5167TIP3    H236993   1.978   4.653  16.019  0.4979 -0.1374 -0.9389
 5168TIP3   OH236994   3.087   0.118  13.220 -0.5887 -0.5458  0.4562
 5168TIP3    H136995   3.085   0.157  13.308  0.9285  0.2190  0.1696
 5168TIP3    H236996   3.082   0.193  13.161 -1.8437 -1.0757 -0.1307
 5169TIP3   OH236997   4.136   6.390   6.370  0.8673 -0.0951 -0.0038
 5169TIP3    H136998   4.150   6.362   6.460 -0.1572 -1.5880 -0.3004
 5169TIP3    H236999   4.068   6.457   6.377  0.2363 -0.7591  0.2546
 5170TIP3   OH237000   4.019   0.854   2.103  0.1751 -0.3371 -0.3125
 5170TIP3    H137001   4.033   0.820   2.014  1.1030 -1.0470  0.0928
 5170TIP3    H237002   4.079   0.928   2.110  0.2136 -0.3756 -0.2299
 5171TIP3   OH237003   6.458   6.810  13.891  0.4132  0.2184  0.1764
 5171TIP3    H137004   6.488   6.868  13.822  1.1235  0.3266  0.5676
 5171TIP3    H237005   6.537   6.791  13.942 -0.0134 -0.2406  0.6718
 5172TIP3   OH237006   5.331   2.763  13.462  0.9265 -0.5194  0.1417
 5172TIP3    H137007   5.291   2.688  13.418  0.0449  0.5166 -0.8880
 5172TIP3    H237008   5.376   2.727  13.538  0.5931 -2.0888 -0.4047
 5173TIP3   OH237009   5.491   0.901   2.740  0.1969  0.2545  0.3585
 5173TIP3    H137010   5.533   0.897   2.654  0.4046  0.4983  0.4465
 5173TIP3    H237011   5.411   0.850   2.730  0.7712 -0.6597  0.3386
 5174TIP3   OH237012   5.653   2.285  12.893  0.0229  0.8845 -0.0760
 5174TIP3    H137013   5.590   2.215  12.913 -0.6510  1.3605 -0.4999
 5174TIP3    H237014   5.659   2.335  12.975 -0.2721  0.9337 -0.0833
 5175TIP3   OH237015   0.184   0.811   3.666  0.3370  0.5516 -0.5131
 5175TIP3    H137016   0.094   0.804   3.698  0.5326 -1.0766 -0.2723
 5175TIP3    H237017   0.189   0.900   3.629 -1.5666  0.4041 -1.2083
 5176TIP3   OH237018   6.729   0.448  13.037  0.2665  0.2021 -0.0497
 5176TIP3    H137019   6.711   0.371  12.983 -1.7559  1.1194 -0.7758
 5176TIP3    H237020   6.769   0.414  13.116  1.0941 -1.4142 -1.1357
 5177TIP3   OH237021   3.431   3.008  16.285  0.0018 -0.2332 -0.0973
 5177TIP3    H137022   3.418   2.939  16.219  1.0430 -1.2884  0.7731
 5177TIP3    H237023   3.496   2.971  16.345 -1.1545  0.5794  1.7029
 5178TIP3   OH237024   1.964   4.644   3.817 -0.3110  0.2446  0.0832
 5178TIP3    H137025   1.890   4.583   3.819 -0.0339 -0.0749  2.4696
 5178TIP3    H237026   1.932   4.722   3.864  0.9630 -0.0386  1.4517
 5179TIP3   OH237027   6.241   1.492   1.254 -0.3703 -0.4436  0.2206
 5179TIP3    H137028   6.200   1.510   1.169 -1.0736 -0.1635  0.6081
 5179TIP3    H237029   6.335   1.501   1.238 -0.5845  1.3741 -0.1373
 5180TIP3   OH237030   3.906   6.621  16.032 -0.6133  0.0613 -0.5951
 5180TIP3    H137031   3.966   6.594  16.102 -1.8155  0.1931  0.5051
 5180TIP3    H237032   3.870   6.704  16.063 -3.6227 -1.4661  0.1850
 5181TIP3   OH237033   5.400   5.783  13.273 -0.0802  0.0562  0.1908
 5181TIP3    H137034   5.473   5.818  13.322 -0.9133  0.6012  1.0513
 5181TIP3    H237035   5.438   5.755  13.189  0.4968  3.6004 -0.8025
 5182TIP3   OH237036   6.590   0.830   2.806  0.1829 -0.4586 -0.2956
 5182TIP3    H137037   6.685   0.838   2.808  0.2287 -0.9049 -0.6837
 5182TIP3    H237038   6.558   0.917   2.830  0.6854 -0.2088 -0.5275
 5183TIP3   OH237039   2.059   5.575   0.935  0.1021  0.3357 -0.2191
 5183TIP3    H137040   1.996   5.555   0.866  0.3579 -2.0944  0.2037
 5183TIP3    H237041   2.120   5.637   0.895  0.0864 -0.8369 -2.1129
 5184TIP3   OH237042   3.067   5.767  12.619 -0.5982 -0.2008 -0.0648
 5184TIP3    H137043   3.114   5.684  12.623  1.1084  0.8218  2.3048
 5184TIP3    H237044   2.998   5.759  12.686 -0.1084  0.4498  0.5316
 5185TIP3   OH237045   3.383   2.393  13.355  0.0717 -0.3915  0.1849
 5185TIP3    H137046   3.369   2.464  13.417  0.2465 -0.3682  0.1970
 5185TIP3    H237047   3.294   2.367  13.329  0.0211  0.4419 -0.5175
 5186TIP3   OH237048   2.316   6.287   5.265  0.4000 -0.5528  0.4498
 5186TIP3    H137049   2.273   6.220   5.318  0.7733 -0.2589  1.1284
 5186TIP3    H237050   2.298   6.369   5.311  2.3342 -0.5158  1.1503
 5187TIP3   OH237051   0.178   4.435  11.435  0.2821 -0.5064 -0.6003
 5187TIP3    H137052   0.199   4.413  11.345  0.4157 -0.9466 -0.4632
 5187TIP3    H237053   0.262   4.456  11.475  0.2104 -0.2083 -0.6068
 5188TIP3   OH237054   5.247   3.867  14.706 -0.2333 -0.0738  0.4021
 5188TIP3    H137055   5.342   3.870  14.694  0.0382 -0.3183  2.2546
 5188TIP3    H237056   5.211   3.869  14.618  1.4467  1.5749 -0.2773
 5189TIP3   OH237057   5.319   1.653   6.572 -0.3128  0.3415 -0.5528
 5189TIP3    H137058   5.333   1.569   6.614 -0.0003 -0.7603 -2.7785
 5189TIP3    H237059   5.227   1.674   6.590  0.3413  0.8848  2.3239
 5190TIP3   OH237060   4.074   6.332  13.889  0.1757 -0.0432  0.5366
 5190TIP3    H137061   4.097   6.242  13.864 -4.3623 -1.3960  0.7270
 5190TIP3    H237062   4.094   6.384  13.812 -0.2594 -1.8356 -0.8270
 5191TIP3   OH237063   0.090   1.465   2.894 -0.2693 -0.3858  0.6931
 5191TIP3    H137064   0.034   1.498   2.823 -0.7612 -0.1698  1.1748
 5191TIP3    H237065   0.144   1.398   2.853 -0.0670  0.2229 -0.0395
 5192TIP3   OH237066   4.505   6.012   2.093  0.0560  0.0868  0.2691
 5192TIP3    H137067   4.413   5.994   2.076  0.0276 -0.3531  0.8862
 5192TIP3    H237068   4.506   6.102   2.126 -0.1741  0.0132  0.4749
 5193TIP3   OH237069   3.434   5.768   4.189  0.0752  0.1871  0.1033
 5193TIP3    H137070   3.392   5.819   4.119  0.1112  1.3908  0.9549
 5193TIP3    H237071   3.525   5.795   4.187  0.0307  0.3917  0.7631
 5194TIP3   OH237072   5.287   1.307   1.091 -0.3776  0.0050 -0.1637
 5194TIP3    H137073   5.316   1.217   1.081  1.2466  0.4206  0.7005
 5194TIP3    H237074   5.317   1.351   1.011  0.7398  0.2578  0.3828
 5195TIP3   OH237075   0.227   3.086  12.252 -0.4758  0.2520 -0.1259
 5195TIP3    H137076   0.207   3.163  12.307  0.1227  0.9931 -0.9318
 5195TIP3    H237077   0.242   3.123  12.165  2.3260 -0.5123  0.0070
 5196TIP3   OH237078   5.222   6.633  16.390 -0.6928  0.8594 -0.3569
 5196TIP3    H137079   5.167   6.676  16.324  1.5336  5.1921  0.4323
 5196TIP3    H237080   5.308   6.673  16.379  0.4860 -0.5313  3.1903
 5197TIP3   OH237081   1.507   3.575   2.743 -0.4185 -0.4170  0.3631
 5197TIP3    H137082   1.579   3.514   2.732  0.6006  1.0353 -1.3040
 5197TIP3    H237083   1.532   3.629   2.818  0.7870  0.8085 -0.8958
 5198TIP3   OH237084   5.832   1.059  13.811 -0.7388 -0.1589  0.4587
 5198TIP3    H137085   5.833   0.993  13.880  0.2565  0.4006  0.9902
 5198TIP3    H237086   5.743   1.092  13.811 -1.2352 -1.4736  0.2132
 5199TIP3   OH237087   4.514   4.884  16.482 -0.4690  0.7787 -0.1317
 5199TIP3    H137088   4.536   4.971  16.516  1.5857 -0.3124  1.4868
 5199TIP3    H237089   4.551   4.882  16.394  4.3806 -0.2506  1.7594
 5200TIP3   OH237090   4.330   0.446   0.721  0.0604 -0.0708 -0.2148
 5200TIP3    H137091   4.423   0.458   0.702  0.3548 -0.7406  0.7933
 5200TIP3    H237092   4.300   0.380   0.658 -0.2676  1.7558 -2.0384
 5201TIP3   OH237093   0.892   0.674  10.986  0.3486  0.2393  0.4019
 5201TIP3    H137094   0.814   0.680  10.931 -0.1531  1.0175  1.1912
 5201TIP3    H237095   0.944   0.604  10.946 -0.7361 -0.2681 -0.1468
 5202TIP3   OH237096   1.573   3.826   5.954 -0.2225  0.2851 -0.1579
 5202TIP3    H137097   1.640   3.778   6.003 -1.3861  0.3764  1.5595
 5202TIP3    H237098   1.570   3.782   5.869  1.4591 -0.2100  0.0185
 5203TIP3   OH237099   5.762   3.067  14.269 -0.2217  0.1091  0.1634
 5203TIP3    H137100   5.734   3.059  14.360  0.8537  0.2953  0.5117
 5203TIP3    H237101   5.697   3.017  14.220  0.8918 -2.5653  1.3315
 5204TIP3   OH237102   6.057   1.841   1.515  0.4525 -0.4197  0.4681
 5204TIP3    H137103   6.125   1.816   1.577  0.1613 -1.9796  0.1882
 5204TIP3    H237104   6.016   1.758   1.490 -1.3220  0.4704  0.3719
 5205TIP3   OH237105   1.152   0.347   0.618 -0.1742 -0.5954  0.1041
 5205TIP3    H137106   1.107   0.272   0.658 -0.9318 -0.4757 -0.5172
 5205TIP3    H237107   1.106   0.424   0.653 -0.0536 -0.4527 -0.0499
 5206TIP3   OH237108   4.220   5.688  10.556 -0.0023  0.1051  0.1601
 5206TIP3    H137109   4.170   5.742  10.617 -1.4696  0.9857 -1.7439
 5206TIP3    H237110   4.154   5.647  10.501  1.2877 -0.5003 -0.9752
 5207TIP3   OH237111   4.507   3.108   2.694 -0.5447  0.0624  0.2431
 5207TIP3    H137112   4.453   3.173   2.649 -0.2874 -0.5685 -1.0079
 5207TIP3    H237113   4.530   3.150   2.777  1.7450  2.6455 -1.5942
 5208TIP3   OH237114   5.552   4.180  11.813  0.2793  0.1502  0.2389
 5208TIP3    H137115   5.647   4.190  11.816  0.2837  0.6554 -1.3365
 5208TIP3    H237116   5.524   4.238  11.743 -0.9965 -1.5584 -0.6985
 5209TIP3   OH237117   5.226   5.386   2.872 -0.1448  0.1117 -0.6504
 5209TIP3    H137118   5.156   5.451   2.863  0.0594  0.4766  0.2947
 5209TIP3    H237119   5.182   5.310   2.910 -0.2529 -0.0594 -1.1210
 5210TIP3   OH237120   4.504   1.530   2.806 -0.0192  0.1895 -0.0180
 5210TIP3    H137121   4.547   1.474   2.741 -0.0978 -1.9124  1.6859
 5210TIP3    H237122   4.505   1.478   2.886 -0.5367  2.4711  1.4988
 5211TIP3   OH237123   3.349   1.536  10.704 -0.4774  0.4757  0.0640
 5211TIP3    H137124   3.393   1.595  10.642  0.6497 -0.3666  0.0452
 5211TIP3    H237125   3.291   1.593  10.754 -0.5998  1.3396 -1.0380
 5212TIP3   OH237126   5.250   0.890  17.070  0.0899  0.1670  0.0719
 5212TIP3    H137127   5.262   0.969  17.017 -0.5290  0.6253  0.6082
 5212TIP3    H237128   5.157   0.868  17.061  0.4972 -1.2082 -1.0475
 5213TIP3   OH237129   2.640   5.371   0.919  0.0390  0.7557  0.2346
 5213TIP3    H137130   2.685   5.427   0.856  0.5383 -0.2295 -0.2848
 5213TIP3    H237131   2.709   5.342   0.979 -0.4877  1.9655  1.4530
 5214TIP3   OH237132   3.152   0.400  14.970 -0.5466 -0.6040  0.2744
 5214TIP3    H137133   3.132   0.311  14.998 -1.6269 -1.5099 -3.1171
 5214TIP3    H237134   3.234   0.392  14.921 -1.1016  0.1195 -0.7867
 5215TIP3   OH237135   5.492   1.063   4.813  0.3469  0.6368 -0.1437
 5215TIP3    H137136   5.441   1.137   4.781  0.2532  1.0133  0.8604
 5215TIP3    H237137   5.536   1.096   4.891  1.1972 -0.0337 -0.3288
 5216TIP3   OH237138   4.660   0.029   5.482  0.3859  0.1527 -0.2048
 5216TIP3    H137139   4.725   0.060   5.418 -1.2265  1.7249 -1.1372
 5216TIP3    H237140   4.696   0.054   5.567  0.9399  1.1750 -0.7244
 5217TIP3   OH237141   0.471   4.376  13.504  0.4424  0.3560 -0.3521
 5217TIP3    H137142   0.459   4.460  13.547  0.4166  0.9388 -1.4826
 5217TIP3    H237143   0.456   4.394  13.411 -3.1692 -1.6018 -0.2260
 5218TIP3   OH237144   1.199   2.034   4.759 -0.2461 -0.3484  0.0899
 5218TIP3    H137145   1.217   2.089   4.683 -0.7014  0.5706  0.6393
 5218TIP3    H237146   1.139   1.967   4.726 -0.2616 -0.0896 -0.4107
 5219TIP3   OH237147   4.697   6.656  10.721 -0.1009  0.0071 -0.2664
 5219TIP3    H137148   4.704   6.750  10.704 -1.4552  0.3424  0.9178
 5219TIP3    H237149   4.694   6.650  10.817  0.7686 -1.3080 -0.3140
 5220TIP3   OH237150   5.816   0.699  14.213  0.2846 -0.3238  0.5249
 5220TIP3    H137151   5.849   0.721  14.126 -2.5261 -1.4034 -0.8769
 5220TIP3    H237152   5.771   0.778  14.243 -1.1264 -0.8111 -0.2284
 5221TIP3   OH237153   6.638   0.386  16.952  0.1846 -0.7782  0.6363
 5221TIP3    H137154   6.705   0.333  16.908  0.1094 -0.5943  0.2979
 5221TIP3    H237155   6.688   0.442  17.012  0.3727 -0.3419  0.0753
 5222TIP3   OH237156   1.258   6.288   6.395  0.3877  0.7611  0.1061
 5222TIP3    H137157   1.317   6.331   6.457 -0.1964 -0.2377  1.3856
 5222TIP3    H237158   1.315   6.229   6.345  0.9171  1.8178 -0.5593
 5223TIP3   OH237159   5.234   0.802   2.713  0.0848 -0.6287  0.1202
 5223TIP3    H137160   5.199   0.761   2.634 -0.9220 -1.5438  1.0175
 5223TIP3    H237161   5.201   0.892   2.709 -1.0874 -1.0394  0.1454
 5224TIP3   OH237162   0.944   0.859  11.187 -0.0473  0.1091 -0.1273
 5224TIP3    H137163   1.010   0.914  11.144 -1.3829  1.5129 -0.4454
 5224TIP3    H237164   0.908   0.806  11.116 -0.7187  0.8623 -0.3652
 5225TIP3   OH237165   3.913   4.839  15.599  0.5660  0.8060 -0.4182
 5225TIP3    H137166   3.947   4.804  15.681  0.1573  1.4182  0.0089
 5225TIP3    H237167   3.991   4.854  15.546  0.9016  1.3678  0.2331
 5226TIP3   OH237168   6.424   1.232  13.657 -0.1531  0.1788 -0.3756
 5226TIP3    H137169   6.414   1.248  13.751 -0.8687  2.6092 -0.8379
 5226TIP3    H237170   6.515   1.253  13.638  0.4915 -2.0676  0.0721
 5227TIP3   OH237171   1.419   5.409   0.700  0.1369  0.6110 -0.3311
 5227TIP3    H137172   1.488   5.411   0.633 -0.1187  1.3734 -0.5829
 5227TIP3    H237173   1.444   5.337   0.758 -0.3239 -0.9101 -1.9733
 5228TIP3   OH237174   2.709   6.619  13.782 -0.2135 -0.5280 -0.0280
 5228TIP3    H137175   2.626   6.589  13.819  0.3377 -0.0455  1.6707
 5228TIP3    H237176   2.728   6.558  13.711 -2.5351 -0.0223 -1.1283
 5229TIP3   OH237177   4.981   6.536  11.369 -0.0588 -0.1684 -0.1474
 5229TIP3    H137178   5.056   6.509  11.316  1.5760  1.2707  1.3815
 5229TIP3    H237179   4.993   6.490  11.452  0.3249  1.7565  0.8758
 5230TIP3   OH237180   5.375   3.967  13.116  0.0653 -0.0088 -0.2996
 5230TIP3    H137181   5.309   3.926  13.060 -0.6152 -0.1458  0.5717
 5230TIP3    H237182   5.401   3.898  13.177 -0.9544  0.7747  1.0560
 5231TIP3   OH237183   0.875   5.097   0.256 -0.2898  0.4565 -0.2584
 5231TIP3    H137184   0.877   5.170   0.318  1.1714 -0.8224  1.2737
 5231TIP3    H237185   0.799   5.114   0.201 -0.4939  2.6452  0.6534
 5232TIP3   OH237186   4.334   1.164  13.380 -0.3771 -0.1801  0.2368
 5232TIP3    H137187   4.333   1.133  13.289  0.0723  1.8799 -0.5063
 5232TIP3    H237188   4.403   1.112  13.422  0.0816 -0.4824 -0.8524
 5233TIP3   OH237189   0.371   1.882   5.365 -0.1317 -0.2656  0.0024
 5233TIP3    H137190   0.330   1.917   5.443 -0.5101 -0.7611  0.0287
 5233TIP3    H237191   0.379   1.957   5.306  0.3430  0.1488  0.5932
 5234TIP3   OH237192   6.247   1.981   3.838 -0.0177 -0.1210 -0.3598
 5234TIP3    H137193   6.264   1.922   3.765 -0.8251 -0.4461 -0.2898
 5234TIP3    H237194   6.155   2.006   3.828  0.5204  1.7823 -0.8638
 5235TIP3   OH237195   6.243   6.601   0.474  0.0360  0.6590  0.3617
 5235TIP3    H137196   6.298   6.596   0.553 -0.7934 -0.8792  0.8528
 5235TIP3    H237197   6.169   6.545   0.493 -0.6678  1.0656 -1.1501
 5236TIP3   OH237198   5.305   5.526   4.055 -0.2481 -0.2948 -0.0190
 5236TIP3    H137199   5.251   5.535   4.133  1.0995  0.7461  0.8056
 5236TIP3    H237200   5.347   5.440   4.064  0.8814  0.3679  1.0163
 5237TIP3   OH237201   6.551   0.497  16.248  0.6715 -0.1370  0.2620
 5237TIP3    H137202   6.540   0.583  16.287 -0.1168  0.5737 -1.4696
 5237TIP3    H237203   6.492   0.440  16.297  0.1777  0.5962  0.5242
 5238TIP3   OH237204   2.793   4.527  15.336  0.6782  0.3593 -0.2494
 5238TIP3    H137205   2.734   4.469  15.289  0.5080  0.0072  0.3861
 5238TIP3    H237206   2.753   4.614  15.328  0.0099  0.1090  0.2553
 5239TIP3   OH237207   4.197   1.314  12.402  0.4278 -0.2157 -0.5584
 5239TIP3    H137208   4.155   1.228  12.398 -2.3879  1.1256 -1.5035
 5239TIP3    H237209   4.166   1.352  12.484 -1.8005  1.4852 -2.0912
 5240TIP3   OH237210   1.710   6.461  12.280 -0.1307  0.3149 -0.7049
 5240TIP3    H137211   1.655   6.416  12.345 -1.8253  1.9051 -1.0131
 5240TIP3    H237212   1.679   6.428  12.196  0.1356  0.3901 -0.8327
 5241TIP3   OH237213   6.357   2.408   0.086 -0.2456  0.2223  0.8683
 5241TIP3    H137214   6.375   2.461   0.164  1.1600  0.2634  0.5354
 5241TIP3    H237215   6.350   2.318   0.118 -2.0142  0.5236  1.3508
 5242TIP3   OH237216   3.340   0.887  11.324 -0.6567  0.0847  0.0339
 5242TIP3    H137217   3.337   0.955  11.392  1.1876 -1.4149  1.6914
 5242TIP3    H237218   3.426   0.895  11.285 -0.7056 -0.8077 -0.2726
 5243TIP3   OH237219   3.193   6.346   3.357 -0.8615 -0.2482  0.8452
 5243TIP3    H137220   3.186   6.412   3.426 -1.7453 -0.2163  0.7432
 5243TIP3    H237221   3.140   6.273   3.388 -0.9596 -0.3829  0.3759
 5244TIP3   OH237222   1.247   0.167  11.014 -0.9293  0.3396 -0.3689
 5244TIP3    H137223   1.242   0.094  10.952 -1.8709 -1.2726  1.5258
 5244TIP3    H237224   1.254   0.245  10.959  0.0542 -1.1644 -2.4565
 5245TIP3   OH237225   4.597   5.279   3.772  0.6542 -0.0383  0.1767
 5245TIP3    H137226   4.586   5.354   3.832 -0.6368  0.4589 -0.6498
 5245TIP3    H237227   4.685   5.289   3.737 -0.0094  1.9524 -1.0267
 5246TIP3   OH237228   1.562   1.109  11.308 -0.9049  0.2326 -0.3552
 5246TIP3    H137229   1.635   1.063  11.267 -0.2809  1.0817 -0.2104
 5246TIP3    H237230   1.526   1.165  11.239 -0.3259  1.0990  0.0309
 5247TIP3   OH237231   1.759   3.528   1.197 -0.5682  0.5542  0.0202
 5247TIP3    H137232   1.795   3.446   1.164 -2.3959 -0.1220 -0.3723
 5247TIP3    H237233   1.835   3.581   1.221  0.7126  0.0316 -2.7836
 5248TIP3   OH237234   1.624   1.493   6.119 -0.2701  0.3583 -0.2832
 5248TIP3    H137235   1.530   1.485   6.102 -0.8881  1.1086  2.4791
 5248TIP3    H237236   1.645   1.416   6.172  0.7599 -0.0139 -1.2327
 5249TIP3   OH237237   4.411   2.812   4.907 -0.0111  0.6016 -0.2613
 5249TIP3    H137238   4.415   2.826   4.812  0.3352 -1.0089 -0.4836
 5249TIP3    H237239   4.429   2.899   4.944  2.9093  0.6326 -1.6104
 5250TIP3   OH237240   3.382   4.103   1.018  0.3696 -0.3908  0.4701
 5250TIP3    H137241   3.295   4.121   0.981  0.3070 -0.9039  0.3709
 5250TIP3    H237242   3.420   4.037   0.961  1.1854  0.4622 -0.0018
 5251TIP3   OH237243   3.955   0.879   6.475 -0.4458  0.2858  0.1275
 5251TIP3    H137244   4.040   0.836   6.467 -0.4085 -1.0655  5.5730
 5251TIP3    H237245   3.976   0.972   6.485  0.4439 -0.0180  1.2510
 5252TIP3   OH237246   6.744   1.730  15.041  1.0450 -0.2458  0.0163
 5252TIP3    H137247   6.663   1.735  14.991 -1.1668  0.2643  3.4988
 5252TIP3    H237248   6.754   1.638  15.063 -0.1466  0.0634  1.9605
 5253TIP3   OH237249   2.770   6.227   3.065  0.6146 -0.9129 -0.3888
 5253TIP3    H137250   2.838   6.294   3.068  1.4518 -1.7875  0.8308
 5253TIP3    H237251   2.692   6.272   3.032  1.8102  0.0750 -1.8687
 5254TIP3   OH237252   2.562   3.500  15.971 -0.3773 -0.1393  0.1178
 5254TIP3    H137253   2.558   3.547  16.055 -1.8432 -1.0613  0.5831
 5254TIP3    H237254   2.642   3.448  15.977 -1.0364 -1.0335  1.4118
 5255TIP3   OH237255   2.299   2.226   1.156 -0.1911 -0.4373  0.4269
 5255TIP3    H137256   2.254   2.148   1.188 -3.1823  0.9432 -0.2147
 5255TIP3    H237257   2.287   2.291   1.226 -0.1427  0.2966 -0.2435
 5256TIP3   OH237258   2.905   4.698   5.017 -0.0519  0.1630 -0.3768
 5256TIP3    H137259   2.817   4.698   4.978  0.4949  2.4246 -1.6993
 5256TIP3    H237260   2.964   4.706   4.942  1.2277  0.0777  0.6157
 5257TIP3   OH237261   2.050   0.699   6.145  0.8966  0.5770  0.2768
 5257TIP3    H137262   1.989   0.627   6.164  1.1230  0.5291  0.8369
 5257TIP3    H237263   1.996   0.778   6.149  1.1470  0.6778  2.2705
 5258TIP3   OH237264   3.415   3.978  16.184 -0.2147  0.4887 -0.0118
 5258TIP3    H137265   3.455   3.892  16.197  2.1447  1.6400  0.7383
 5258TIP3    H237266   3.441   4.004  16.096 -2.8298 -0.5028 -1.1083
 5259TIP3   OH237267   6.512   1.082   3.644 -0.3276 -0.1003  0.2568
 5259TIP3    H137268   6.483   1.141   3.574  1.1277  0.2413 -0.0688
 5259TIP3    H237269   6.544   1.004   3.599 -1.1427 -0.6646  0.6398
 5260TIP3   OH237270   3.378   0.743  14.305  0.2151 -0.1584  0.3101
 5260TIP3    H137271   3.369   0.654  14.271 -3.7312  0.3219 -0.1332
 5260TIP3    H237272   3.406   0.795  14.230 -0.2436 -0.5704 -0.1541
 5261TIP3   OH237273   2.832   5.845   3.222  0.3660 -0.3375  0.0599
 5261TIP3    H137274   2.817   5.938   3.235 -0.1683 -0.4850  0.5146
 5261TIP3    H237275   2.908   5.840   3.164 -0.5835  0.3911 -1.2407
 5262TIP3   OH237276   2.264   1.730  14.500 -0.3203 -0.0617 -1.0992
 5262TIP3    H137277   2.340   1.740  14.443  0.4528 -2.5522 -0.5838
 5262TIP3    H237278   2.207   1.669  14.453 -1.1143  0.3005 -0.6087
 5263TIP3   OH237279   4.332   4.730   4.375 -0.3901  0.1282  0.1744
 5263TIP3    H137280   4.278   4.700   4.447  2.1880  1.6647  2.8418
 5263TIP3    H237281   4.402   4.665   4.367  0.5029  1.0269  0.4869
 5264TIP3   OH237282   1.055   2.241   2.495 -0.2979 -0.2026 -0.1242
 5264TIP3    H137283   1.119   2.245   2.424  1.1014 -0.2872  1.1084
 5264TIP3    H237284   0.996   2.170   2.471 -0.4755  0.4805 -1.7200
 5265TIP3   OH237285   0.054   5.809   3.222  0.2442  0.0068 -0.2547
 5265TIP3    H137286   0.142   5.846   3.210  1.0012 -1.2972  0.9603
 5265TIP3    H237287   0.053   5.731   3.166  0.2320 -0.5189  0.4612
 5266TIP3   OH237288   0.310   2.057  14.081 -0.3009  0.1996  0.1630
 5266TIP3    H137289   0.344   1.984  14.029 -0.6766  0.3720 -0.3280
 5266TIP3    H237290   0.264   2.112  14.017 -2.3200 -0.5108  0.9971
 5267TIP3   OH237291   5.032   6.062   0.999  0.3523 -0.4826 -0.2573
 5267TIP3    H137292   4.957   6.120   1.007  0.1888 -0.7668  0.2771
 5267TIP3    H237293   5.090   6.086   1.071  0.6396 -0.4602 -0.4942
 5268TIP3   OH237294   2.204   5.836  12.021  0.4900 -0.4834 -0.0533
 5268TIP3    H137295   2.233   5.868  11.936  1.4908 -1.5832 -0.1400
 5268TIP3    H237296   2.179   5.745  12.005 -1.8006  0.0273  0.3003
 5269TIP3   OH237297   6.032   2.640   5.188  0.5201  0.6925  0.2088
 5269TIP3    H137298   6.086   2.563   5.168  0.0115  0.2252  0.6028
 5269TIP3    H237299   5.948   2.622   5.147  0.6194  1.3659 -0.2981
 5270TIP3   OH237300   1.688   4.954  16.382 -0.1604  0.1719  0.3308
 5270TIP3    H137301   1.608   4.923  16.340  0.4384  1.0134 -1.5002
 5270TIP3    H237302   1.728   4.875  16.419 -0.2077 -0.7920 -1.5962
 5271TIP3   OH237303   2.301   2.249   2.115 -0.2415 -0.3938 -0.0840
 5271TIP3    H137304   2.348   2.171   2.084 -0.2047 -1.0604  1.5966
 5271TIP3    H237305   2.235   2.265   2.048  0.4992 -1.1769 -1.0273
 5272TIP3   OH237306   3.845   1.721  14.388  0.7162 -0.4332 -0.7589
 5272TIP3    H137307   3.875   1.771  14.464 -0.1114  1.9145 -1.9539
 5272TIP3    H237308   3.764   1.678  14.418  0.4995  0.3174 -0.2663
 5273TIP3   OH237309   5.840   3.837   3.871  0.1509  0.0076 -0.1183
 5273TIP3    H137310   5.866   3.745   3.878 -2.1379 -0.7766 -1.5846
 5273TIP3    H237311   5.798   3.857   3.955  0.2496 -0.3992  0.0282
 5274TIP3   OH237312   1.061   5.826  13.237 -0.1635 -0.2080 -0.2054
 5274TIP3    H137313   1.060   5.762  13.166 -0.8227  0.8526 -1.1723
 5274TIP3    H237314   1.074   5.910  13.193 -1.9655  0.6245  0.8042
 5275TIP3   OH237315   5.508   2.131   5.726  0.0767 -0.1985 -0.1379
 5275TIP3    H137316   5.468   2.191   5.663  1.5932  1.7011  0.6645
 5275TIP3    H237317   5.553   2.188   5.787 -0.7937 -2.0545  2.2958
 5276TIP3   OH237318   5.898   4.989  17.049 -0.0083  0.5575 -0.5541
 5276TIP3    H137319   5.822   5.040  17.022 -0.9940  0.1670  1.3665
 5276TIP3    H237320   5.863   4.926  17.112  1.5442 -1.0859 -1.2977
 5277TIP3   OH237321   4.464   2.953   4.362 -0.2850 -0.1599  0.0794
 5277TIP3    H137322   4.465   2.870   4.409  1.4472 -0.1368  0.1201
 5277TIP3    H237323   4.420   2.934   4.280 -0.9367 -0.8365  0.5863
 5278TIP3   OH237324   5.335   6.429  14.785  0.0818  0.1170 -0.1838
 5278TIP3    H137325   5.361   6.521  14.778 -1.9669  0.8014  0.5773
 5278TIP3    H237326   5.328   6.398  14.695  1.1838  0.5868 -0.4325
 5279TIP3   OH237327   3.902   5.944   0.691  0.0578 -0.2744  0.0834
 5279TIP3    H137328   3.858   5.907   0.767 -1.6064  1.5425  0.0317
 5279TIP3    H237329   3.892   5.879   0.623 -2.4174  0.0341  0.1278
 5280TIP3   OH237330   0.089   6.170   4.658  0.4623 -0.2254  0.0187
 5280TIP3    H137331   0.121   6.138   4.573  0.2587  0.9609 -0.5182
 5280TIP3    H237332   0.166   6.169   4.715  0.6399 -0.8572 -0.2343
 5281TIP3   OH237333   2.531   4.624   5.267  0.4064 -0.1862  0.3428
 5281TIP3    H137334   2.624   4.601   5.264  0.8966  1.8203 -0.5786
 5281TIP3    H237335   2.492   4.571   5.198  0.8876 -0.8896  0.5963
 5282TIP3   OH237336   5.694   0.747  12.851  0.3904  0.2988 -0.2609
 5282TIP3    H137337   5.609   0.770  12.887 -0.7939 -1.0415 -2.1081
 5282TIP3    H237338   5.733   0.689  12.917 -0.5626  0.0984  0.1355
 5283TIP3   OH237339   4.675   6.213   0.053 -0.0690 -0.3508  0.5467
 5283TIP3    H137340   4.758   6.246   0.089 -0.6090 -1.6250  2.9815
 5283TIP3    H237341   4.623   6.292   0.038  1.7743  0.5267 -1.6370
 5284TIP3   OH237342   2.370   3.877   5.299  0.3721  0.2202  0.5158
 5284TIP3    H137343   2.349   3.783   5.296  0.5416  0.1924  0.1627
 5284TIP3    H237344   2.417   3.888   5.382  0.3502 -0.0090  0.5599
 5285TIP3   OH237345   3.570   0.384  13.606  0.4198 -0.6668  0.4838
 5285TIP3    H137346   3.573   0.297  13.644  1.8625  0.2829  2.6677
 5285TIP3    H237347   3.662   0.408  13.592  0.0267  0.3114 -0.5904
 5286TIP3   OH237348   0.660   2.291   6.214 -0.4102 -0.8588  0.4389
 5286TIP3    H137349   0.712   2.369   6.234 -1.1305 -0.1419 -0.5056
 5286TIP3    H237350   0.601   2.318   6.144 -1.8675 -1.7616  1.2968
 5287TIP3   OH237351   5.165   0.594   1.217  0.0802  0.4204  0.1962
 5287TIP3    H137352   5.228   0.587   1.289  1.5623  0.6222 -1.0558
 5287TIP3    H237353   5.166   0.508   1.175  1.4070  1.1559 -1.3426
 5288TIP3   OH237354   0.350   3.144  16.380  0.0251  0.0618 -0.5783
 5288TIP3    H137355   0.331   3.190  16.462  0.2384  1.7494 -1.4409
 5288TIP3    H237356   0.440   3.169  16.359  0.1123 -0.6886 -1.1153
 5289TIP3   OH237357   4.312   0.328  10.655  0.0892 -0.1188  0.3819
 5289TIP3    H137358   4.219   0.337  10.636  0.3097  0.1528 -0.6167
 5289TIP3    H237359   4.335   0.410  10.700 -0.1251 -0.1278  0.5065
 5290TIP3   OH237360   1.854   5.796   5.483 -0.3620  0.6728 -0.1801
 5290TIP3    H137361   1.949   5.809   5.484 -0.2528 -0.1551  1.3536
 5290TIP3    H237362   1.818   5.884   5.497  0.1764  0.9069 -0.2302
 5291TIP3   OH237363   6.485   0.569   3.199  0.1682 -0.5236  0.1248
 5291TIP3    H137364   6.405   0.576   3.147 -0.2058 -0.7037  0.6771
 5291TIP3    H237365   6.483   0.481   3.236  0.4341 -0.3970  0.4472
 5292TIP3   OH237366   6.327   2.070   5.836  0.1957  0.4982 -0.0325
 5292TIP3    H137367   6.377   1.989   5.826  1.9584  1.6306 -0.6742
 5292TIP3    H237368   6.393   2.137   5.855 -1.4171  1.4453  2.5552
 5293TIP3   OH237369   5.146   2.575   0.997  0.1509 -0.1081  0.0606
 5293TIP3    H137370   5.119   2.604   1.084 -0.3120 -0.3529  0.0020
 5293TIP3    H237371   5.237   2.604   0.988  0.4270 -0.7061  0.9074
 5294TIP3   OH237372   0.792   5.409  12.921  0.5502 -0.1381  0.2032
 5294TIP3    H137373   0.755   5.329  12.882 -1.0060  0.9456 -0.5860
 5294TIP3    H237374   0.771   5.402  13.014 -3.5689  1.4362 -0.5208
 5295TIP3   OH237375   0.922   4.374   2.090  0.5890 -0.1693  0.1929
 5295TIP3    H137376   0.948   4.302   2.148  0.1677 -0.6428 -0.2057
 5295TIP3    H237377   0.992   4.439   2.100  1.6180 -1.1674 -0.4109
 5296TIP3   OH237378   0.142   6.087   6.515 -0.4301  0.6184  0.1608
 5296TIP3    H137379   0.046   6.084   6.521 -0.4256 -1.7333 -0.4737
 5296TIP3    H237380   0.171   6.009   6.562  1.2458  1.8743  1.2619
 5297TIP3   OH237381   0.814   5.679  14.255 -0.4267  0.3427 -0.2809
 5297TIP3    H137382   0.889   5.688  14.314  1.4452 -1.6622 -2.2638
 5297TIP3    H237383   0.795   5.585  14.255 -0.5487  0.3346 -2.6400
 5298TIP3   OH237384   3.768   6.229   2.534  0.3436 -0.2950  0.3973
 5298TIP3    H137385   3.812   6.145   2.522  1.7841  0.9146 -3.5824
 5298TIP3    H237386   3.712   6.238   2.457 -1.3206  1.5186  1.7642
 5299TIP3   OH237387   1.839   2.677  15.310 -0.1149 -0.4456  0.2502
 5299TIP3    H137388   1.855   2.690  15.403  0.7057  0.4587 -0.0117
 5299TIP3    H237389   1.908   2.617  15.282  0.5515  0.4510 -0.0737
 5300TIP3   OH237390   3.027   2.432   3.194  0.3025 -0.1742 -0.0973
 5300TIP3    H137391   3.021   2.461   3.103 -2.1311  0.0821  0.1119
 5300TIP3    H237392   3.002   2.340   3.191  0.0736 -0.1256  0.3367
 5301TIP3   OH237393   2.901   5.743   2.416 -0.3748  0.2675 -0.3288
 5301TIP3    H137394   2.935   5.661   2.382  1.4276  0.9661 -0.2510
 5301TIP3    H237395   2.814   5.751   2.376 -0.6288 -1.7123 -0.2440
 5302TIP3   OH237396   5.116   1.528   3.252 -0.1858 -0.2481  0.1953
 5302TIP3    H137397   5.101   1.454   3.194 -0.2695  1.6721 -2.2935
 5302TIP3    H237398   5.041   1.528   3.311 -2.2331  0.1687 -2.3285
 5303TIP3   OH237399   4.034   1.300  11.845  0.7404  0.1720 -0.6111
 5303TIP3    H137400   3.965   1.359  11.813  1.2982  1.7857  1.0303
 5303TIP3    H237401   4.092   1.357  11.895  2.0926 -1.5518 -0.1753
 5304TIP3   OH237402   0.509   4.813   1.715  0.2555 -0.1844  0.4923
 5304TIP3    H137403   0.509   4.777   1.804 -1.3292  0.9531  0.9721
 5304TIP3    H237404   0.435   4.770   1.672  0.8343 -0.5030 -0.1866
 5305TIP3   OH237405   0.794   3.086  12.974  0.1613  0.0467 -0.4771
 5305TIP3    H137406   0.829   3.122  12.893 -2.8416  0.9594 -1.4589
 5305TIP3    H237407   0.746   3.008  12.947  1.3042 -1.0945  0.7827
 5306TIP3   OH237408   6.556   1.676   2.901  0.8701 -0.2013 -0.4222
 5306TIP3    H137409   6.473   1.720   2.880  0.4459 -1.6354 -1.8846
 5306TIP3    H237410   6.572   1.619   2.826  2.3071 -1.2082  0.6276
 5307TIP3   OH237411   1.545   1.404   5.605  0.1292 -0.4197 -0.3117
 5307TIP3    H137412   1.522   1.435   5.518 -0.5899 -2.6785 -0.9549
 5307TIP3    H237413   1.483   1.447   5.664 -0.3500 -0.0659 -1.0766
 5308TIP3   OH237414   1.523   3.331  15.936  0.0348  0.1415  0.2438
 5308TIP3    H137415   1.480   3.272  15.997 -2.0720  0.1117 -1.2316
 5308TIP3    H237416   1.504   3.419  15.970 -0.7255  0.1090 -0.0880
 5309TIP3   OH237417   5.312   0.163  13.972 -0.2764  0.1358  0.5359
 5309TIP3    H137418   5.316   0.258  13.979 -0.8953  0.1983  0.0159
 5309TIP3    H237419   5.383   0.140  13.912 -1.1142  0.4071 -0.5819
 5310TIP3   OH237420   5.259   5.554   1.852 -0.0338  0.7663  0.1249
 5310TIP3    H137421   5.239   5.556   1.758  0.1894  0.7300  0.0777
 5310TIP3    H237422   5.204   5.622   1.890 -1.2425 -0.1992  0.1707
 5311TIP3   OH237423   1.699   1.628  14.039 -1.1037  0.1230 -0.1653
 5311TIP3    H137424   1.709   1.543  14.082  2.1452  0.3906 -0.2132
 5311TIP3    H237425   1.671   1.606  13.950  2.4459 -1.1676 -1.0596
 5312TIP3   OH237426   4.652   2.663  14.316 -0.3776  0.2439 -0.1420
 5312TIP3    H137427   4.660   2.603  14.390  0.0079 -1.5959 -1.6495
 5312TIP3    H237428   4.712   2.734  14.337  0.2506 -0.6013  0.9951
 5313TIP3   OH237429   4.991   5.877  14.453 -0.0731 -0.1964 -0.6447
 5313TIP3    H137430   4.981   5.849  14.362  0.6152  0.0806 -0.8154
 5313TIP3    H237431   4.915   5.841  14.498 -0.2151 -0.6704 -1.2500
 5314TIP3   OH237432   4.103   4.253   3.661  0.6789 -0.1197  0.5242
 5314TIP3    H137433   4.047   4.180   3.688 -1.1155  0.0010 -2.6563
 5314TIP3    H237434   4.057   4.331   3.691  0.5112 -0.1319  0.3004
 5315TIP3   OH237435   0.105   4.602   0.035 -0.5446  0.3204  0.5605
 5315TIP3    H137436   0.108   4.694   0.010 -0.5895  0.2610  0.3282
 5315TIP3    H237437   0.025   4.594   0.087  0.3251  0.7508  1.9964
 5316TIP3   OH237438   3.910   1.269   3.706  0.4901 -0.0266  0.4019
 5316TIP3    H137439   3.866   1.301   3.786  0.0484 -1.1969  0.6497
 5316TIP3    H237440   3.839   1.257   3.643  0.5738 -0.9237  0.4621
 5317TIP3   OH237441   0.816   4.492   1.121  1.0172  0.3323 -0.5512
 5317TIP3    H137442   0.796   4.533   1.037 -0.4780  0.3633 -0.1886
 5317TIP3    H237443   0.731   4.466   1.157  1.7176 -0.5999  0.4878
 5318TIP3   OH237444   3.305   5.023  15.734  0.2913 -0.7017 -0.3414
 5318TIP3    H137445   3.336   5.099  15.783  0.6267 -0.2437 -1.2406
 5318TIP3    H237446   3.379   4.962  15.734 -0.1231 -1.2141  0.7414
 5319TIP3   OH237447   6.103   1.319  15.640  0.2260  0.3023 -0.5238
 5319TIP3    H137448   6.103   1.229  15.672  0.0532  0.9795  1.5018
 5319TIP3    H237449   6.012   1.337  15.618  0.1931  0.1035 -0.5543
 5320TIP3   OH237450   6.772   6.761  12.873 -0.6630 -0.1192 -0.1866
 5320TIP3    H137451   6.824   6.730  12.947 -1.8331 -1.0741  0.2560
 5320TIP3    H237452   6.743   6.681  12.829  0.3146  0.4335 -1.9017
 5321TIP3   OH237453   4.571   3.944   2.554 -0.2784  0.2095 -0.0673
 5321TIP3    H137454   4.589   4.029   2.593  1.2487  0.4092 -1.1571
 5321TIP3    H237455   4.634   3.937   2.483 -3.6959  0.3291 -3.2389
 5322TIP3   OH237456   5.479   6.553   0.344 -0.3202 -0.0662 -0.2807
 5322TIP3    H137457   5.518   6.479   0.390  1.0491  0.2234 -0.9608
 5322TIP3    H237458   5.547   6.620   0.343 -1.8614  1.6100  1.2020
 5323TIP3   OH237459   6.256   6.209  15.245  0.3934 -0.2890  0.8777
 5323TIP3    H137460   6.203   6.266  15.301 -0.3404 -0.3020  0.2009
 5323TIP3    H237461   6.295   6.146  15.306  0.7269  0.5625  1.5552
 5324TIP3   OH237462   3.014   4.431  17.282  0.0096  0.1329  0.1756
 5324TIP3    H137463   2.995   4.408  17.191  3.3401  1.7708 -1.0109
 5324TIP3    H237464   3.031   4.348  17.325 -1.1211 -0.6266 -0.8153
 5325TIP3   OH237465   0.443   2.018  12.853  0.3499  0.4751  0.0323
 5325TIP3    H137466   0.385   2.025  12.929  0.2086  0.2585 -0.0527
 5325TIP3    H237467   0.521   1.973  12.886  0.2892  0.3816  0.0502
 5326TIP3   OH237468   5.892   0.900   1.607 -0.1368 -0.3185  0.0825
 5326TIP3    H137469   5.823   0.932   1.664  0.0384 -0.1375  0.1914
 5326TIP3    H237470   5.879   0.805   1.606 -0.0872 -0.3309  0.4900
 5327TIP3   OH237471   5.005   4.915  13.524 -0.5132 -0.7367 -0.2776
 5327TIP3    H137472   5.040   4.826  13.530 -0.1256 -0.4955  1.4361
 5327TIP3    H237473   4.964   4.919  13.438 -1.3654 -2.8726 -0.0059
 5328TIP3   OH237474   2.473   6.245   0.325  0.2773  0.1286 -0.1881
 5328TIP3    H137475   2.390   6.211   0.359 -1.5572  3.7686 -0.7630
 5328TIP3    H237476   2.524   6.267   0.402 -0.4340  0.5006  0.1772
 5329TIP3   OH237477   2.217   6.109  10.915 -0.6120 -0.5634 -0.3072
 5329TIP3    H137478   2.139   6.158  10.888 -1.2986 -1.1434  0.6110
 5329TIP3    H237479   2.208   6.099  11.010  1.3664  0.7293  0.0523
 5330TIP3   OH237480   2.100   4.881   4.431 -0.1267  0.0223 -0.3835
 5330TIP3    H137481   2.128   4.824   4.359 -0.1597  0.3764 -0.6787
 5330TIP3    H237482   2.092   4.967   4.390 -3.4031 -0.4006 -0.7083
 5331TIP3   OH237483   2.664   1.681  12.033  0.1192 -0.3836 -0.2888
 5331TIP3    H137484   2.613   1.610  11.994 -0.4854 -0.8094  1.2276
 5331TIP3    H237485   2.598   1.746  12.058  0.3409 -0.8380  1.4867
 5332TIP3   OH237486   5.123   5.437  15.500  0.8556  0.0343  0.2134
 5332TIP3    H137487   5.093   5.525  15.476  0.2670 -0.3727 -0.5937
 5332TIP3    H237488   5.046   5.382  15.487  1.4670 -0.7432 -0.1583
 5333TIP3   OH237489   5.162   1.902  12.770 -0.4632  0.0399 -0.0942
 5333TIP3    H137490   5.120   1.817  12.756 -2.8066  0.9455  1.0968
 5333TIP3    H237491   5.131   1.930  12.856  0.9410  1.7293 -0.1159
 5334TIP3   OH237492   2.635   0.590  15.379 -0.2638 -0.3001 -0.9724
 5334TIP3    H137493   2.558   0.561  15.429  0.0839 -0.3514 -0.4558
 5334TIP3    H237494   2.599   0.621  15.296 -0.7700 -1.0730 -1.0603
 5335TIP3   OH237495   1.584   2.774   0.507  0.0668  0.4453  0.0270
 5335TIP3    H137496   1.678   2.774   0.528  0.1907 -2.3121 -0.3255
 5335TIP3    H237497   1.581   2.757   0.413 -0.7377  3.6704 -0.5702
 5336TIP3   OH237498   6.467   1.217  12.901  0.6185 -0.2534 -0.0121
 5336TIP3    H137499   6.552   1.180  12.877 -1.0521 -1.7036 -4.3935
 5336TIP3    H237500   6.462   1.300  12.854 -1.4620 -1.5558 -2.2061
 5337TIP3   OH237501   5.023   2.757  17.017 -0.0296  0.7980  0.4221
 5337TIP3    H137502   5.078   2.824  17.057  0.1251  0.0655  1.4381
 5337TIP3    H237503   4.935   2.778  17.047  0.1295  0.0554  1.4274
 5338TIP3   OH237504   2.295   2.548  13.936  0.3079 -0.4862  0.1722
 5338TIP3    H137505   2.368   2.565  13.995  0.0707  0.6122  0.1612
 5338TIP3    H237506   2.235   2.621  13.950  0.7825  0.4145 -2.2446
 5339TIP3   OH237507   0.696   3.363   4.950 -0.2006 -0.0844  0.4842
 5339TIP3    H137508   0.765   3.404   4.898 -0.4149 -0.2638  0.0570
 5339TIP3    H237509   0.633   3.434   4.965 -2.1303 -0.9630 -2.9119
 5340TIP3   OH237510   0.187   1.263   2.713  0.4627 -0.3745  0.2172
 5340TIP3    H137511   0.194   1.285   2.620  0.1307 -1.0155  0.0393
 5340TIP3    H237512   0.211   1.170   2.717 -0.2597 -0.5386  0.6735
 5341TIP3   OH237513   2.840   4.749   6.538 -0.3062  0.2355  0.2492
 5341TIP3    H137514   2.930   4.734   6.512 -0.4265  0.2007 -0.1496
 5341TIP3    H237515   2.788   4.704   6.471 -0.6392  1.1683 -0.1217
 5342TIP3   OH237516   6.118   2.598   3.185 -0.2086  0.2586  0.8370
 5342TIP3    H137517   6.038   2.582   3.236 -1.2781  2.1523 -0.1771
 5342TIP3    H237518   6.139   2.690   3.202  0.1040  0.5761 -1.1926
 5343TIP3   OH237519   2.736   2.592  13.626 -0.2655 -0.7809  0.5618
 5343TIP3    H137520   2.774   2.504  13.636  1.5742  0.2067  2.7124
 5343TIP3    H237521   2.648   2.583  13.663 -0.5827 -2.0322 -0.4518
 5344TIP3   OH237522   3.769   5.910   2.517  0.0043 -0.2431 -0.1810
 5344TIP3    H137523   3.821   5.902   2.597  1.2419  1.9939 -0.7194
 5344TIP3    H237524   3.683   5.940   2.548 -0.7053 -3.0261  0.6226
 5345TIP3   OH237525   4.192   5.227   1.798  0.3573  0.6869  0.0335
 5345TIP3    H137526   4.122   5.196   1.856  0.5866  0.4396  0.1799
 5345TIP3    H237527   4.146   5.264   1.723  0.0645  0.6963  0.2161
 5346TIP3   OH237528   5.027   6.692  15.235 -0.1215  0.2577 -0.6265
 5346TIP3    H137529   4.992   6.654  15.316 -0.5434  3.4626  0.7717
 5346TIP3    H237530   5.114   6.654  15.226 -0.5476 -1.0546  0.6749
 5347TIP3   OH237531   4.395   6.219   5.871  0.1914 -0.2041 -0.2885
 5347TIP3    H137532   4.441   6.177   5.799 -0.2729 -1.4907  0.1464
 5347TIP3    H237533   4.409   6.161   5.946 -0.5042  0.3838  0.3102
 5348TIP3   OH237534   2.234   6.198   0.857 -0.1683 -0.5290  0.1085
 5348TIP3    H137535   2.146   6.160   0.857 -0.3636 -0.1432 -2.1820
 5348TIP3    H237536   2.241   6.242   0.772  2.2798 -0.6708  0.2067
 5349TIP3   OH237537   1.954   0.902   1.101  0.1765  0.6177  0.2117
 5349TIP3    H137538   1.994   0.934   1.020  0.4549  0.5378  0.3166
 5349TIP3    H237539   1.987   0.961   1.169 -0.9114  1.3472  0.1117
 5350TIP3   OH237540   0.125   2.132   0.589 -0.2733  0.4588  0.4216
 5350TIP3    H137541   0.109   2.092   0.504 -0.9192 -1.1153  1.2633
 5350TIP3    H237542   0.099   2.224   0.578 -0.6281  0.1971 -0.9869
 5351TIP3   OH237543   2.646   0.222   0.112 -0.5041  0.0086 -0.2998
 5351TIP3    H137544   2.694   0.177   0.042 -1.5489 -1.7425  0.0626
 5351TIP3    H237545   2.688   0.307   0.119  1.3523 -0.7894 -1.2415
 5352TIP3   OH237546   2.084   6.793  12.152  0.1185  0.1274 -0.1419
 5352TIP3    H137547   2.102   6.858  12.085 -1.0974 -1.2339 -1.8365
 5352TIP3    H237548   2.099   6.709  12.109 -0.9323 -0.7781  1.2010
 5353TIP3   OH237549   0.765   1.372  15.929 -0.2555  0.0373 -0.2427
 5353TIP3    H137550   0.827   1.310  15.967 -0.0914 -0.0229 -0.6059
 5353TIP3    H237551   0.723   1.414  16.004 -0.6306 -0.7749 -0.0040
 5354TIP3   OH237552   4.609   6.811  14.715  0.1098 -0.7634 -0.0512
 5354TIP3    H137553   4.629   6.896  14.675 -0.0185 -0.5152  0.4112
 5354TIP3    H237554   4.689   6.788  14.762 -0.4798 -0.0331  1.3347
 5355TIP3   OH237555   4.369   4.112   3.282  0.1764 -0.8670  0.1673
 5355TIP3    H137556   4.360   4.065   3.199 -0.3106 -1.5816  0.6163
 5355TIP3    H237557   4.447   4.074   3.323  0.2664 -0.6987  0.1509
 5356TIP3   OH237558   1.051   4.290   0.117 -1.2798 -0.0946 -0.0521
 5356TIP3    H137559   0.982   4.334   0.068 -1.0632  1.6478  1.1780
 5356TIP3    H237560   1.006   4.245   0.188 -1.2018  0.8921  0.6420
 5357TIP3   OH237561   1.390   4.209   5.163  0.1587 -0.1970 -0.1253
 5357TIP3    H137562   1.474   4.247   5.139 -1.0094  1.9664 -0.8993
 5357TIP3    H237563   1.390   4.209   5.259  0.5159  1.0169 -0.1191
 5358TIP3   OH237564   0.548   0.228   6.566  0.5952 -0.1517  0.2189
 5358TIP3    H137565   0.454   0.209   6.567  0.7881 -1.1507  0.4184
 5358TIP3    H237566   0.561   0.296   6.631 -0.3855  1.9261 -1.7083
 5359TIP3   OH237567   6.274   3.469   5.045 -0.0919 -0.0666  0.3109
 5359TIP3    H137568   6.292   3.493   5.136  3.3048  0.7986 -0.5350
 5359TIP3    H237569   6.340   3.403   5.023 -0.5561  0.0784 -1.6687
 5360TIP3   OH237570   0.124   4.962   5.517 -0.8673 -0.2946 -0.5686
 5360TIP3    H137571   0.207   4.969   5.468 -2.2025  1.4475 -2.7217
 5360TIP3    H237572   0.147   4.985   5.607  0.8459  1.0715 -1.3310
 5361TIP3   OH237573   1.953   1.144   0.655 -0.0495 -0.3294 -0.4579
 5361TIP3    H137574   1.974   1.178   0.568  2.1893  1.0672  0.5665
 5361TIP3    H237575   1.964   1.049   0.647  1.9704 -0.0558 -1.2595
 5362TIP3   OH237576   4.927   6.566  15.440  0.2652  0.0036  0.0839
 5362TIP3    H137577   4.895   6.476  15.435 -0.6197  0.1414  2.4954
 5362TIP3    H237578   5.002   6.562  15.500  0.8681  0.7091 -0.6069
 5363TIP3   OH237579   2.804   6.743   1.865 -0.8614 -0.3942 -0.4000
 5363TIP3    H137580   2.806   6.701   1.951 -2.7345  1.8238  0.7721
 5363TIP3    H237581   2.889   6.722   1.826  0.0465 -1.3333  2.0203
 5364TIP3   OH237582   0.209   3.076   5.836  0.0566 -0.1206 -0.0274
 5364TIP3    H137583   0.122   3.060   5.800  0.5131 -1.1242 -0.7012
 5364TIP3    H237584   0.232   2.994   5.880 -0.0098  0.6938  1.5915
 5365TIP3   OH237585   6.698   1.014   3.347 -0.1741 -0.5258 -0.1613
 5365TIP3    H137586   6.721   0.961   3.270 -1.2458  0.6688 -1.3241
 5365TIP3    H237587   6.761   1.086   3.344  0.4983 -1.0634  0.7347
 5366TIP3   OH237588   5.671   4.193  15.691  0.5463 -0.1195  0.1207
 5366TIP3    H137589   5.735   4.167  15.624  1.0170 -1.3471  1.0348
 5366TIP3    H237590   5.629   4.271  15.655 -0.5876 -1.8691 -2.5168
 5367TIP3   OH237591   0.282   5.348  17.172 -0.0370 -0.8573 -0.7566
 5367TIP3    H137592   0.330   5.430  17.181  0.4789 -1.2426  0.0712
 5367TIP3    H237593   0.225   5.345  17.249 -1.8579 -0.1052 -2.0525
 5368TIP3   OH237594   3.226   1.548  11.960  0.0981  0.6267 -0.3506
 5368TIP3    H137595   3.142   1.571  11.920 -0.5767 -1.6267 -0.2858
 5368TIP3    H237596   3.231   1.453  11.952  1.7748  0.5475  1.3867
 5369TIP3   OH237597   0.525   4.275  12.792  0.1702 -0.1079  0.4526
 5369TIP3    H137598   0.509   4.231  12.708  1.4788 -1.4292  0.8618
 5369TIP3    H237599   0.617   4.300  12.789 -0.2004  1.3349  0.8320
 5370TIP3   OH237600   6.436   4.111  15.859  0.0456  0.6965  0.4817
 5370TIP3    H137601   6.485   4.167  15.799 -0.2794  1.1086  0.5950
 5370TIP3    H237602   6.414   4.168  15.932  0.8707  0.0651  1.2242
 5371TIP3   OH237603   2.352   1.056   6.203 -0.0526 -0.8079 -1.1853
 5371TIP3    H137604   2.261   1.039   6.226  0.0825 -0.5474 -0.4245
 5371TIP3    H237605   2.376   0.984   6.145 -0.3007 -1.7093 -0.1896
 5372TIP3   OH237606   6.370   6.287  14.518  0.1535  0.8869 -0.0901
 5372TIP3    H137607   6.336   6.256  14.435  1.7019 -0.6303 -0.1796
 5372TIP3    H237608   6.303   6.262  14.582 -0.6195  1.2604 -0.7358
 5373TIP3   OH237609   6.818   6.672  15.556  0.2611  1.0459  0.4324
 5373TIP3    H137610   6.859   6.600  15.507 -1.1137 -0.0300  0.8403
 5373TIP3    H237611   6.834   6.750  15.501  1.5970  0.4202 -0.0990
 5374TIP3   OH237612   6.060   1.400  13.599 -0.1733 -0.0627 -0.3631
 5374TIP3    H137613   5.988   1.389  13.661  0.7351  0.6841  0.8327
 5374TIP3    H237614   6.017   1.419  13.515 -1.4022 -1.1514 -0.0013
 5375TIP3   OH237615   4.160   4.695  15.738  0.4336  0.4156 -0.4009
 5375TIP3    H137616   4.179   4.778  15.781  0.6486  0.3980 -0.4587
 5375TIP3    H237617   4.221   4.692  15.665  0.9099 -0.1181  0.0153
 5376TIP3   OH237618   1.275   5.249  15.303  0.2878 -0.1422 -0.0698
 5376TIP3    H137619   1.346   5.293  15.350  0.7681 -0.3989 -0.5447
 5376TIP3    H237620   1.249   5.311  15.235 -0.6464  0.3728  0.7552
 5377TIP3   OH237621   5.767   4.182   3.787  0.3585  0.7776 -0.5516
 5377TIP3    H137622   5.722   4.196   3.871  2.0163 -1.1898  0.7085
 5377TIP3    H237623   5.810   4.265   3.769 -0.0033  1.2227  0.5490
 5378TIP3   OH237624   2.371   5.241   2.324 -0.1100  0.4326  0.1770
 5378TIP3    H137625   2.364   5.162   2.271 -0.4213  0.7722 -0.3019
 5378TIP3    H237626   2.307   5.229   2.394 -0.4756  0.4523 -0.1503
 5379TIP3   OH237627   6.001   3.744  12.062 -0.4048  0.2191  0.0439
 5379TIP3    H137628   6.059   3.816  12.089 -0.9228  0.4563  0.5366
 5379TIP3    H237629   5.961   3.774  11.981 -1.0663  0.7400  0.5547
 5380TIP3   OH237630   2.830   4.900   5.781  0.0252 -0.4114 -0.0973
 5380TIP3    H137631   2.743   4.884   5.745 -0.9837  1.0866  1.5672
 5380TIP3    H237632   2.861   4.978   5.736 -1.4123  1.7117  2.4418
 5381TIP3   OH237633   6.682   0.471  11.409 -0.3476 -0.2009  0.1144
 5381TIP3    H137634   6.619   0.498  11.343  0.1565  0.1960 -0.2094
 5381TIP3    H237635   6.632   0.466  11.490 -0.5034  1.4980  0.1446
 5382TIP3   OH237636   1.422   2.835   0.708 -0.0077  0.5674  0.0815
 5382TIP3    H137637   1.476   2.887   0.768 -0.8422 -1.0052  2.2886
 5382TIP3    H237638   1.481   2.809   0.638  1.2593  1.5902  0.7436
 5383TIP3   OH237639   1.808   2.152   1.076  0.4104  0.4838 -0.0033
 5383TIP3    H137640   1.869   2.133   1.005  0.9941 -2.8721  1.2956
 5383TIP3    H237641   1.864   2.177   1.150  0.1194 -0.4659  0.5553
 5384TIP3   OH237642   1.606   5.741  11.418 -0.0138 -0.2292  0.5213
 5384TIP3    H137643   1.546   5.807  11.383 -0.1487  0.6772  2.4065
 5384TIP3    H237644   1.692   5.768  11.386 -0.1851  0.3890  0.5670
 5385TIP3   OH237645   3.244   6.184   4.017 -0.2141 -0.1431 -0.3126
 5385TIP3    H137646   3.233   6.277   4.038  3.2181  0.0515  0.9246
 5385TIP3    H237647   3.322   6.180   3.962 -1.0510 -2.1975 -1.4325
 5386TIP3   OH237648   3.796   3.441   5.273  0.1076 -0.6450 -0.0320
 5386TIP3    H137649   3.760   3.498   5.205 -1.7872 -0.3163  1.2051
 5386TIP3    H237650   3.722   3.390   5.304  0.8020 -0.3834  2.1704
 5387TIP3   OH237651   6.432   2.553  16.082 -0.2788  0.0966 -0.7403
 5387TIP3    H137652   6.459   2.526  15.994  0.9741  0.6730 -0.5477
 5387TIP3    H237653   6.348   2.510  16.095  2.0458 -4.5643 -0.0699
 5388TIP3   OH237654   5.923   5.502  14.101 -0.3148  0.7570 -0.2654
 5388TIP3    H137655   5.954   5.571  14.159 -0.5140  0.1693  0.5599
 5388TIP3    H237656   5.940   5.534  14.012  0.3303  1.5044  0.1303
 5389TIP3   OH237657   5.656   0.199  14.485 -0.3982  0.0635  0.3293
 5389TIP3    H137658   5.715   0.126  14.499  2.6010  2.2755 -0.3507
 5389TIP3    H237659   5.687   0.267  14.546 -1.8653  1.4762 -0.4560
 5390TIP3   OH237660   6.431   5.426   0.087 -0.2245 -0.0413  0.1774
 5390TIP3    H137661   6.442   5.519   0.107  1.5781 -0.3007  0.4691
 5390TIP3    H237662   6.454   5.381   0.168  2.6535 -0.8836 -1.0211
 5391TIP3   OH237663   3.882   4.636   1.875  0.3157 -0.3162  0.2214
 5391TIP3    H137664   3.934   4.607   1.950 -0.8080 -2.3000  0.2702
 5391TIP3    H237665   3.889   4.565   1.812  1.0768  1.2384 -1.5027
 5392TIP3   OH237666   4.157   1.565   4.844 -0.2896 -0.2228 -0.0690
 5392TIP3    H137667   4.105   1.538   4.919  0.2427 -3.2089 -0.7024
 5392TIP3    H237668   4.247   1.568   4.877 -0.1356 -0.9370 -0.4029
 5393TIP3   OH237669   1.971   4.619   3.384  0.1182 -0.3601 -0.2466
 5393TIP3    H137670   2.049   4.657   3.424  0.6868 -2.4146  0.6468
 5393TIP3    H237671   1.997   4.530   3.360 -1.8731 -0.9909 -0.1460
 5394TIP3   OH237672   3.304   6.046   3.516 -0.8107  0.2367 -0.1106
 5394TIP3    H137673   3.215   6.045   3.484 -0.6791 -0.3827 -0.4586
 5394TIP3    H237674   3.344   6.124   3.476 -0.6325 -0.5501 -1.4951
 5395TIP3   OH237675   3.180   6.639  13.181 -0.4983 -1.2581 -0.0778
 5395TIP3    H137676   3.259   6.680  13.213 -1.0896 -1.8126  2.1880
 5395TIP3    H237677   3.111   6.704  13.194 -1.0972 -2.2300  1.7064
 5396TIP3   OH237678   2.807   5.216   4.735  0.0053  0.0786  0.5353
 5396TIP3    H137679   2.814   5.305   4.770  0.4347  0.8902 -1.5257
 5396TIP3    H237680   2.875   5.211   4.668 -0.1950 -1.7201  0.4332
 5397TIP3   OH237681   6.526   6.317   4.927  0.5980 -0.1928  0.0824
 5397TIP3    H137682   6.593   6.317   4.859  2.0027  1.2524  1.4347
 5397TIP3    H237683   6.532   6.404   4.967 -1.2821 -0.4635  1.0153
 5398TIP3   OH237684   5.589   0.541  13.072 -0.3467 -0.1991  0.2367
 5398TIP3    H137685   5.587   0.446  13.074  0.1186 -0.2871 -1.9961
 5398TIP3    H237686   5.658   0.566  13.134 -1.2094 -1.2591  1.6272
 5399TIP3   OH237687   4.508   5.648   5.977 -0.1127  0.5560 -0.2523
 5399TIP3    H137688   4.477   5.669   6.065  0.4839  1.8423 -0.3375
 5399TIP3    H237689   4.525   5.554   5.979  0.7203  0.7282  1.2597
 5400TIP3   OH237690   6.663   5.279   1.658  0.2519  0.0505  0.0258
 5400TIP3    H137691   6.600   5.308   1.724 -1.0379  1.0917 -1.6318
 5400TIP3    H237692   6.653   5.184   1.654 -0.3669  0.0876  0.6189
 5401TIP3   OH237693   5.900   6.658   3.496  0.0913  0.1927 -0.1055
 5401TIP3    H137694   5.990   6.626   3.492 -0.3763 -1.0831 -0.7463
 5401TIP3    H237695   5.901   6.725   3.565  1.1241 -1.1242  1.1779
 5402TIP3   OH237696   2.037   1.532   3.053 -0.8703 -0.1503 -0.5495
 5402TIP3    H137697   1.990   1.534   3.137 -1.4273 -1.0915 -0.8313
 5402TIP3    H237698   1.970   1.510   2.989 -0.4824  0.7830 -1.2807
 5403TIP3   OH237699   5.017   6.817   4.539 -0.0112  0.1999 -0.0685
 5403TIP3    H137700   5.111   6.822   4.554  0.1074 -1.3242 -0.3038
 5403TIP3    H237701   4.990   6.908   4.528  1.3057  0.7047  0.7606
 5404TIP3   OH237702   4.298   0.561   4.196 -0.3743 -0.5048 -0.2613
 5404TIP3    H137703   4.271   0.499   4.264  1.9988 -1.7906 -0.4573
 5404TIP3    H237704   4.313   0.643   4.243 -0.5836 -0.8806  0.4728
 5405TIP3   OH237705   4.490   6.657  11.349  0.0932  0.1074 -0.0069
 5405TIP3    H137706   4.469   6.719  11.279 -0.7092  0.2536  0.3531
 5405TIP3    H237707   4.579   6.628  11.330 -0.0650  0.2594 -1.0047
 5406TIP3   OH237708   4.545   1.859   0.893  0.2395  0.1944 -0.2280
 5406TIP3    H137709   4.560   1.891   0.982  0.7273 -2.0902  0.5324
 5406TIP3    H237710   4.626   1.880   0.847  0.3151  0.6194  0.0946
 5407TIP3   OH237711   2.896   6.254  11.683 -0.3211  0.5043  0.1017
 5407TIP3    H137712   2.919   6.297  11.765 -1.5649 -1.5415  1.5788
 5407TIP3    H237713   2.810   6.291  11.660 -0.4741  0.2711  0.3014
 5408TIP3   OH237714   1.463   0.685   6.834 -0.2914  0.5384  0.2320
 5408TIP3    H137715   1.445   0.779   6.841 -1.2942  0.4670 -1.2120
 5408TIP3    H237716   1.434   0.661   6.746  1.6607 -0.7783 -0.0877
 5409TIP3   OH237717   2.594   2.252   1.172 -0.0180 -0.6382 -0.1198
 5409TIP3    H137718   2.501   2.257   1.196  0.4930 -0.6766  2.0106
 5409TIP3    H237719   2.600   2.181   1.109 -1.6654  0.3761 -1.4514
 5410TIP3   OH237720   2.954   1.809  13.166  0.4297 -0.2962 -0.4533
 5410TIP3    H137721   2.939   1.758  13.246  1.0641  0.7817  0.3626
 5410TIP3    H237722   2.992   1.892  13.196 -0.9480  0.8352 -1.7182
 5411TIP3   OH237723   0.445   6.097  15.134 -0.2228  0.0022  0.6160
 5411TIP3    H137724   0.540   6.090  15.139  0.0196  1.8340 -1.0204
 5411TIP3    H237725   0.420   6.139  15.217  0.3351 -0.7347  1.1718
 5412TIP3   OH237726   1.504   0.517  14.693  0.7607 -0.0379  0.1558
 5412TIP3    H137727   1.439   0.454  14.725  0.8448 -0.7211 -0.9911
 5412TIP3    H237728   1.581   0.464  14.674  1.8516  0.8385  1.9614
 5413TIP3   OH237729   2.869   4.928   2.367 -0.1957  0.0960  0.5169
 5413TIP3    H137730   2.824   5.010   2.386 -2.1178 -1.0634  1.0575
 5413TIP3    H237731   2.800   4.862   2.369  1.2559 -1.4698 -0.3989
 5414TIP3   OH237732   5.058   2.149   2.205 -0.6877 -0.3507 -0.2834
 5414TIP3    H137733   5.070   2.232   2.159 -0.3875 -0.3198 -0.1503
 5414TIP3    H237734   5.122   2.090   2.165 -2.2063 -1.0602 -1.6835
 5415TIP3   OH237735   1.543   0.564  11.907 -0.7195  0.2344  0.5137
 5415TIP3    H137736   1.569   0.476  11.935  1.8858  0.2293 -1.7112
 5415TIP3    H237737   1.466   0.551  11.853 -0.5853 -0.6572  0.5298
 5416TIP3   OH237738   1.132   0.408  11.948  0.4654 -1.1651  0.3415
 5416TIP3    H137739   1.053   0.394  11.896 -0.2580 -0.0207  1.1028
 5416TIP3    H237740   1.202   0.421  11.883 -0.4898  0.6271 -0.3614
 5417TIP3   OH237741   2.210   5.445   2.154  0.3675 -0.4984 -0.5973
 5417TIP3    H137742   2.294   5.401   2.148 -0.1969 -1.7821  0.6788
 5417TIP3    H237743   2.149   5.390   2.105 -0.3165 -1.0978  0.9011
 5418TIP3   OH237744   0.888   2.177   5.838 -0.1444 -0.2005 -0.4745
 5418TIP3    H137745   0.862   2.157   5.748 -0.5656 -1.2561 -0.1296
 5418TIP3    H237746   0.843   2.259   5.859  0.0216  0.0891 -1.2465
 5419TIP3   OH237747   3.028   4.906   4.754 -0.1912 -0.1581 -0.1994
 5419TIP3    H137748   2.994   4.817   4.759  0.7657 -0.4593  1.0663
 5419TIP3    H237749   3.063   4.913   4.665 -0.1371 -1.1041 -0.2578
 5420TIP3   OH237750   5.883   4.497   5.444 -0.1897  0.6367 -0.3042
 5420TIP3    H137751   5.823   4.567   5.420  1.6809  2.5208  0.4312
 5420TIP3    H237752   5.935   4.481   5.366 -0.5990  0.0380 -0.4653
 5421TIP3   OH237753   0.696   3.143  15.136  0.2767  0.3852 -0.1491
 5421TIP3    H137754   0.662   3.099  15.058 -0.4583 -0.5620  0.6864
 5421TIP3    H237755   0.787   3.162  15.114  0.5212 -1.2779 -0.6641
 5422TIP3   OH237756   6.008   2.006  11.138  0.6117  0.5802 -0.2173
 5422TIP3    H137757   6.027   1.957  11.058  1.5991 -0.2370  0.4935
 5422TIP3    H237758   6.019   2.098  11.113  1.2756  0.3185 -0.9368
 5423TIP3   OH237759   3.118   3.847  13.637 -0.1436 -0.3166 -0.4982
 5423TIP3    H137760   3.145   3.763  13.601 -0.0848 -0.8901  0.8683
 5423TIP3    H237761   3.200   3.894  13.651 -0.0068 -0.9637  0.9757
 5424TIP3   OH237762   4.938   3.805   0.177 -0.2394 -0.6298  0.2241
 5424TIP3    H137763   4.977   3.889   0.201 -0.9280 -0.9265  2.5106
 5424TIP3    H237764   4.851   3.828   0.144  0.3109 -0.2973 -1.0069
 5425TIP3   OH237765   6.806   5.347   3.641 -0.9694 -0.1083 -0.4440
 5425TIP3    H137766   6.769   5.285   3.577  0.6742 -1.4335 -0.1447
 5425TIP3    H237767   6.900   5.329   3.640 -0.0179  4.2618 -2.3663
 5426TIP3   OH237768   1.983   2.397  11.568  0.2500  0.4556  0.5320
 5426TIP3    H137769   1.930   2.355  11.500  2.1254 -2.1395  0.5734
 5426TIP3    H237770   2.062   2.426  11.522  0.5430  0.7298  1.1994
 5427TIP3   OH237771   1.908   6.483  14.833 -0.1557 -0.0187  0.0906
 5427TIP3    H137772   1.862   6.524  14.760  0.2316 -2.4114 -1.5480
 5427TIP3    H237773   1.975   6.429  14.792  0.5969 -0.7924  2.2551
 5428TIP3   OH237774   3.541   3.535  13.906 -0.3854 -0.2772  0.1152
 5428TIP3    H137775   3.556   3.456  13.854  0.6548  0.7918 -1.2538
 5428TIP3    H237776   3.597   3.524  13.983 -0.9944 -1.3135  0.4094
 5429TIP3   OH237777   4.616   0.793  17.020  0.4093  0.5985 -0.2781
 5429TIP3    H137778   4.677   0.807  16.947 -1.0720  1.4981 -1.3816
 5429TIP3    H237779   4.530   0.783  16.977 -0.3076 -0.0322  1.2744
 5430TIP3   OH237780   6.501   5.384   1.355  0.3610  0.4106  0.1665
 5430TIP3    H137781   6.531   5.454   1.412 -0.2622  3.0912 -2.7043
 5430TIP3    H237782   6.573   5.370   1.294 -0.4372  0.0986 -0.7049
 5431TIP3   OH237783   6.458   4.295   5.794  0.1568  0.1586 -0.0920
 5431TIP3    H137784   6.547   4.271   5.770 -0.1075 -1.2410  0.2425
 5431TIP3    H237785   6.461   4.389   5.812  1.2317  0.4151 -1.5628
 5432TIP3   OH237786   2.116   5.322   1.039 -0.3666 -0.2637 -0.6281
 5432TIP3    H137787   2.197   5.300   0.995  0.9527  1.0152  1.0898
 5432TIP3    H237788   2.085   5.401   0.994  0.1073  0.0841 -0.3462
 5433TIP3   OH237789   6.695   6.476  14.757  0.3204 -0.3421  0.0957
 5433TIP3    H137790   6.633   6.417  14.801 -0.2278 -0.2316 -0.5232
 5433TIP3    H237791   6.644   6.516  14.686  1.1260 -0.2947 -0.4575
 5434TIP3   OH237792   1.133   0.024   1.145 -0.3153  0.0185 -0.2460
 5434TIP3    H137793   1.125   0.074   1.226 -0.9581  0.4870 -0.6034
 5434TIP3    H237794   1.051   0.039   1.098  0.8739  1.3847 -1.9203
 5435TIP3   OH237795   6.164   4.735  16.723  0.2242  0.7528  0.1574
 5435TIP3    H137796   6.085   4.768  16.766 -1.2407 -1.2549 -0.8785
 5435TIP3    H237797   6.132   4.687  16.647  2.5926  1.5785 -1.4274
 5436TIP3   OH237798   1.968   5.082   1.903 -0.3925  0.2144 -0.0879
 5436TIP3    H137799   1.919   5.042   1.831  0.6167  2.0967 -1.8577
 5436TIP3    H237800   1.965   5.016   1.973 -2.0893 -1.3090 -1.5309
 5437TIP3   OH237801   4.160   1.466  11.325  0.0126 -0.1798  0.2866
 5437TIP3    H137802   4.174   1.413  11.247 -2.0627 -0.1934 -0.1183
 5437TIP3    H237803   4.234   1.527  11.327  1.4469 -1.8803 -0.2462
 5438TIP3   OH237804   4.482   0.614  12.357 -0.1076 -0.4956  0.0977
 5438TIP3    H137805   4.433   0.653  12.286  1.2252  0.8251 -0.1212
 5438TIP3    H237806   4.463   0.668  12.433  0.0286 -0.7158  0.2900
 5439TIP3   OH237807   1.038   1.187  12.052  0.3144 -0.4053  0.2600
 5439TIP3    H137808   1.036   1.278  12.082  2.2338 -0.4726  0.6741
 5439TIP3    H237809   1.131   1.163  12.057 -0.1091 -2.2009 -0.3941
 5440TIP3   OH237810   4.739   6.475  13.803 -0.1116 -0.4119  0.6472
 5440TIP3    H137811   4.667   6.436  13.853  0.8782 -1.4432  1.2942
 5440TIP3    H237812   4.739   6.567  13.829 -0.4220 -0.6668  1.5688
 5441TIP3   OH237813   3.685   4.786   1.772  0.6846  0.1972  0.2833
 5441TIP3    H137814   3.758   4.733   1.805  1.0398 -0.6273 -1.7165
 5441TIP3    H237815   3.634   4.725   1.718  1.1680  1.8676 -2.1725
 5442TIP3   OH237816   0.216   1.003   1.736 -0.4677 -0.4444 -0.5176
 5442TIP3    H137817   0.253   0.933   1.683 -0.4046 -0.3722 -0.5690
 5442TIP3    H237818   0.241   1.084   1.691 -0.8258 -0.4025 -0.6389
 5443TIP3   OH237819   1.565   4.366   6.205 -0.0945  0.6082 -0.1768
 5443TIP3    H137820   1.488   4.381   6.259 -0.1533 -1.7890  0.4797
 5443TIP3    H237821   1.532   4.315   6.130  0.4343  1.6615 -1.1404
 5444TIP3   OH237822   5.652   2.806   3.630 -0.0646  0.6299 -0.3809
 5444TIP3    H137823   5.737   2.773   3.658  0.0541  0.5084 -0.8798
 5444TIP3    H237824   5.661   2.818   3.535 -1.1351 -0.9483 -0.6905
 5445TIP3   OH237825   1.735   3.246  14.174  0.1409  0.1335  0.2914
 5445TIP3    H137826   1.820   3.243  14.130  0.3089 -0.1126  0.6264
 5445TIP3    H237827   1.725   3.337  14.202  0.2336  0.1925  0.1351
 5446TIP3   OH237828   3.377   0.172  13.500  0.1506  0.8189  0.0722
 5446TIP3    H137829   3.284   0.191  13.490 -0.6022 -2.3899  0.2573
 5446TIP3    H237830   3.415   0.196  13.416 -1.3644 -0.3440 -0.9894
 5447TIP3   OH237831   1.250   3.154  14.059  0.4437  0.0893  0.6636
 5447TIP3    H137832   1.309   3.094  14.013 -1.3811 -0.0756 -1.5798
 5447TIP3    H237833   1.276   3.241  14.029 -0.2718  0.0314 -0.1544
 5448TIP3   OH237834   6.278   4.381   4.695 -0.0261 -0.0581  0.0197
 5448TIP3    H137835   6.213   4.357   4.762 -0.7762 -1.4478 -1.1704
 5448TIP3    H237836   6.299   4.298   4.652 -0.0253  0.9150 -1.8886
 5449TIP3   OH237837   6.390   2.985   5.334 -0.2174  0.4095  0.2359
 5449TIP3    H137838   6.314   3.041   5.319 -0.0157  0.7633  0.5285
 5449TIP3    H237839   6.373   2.907   5.280 -0.3342  0.8995 -0.4365
 5450TIP3   OH237840   5.131   3.603  12.147 -0.1381  0.5782 -0.3512
 5450TIP3    H137841   5.142   3.625  12.240  1.2982 -0.8442 -0.1522
 5450TIP3    H237842   5.037   3.609  12.132 -0.4375  0.4065  1.3159
 5451TIP3   OH237843   6.596   5.411  16.283 -0.6559 -0.2725  0.8974
 5451TIP3    H137844   6.657   5.347  16.245  0.4812  1.5841 -0.5044
 5451TIP3    H237845   6.531   5.358  16.329 -0.2438 -2.4815 -0.9579
 5452TIP3   OH237846   5.259   2.160  12.002  0.2796  0.4516  0.4055
 5452TIP3    H137847   5.305   2.080  11.977  0.1920  0.2081  1.0240
 5452TIP3    H237848   5.253   2.156  12.098  0.9178  1.5465  0.5001
 5453TIP3   OH237849   3.644   0.035  12.166 -0.5256  0.5122 -0.2069
 5453TIP3    H137850   3.597   0.049  12.248 -1.6125  0.3447 -0.7969
 5453TIP3    H237851   3.695  -0.045  12.180 -0.8325  0.3967  0.2438
 5454TIP3   OH237852   5.927   0.584   1.821  0.4082  0.1094 -0.0997
 5454TIP3    H137853   5.950   0.598   1.729  0.2084 -0.2711 -0.2105
 5454TIP3    H237854   5.926   0.671   1.859 -0.8149  0.4099 -0.7846
 5455TIP3   OH237855   6.624   0.884  15.766  0.0011  0.0739 -0.0408
 5455TIP3    H137856   6.680   0.920  15.834  0.6053  1.8801 -1.4454
 5455TIP3    H237857   6.541   0.929  15.776  0.0314  0.2060 -0.3677
 5456TIP3   OH237858   1.495   2.315  14.520 -0.6540  0.2013 -0.3815
 5456TIP3    H137859   1.463   2.405  14.517  1.3385  1.0267  1.9438
 5456TIP3    H237860   1.588   2.323  14.538  0.0455 -2.2910 -2.5013
 5457TIP3   OH237861   3.196   4.453   4.718 -0.0535 -0.0820 -0.2686
 5457TIP3    H137862   3.193   4.455   4.623 -0.1290 -0.5267 -0.2771
 5457TIP3    H237863   3.152   4.534   4.745  0.2597  0.2074 -0.6130
 5458TIP3   OH237864   0.420   6.456   1.358 -0.1568  0.1233 -0.1623
 5458TIP3    H137865   0.453   6.533   1.311 -0.0853 -2.1962 -4.0218
 5458TIP3    H237866   0.326   6.455   1.340 -0.2595 -0.4040  0.3894
 5459TIP3   OH237867   4.708   4.559  14.213  0.1430 -0.0914 -0.0838
 5459TIP3    H137868   4.683   4.537  14.123 -1.0006 -0.7053  0.3816
 5459TIP3    H237869   4.794   4.600  14.204  0.1952 -0.4687 -1.4286
 5460TIP3   OH237870   1.101   4.120  16.650  0.2607 -0.4122 -0.1151
 5460TIP3    H137871   1.147   4.191  16.694  0.1152 -0.2272 -0.2618
 5460TIP3    H237872   1.008   4.142  16.658  0.2691 -0.0107 -1.1450
 5461TIP3   OH237873   0.910   1.782  12.244  0.1035 -0.3133  0.3327
 5461TIP3    H137874   0.897   1.688  12.258  0.8319 -0.4064  0.4035
 5461TIP3    H237875   0.823   1.820  12.255 -0.2612 -1.0269 -0.0725
 5462TIP3   OH237876   5.369   2.100   4.516 -0.6032 -0.0904 -0.4509
 5462TIP3    H137877   5.453   2.136   4.487 -0.6099  0.1124 -0.2218
 5462TIP3    H237878   5.320   2.177   4.545 -1.2631 -0.0719 -1.5595
 5463TIP3   OH237879   1.967   6.030  11.960 -0.5250 -0.3092  0.6556
 5463TIP3    H137880   2.024   6.031  12.037  0.9495 -0.3625 -0.4144
 5463TIP3    H237881   1.915   5.951  11.969 -0.1250 -0.4904  1.4248
 5464TIP3   OH237882   0.288   1.357  12.885  0.0434 -0.7478  0.0740
 5464TIP3    H137883   0.218   1.418  12.908  0.7820 -0.4373  1.5589
 5464TIP3    H237884   0.287   1.355  12.789 -0.4391  1.0652  0.0122
 5465TIP3   OH237885   3.252   0.496   5.477  0.2102  0.2671  0.1316
 5465TIP3    H137886   3.262   0.404   5.502  1.1166 -0.1233 -1.5548
 5465TIP3    H237887   3.341   0.532   5.484 -0.2068  1.1361  1.1651
 5466TIP3   OH237888   0.907   4.590  16.804  0.0068  0.2921 -0.2888
 5466TIP3    H137889   0.866   4.646  16.870 -0.7242  0.1138 -0.5864
 5466TIP3    H237890   0.841   4.582  16.735  0.0345 -1.0923 -0.1693
 5467TIP3   OH237891   5.138   6.341   1.869  0.1285 -0.6361  0.0132
 5467TIP3    H137892   5.071   6.385   1.921  0.3572 -0.9082  0.5384
 5467TIP3    H237893   5.186   6.287   1.932  0.5856 -0.7482 -0.4288
 5468TIP3   OH237894   1.116   4.208   3.051  0.2211 -0.2389  0.1044
 5468TIP3    H137895   1.060   4.252   2.987 -3.7441 -1.4255  2.5342
 5468TIP3    H237896   1.130   4.273   3.120 -0.7086 -0.8684  0.9062
 5469TIP3   OH237897   0.107   0.594  13.454  0.0642 -0.4703 -0.2238
 5469TIP3    H137898   0.162   0.603  13.377 -0.7766 -1.8947 -1.0144
 5469TIP3    H237899   0.168   0.571  13.525  0.9504  1.7548 -0.2326
 5470TIP3   OH237900   5.792   3.806  15.803 -0.3546 -0.0738 -0.2602
 5470TIP3    H137901   5.840   3.866  15.745  1.6309  0.0180  1.4135
 5470TIP3    H237902   5.831   3.720  15.786 -2.1234 -0.6455 -1.5189
 5471TIP3   OH237903   5.822   1.802  13.687 -0.1646 -0.0908  0.5094
 5471TIP3    H137904   5.891   1.741  13.713 -0.8471 -1.5674 -1.0976
 5471TIP3    H237905   5.797   1.845  13.769  2.3859  0.2038  1.1709
 5472TIP3   OH237906   0.842   5.058  17.137  0.2799 -0.0587 -0.1001
 5472TIP3    H137907   0.794   4.984  17.174  1.0797 -1.5242 -1.8609
 5472TIP3    H237908   0.774   5.116  17.102 -0.3967  0.5808  2.2126
 5473TIP3   OH237909   1.704   1.892  13.747  0.6027  0.2100 -0.1491
 5473TIP3    H137910   1.608   1.900  13.746  0.6598  0.8074 -2.1216
 5473TIP3    H237911   1.729   1.892  13.655  2.7302  2.9185  0.3565
 5474TIP3   OH237912   3.872   4.837  16.294  0.8221 -0.5197 -0.3352
 5474TIP3    H137913   3.827   4.921  16.297 -0.8461 -1.4400  1.1356
 5474TIP3    H237914   3.965   4.859  16.290  0.3843  1.3842 -0.1969
 5475TIP3   OH237915   6.710   2.164   0.228  0.4620 -0.4384  0.0222
 5475TIP3    H137916   6.666   2.211   0.158  1.6117  0.9928  0.2511
 5475TIP3    H237917   6.769   2.227   0.267  1.7115 -1.9421  0.6291
 5476TIP3   OH237918   0.819   4.470  12.717  0.6140 -0.3230  0.0371
 5476TIP3    H137919   0.830   4.399  12.780  0.0494 -1.5922 -1.2475
 5476TIP3    H237920   0.906   4.481  12.678  1.3762  1.5868  2.1295
 5477TIP3   OH237921   2.244   6.716  13.449 -0.5893  0.1564 -0.5186
 5477TIP3    H137922   2.300   6.762  13.386 -1.2107  1.0817 -0.4203
 5477TIP3    H237923   2.301   6.651  13.489  0.5734  1.4340 -0.0314
 5478TIP3   OH237924   4.823   2.813   0.772 -0.4126 -0.0167 -0.5039
 5478TIP3    H137925   4.730   2.799   0.787 -0.2042 -1.7002 -0.6229
 5478TIP3    H237926   4.864   2.730   0.797  1.2154  1.1430  0.8349
 5479TIP3   OH237927   5.668   2.168  11.654 -0.0022  0.0492 -0.2088
 5479TIP3    H137928   5.660   2.078  11.623  0.9099  0.1799 -0.8562
 5479TIP3    H237929   5.744   2.203  11.607  0.7541  0.5883  1.3928
 5480TIP3   OH237930   4.234   4.650  15.409  0.2619 -0.4755  0.4065
 5480TIP3    H137931   4.203   4.675  15.322  0.5539 -1.3037  0.0578
 5480TIP3    H237932   4.329   4.660  15.405  0.1692  0.7645  1.0549
 5481TIP3   OH237933   0.981   5.135   1.854 -0.1581  0.0869 -0.0915
 5481TIP3    H137934   0.920   5.108   1.922 -1.5511  0.1754 -1.2737
 5481TIP3    H237935   1.022   5.214   1.888  0.5684 -0.9412  1.4461
 5482TIP3   OH237936   6.309   3.879  15.958  0.3308 -0.4324 -0.1951
 5482TIP3    H137937   6.373   3.840  16.018  0.7998  0.0608 -0.3715
 5482TIP3    H237938   6.350   3.961  15.929  1.3975 -2.0510 -3.4762
 5483TIP3   OH237939   0.934   3.235  11.662  0.3480 -0.1352  0.3484
 5483TIP3    H137940   0.969   3.292  11.594  0.0874 -0.4408 -0.0416
 5483TIP3    H237941   1.009   3.214  11.718  1.1703 -2.2744 -1.5118
 5484TIP3   OH237942   2.755   5.060   0.133  0.7676  0.7228 -0.1673
 5484TIP3    H137943   2.743   4.977   0.180  2.4476  1.3058  1.3468
 5484TIP3    H237944   2.667   5.095   0.123  0.1738 -0.5376  0.5040
 5485TIP3   OH237945   3.387   5.742   1.906  0.1566 -0.0643  0.2893
 5485TIP3    H137946   3.465   5.689   1.888 -0.2820 -0.0365 -1.7177
 5485TIP3    H237947   3.347   5.700   1.983  1.1955 -1.1048  0.2758
 5486TIP3   OH237948   5.833   6.763  14.465  0.4313  0.0644 -0.0148
 5486TIP3    H137949   5.922   6.744  14.495  1.0854  1.9019 -0.7648
 5486TIP3    H237950   5.777   6.706  14.519  1.7652  1.4606  2.9152
 5487TIP3   OH237951   5.684   6.144   4.999 -0.5712  0.5408  0.3472
 5487TIP3    H137952   5.630   6.223   5.002  0.5551  1.3698 -0.7453
 5487TIP3    H237953   5.652   6.090   5.072 -0.0832  2.8468  2.3431
 5488TIP3   OH237954   1.936   3.318  12.052 -0.3186 -0.3074 -0.0632
 5488TIP3    H137955   1.908   3.226  12.049 -2.0361  0.2001 -0.4678
 5488TIP3    H237956   1.886   3.355  12.125 -0.6775  0.6337 -0.7811
 5489TIP3   OH237957   5.742   5.694  11.010  0.0118  0.0211  0.3769
 5489TIP3    H137958   5.785   5.609  11.015  2.1496  1.0637  0.5713
 5489TIP3    H237959   5.760   5.726  10.922 -3.7983 -1.2035 -0.9179
 5490TIP3   OH237960   4.755   3.600  15.687 -0.0408  0.3010 -0.5069
 5490TIP3    H137961   4.827   3.647  15.730  0.1076 -0.6707  0.3107
 5490TIP3    H237962   4.783   3.509  15.684 -0.6875  0.1152 -1.3576
 5491TIP3   OH237963   3.641   2.936  10.751  0.1960 -0.1751  0.3136
 5491TIP3    H137964   3.580   2.866  10.729 -1.1002  0.7719  0.8302
 5491TIP3    H237965   3.686   2.956  10.669 -1.6951  0.5627 -0.5653
 5492TIP3   OH237966   2.219   5.797  16.758  0.0182 -0.0178  0.1232
 5492TIP3    H137967   2.190   5.721  16.809 -0.5119 -0.1181 -0.3293
 5492TIP3    H237968   2.282   5.841  16.815 -1.7859  0.7947  1.5493
 5493TIP3   OH237969   4.863   0.901   1.950 -0.6327 -0.4502  0.2362
 5493TIP3    H137970   4.817   0.914   1.867  1.2799  3.1140 -0.3441
 5493TIP3    H237971   4.951   0.873   1.924 -0.0803  0.5139  1.0863
 5494TIP3   OH237972   3.630   3.110   6.054 -0.5327 -0.5536 -0.2960
 5494TIP3    H137973   3.609   3.175   6.120  0.5481  0.0526 -0.5379
 5494TIP3    H237974   3.545   3.080   6.021 -1.0229  1.6482 -1.0841
 5495TIP3   OH237975   4.334   4.162  10.497  0.2227  0.0031  0.2462
 5495TIP3    H137976   4.244   4.192  10.483  1.5472  3.0017 -2.3033
 5495TIP3    H237977   4.345   4.165  10.592 -2.5043 -0.9123  0.6396
 5496TIP3   OH237978   3.748   1.668   1.008  0.3911  0.5174 -0.2319
 5496TIP3    H137979   3.716   1.737   1.067 -1.3030 -0.7749  0.4164
 5496TIP3    H237980   3.820   1.627   1.056 -1.3217 -0.8716  1.2215
 5497TIP3   OH237981   1.063   3.344  13.649  0.2270 -0.1223  0.0012
 5497TIP3    H137982   1.098   3.350  13.560  1.4835 -0.0242  0.4889
 5497TIP3    H237983   0.976   3.384  13.644 -0.5166 -1.8443 -1.5939
 5498TIP3   OH237984   1.840   5.000   0.866  0.6651  0.2004 -0.3701
 5498TIP3    H137985   1.846   5.061   0.939 -1.0931  0.9606 -0.8275
 5498TIP3    H237986   1.926   5.002   0.825  1.1389  1.0553  0.6715
 5499TIP3   OH237987   5.610   0.386   0.621 -0.1741 -0.3554  0.7875
 5499TIP3    H137988   5.626   0.326   0.694  2.0266  1.6762  2.0617
 5499TIP3    H237989   5.686   0.374   0.564 -0.9459 -0.5504 -0.1960
 5500TIP3   OH237990   3.810   6.099   6.504 -0.1480 -0.2717 -0.4911
 5500TIP3    H137991   3.787   6.191   6.495  0.6088  0.0161  0.3927
 5500TIP3    H237992   3.792   6.060   6.419 -1.2507  0.5210 -0.6263
 5501TIP3   OH237993   4.309   4.082   5.003 -0.4070  0.3283  0.3055
 5501TIP3    H137994   4.326   4.176   5.016  1.3023  0.2888 -1.3516
 5501TIP3    H237995   4.371   4.038   5.062  0.6994  0.2471 -0.8820
 5502TIP3   OH237996   5.998   2.868   0.088  0.2485 -0.3182 -0.0016
 5502TIP3    H137997   5.988   2.962   0.071 -0.0341 -0.3292  0.1112
 5502TIP3    H237998   6.040   2.834   0.009 -0.5543 -0.2689 -0.4542
 5503TIP3   OH237999   1.073   1.018   2.897  0.4497 -0.4349  0.1419
 5503TIP3    H138000   1.012   1.030   2.970  0.4791 -1.1495  0.2801
 5503TIP3    H238001   1.031   0.953   2.841  1.3651 -1.3743  0.5398
 5504TIP3   OH238002   5.149   3.202   6.450 -0.5982  0.5568  0.2992
 5504TIP3    H138003   5.080   3.156   6.402 -1.3651  1.0586  0.9002
 5504TIP3    H238004   5.103   3.270   6.498  0.1690  0.0800  1.7331
 5505TIP3   OH238005   1.234   3.021   3.494 -0.3445  0.1128  0.3010
 5505TIP3    H138006   1.190   2.936   3.493 -0.8323  0.3605  0.5627
 5505TIP3    H238007   1.236   3.046   3.587 -1.5288  1.0626  0.0877
 5506TIP3   OH238008   5.892   5.431  11.297  0.0330  0.4119  0.4947
 5506TIP3    H138009   5.806   5.452  11.334 -0.3120  0.4995 -0.3452
 5506TIP3    H238010   5.875   5.414  11.204  0.6906 -1.0924  0.6337
 5507TIP3   OH238011   6.405   4.669   0.935 -0.0623  0.2447  0.1354
 5507TIP3    H138012   6.437   4.627   0.856 -1.6007  1.4165 -1.1611
 5507TIP3    H238013   6.481   4.675   0.992  1.2480  0.0068 -1.5473
 5508TIP3   OH238014   4.667   1.656  11.570 -0.2595  0.3769 -0.7957
 5508TIP3    H138015   4.712   1.580  11.533 -1.1765 -0.6086  0.0679
 5508TIP3    H238016   4.582   1.622  11.598  0.0252  1.3089  1.2898
 5509TIP3   OH238017   1.800   4.614  10.858  0.0931 -0.0004  0.0310
 5509TIP3    H138018   1.722   4.649  10.814 -0.3626 -1.0820 -0.0414
 5509TIP3    H238019   1.850   4.572  10.788  1.5871  2.0909 -0.2261
 5510TIP3   OH238020   5.695   1.119  12.764  0.0812  0.3803  0.0101
 5510TIP3    H138021   5.620   1.132  12.822 -0.3177  1.5633 -0.7675
 5510TIP3    H238022   5.769   1.156  12.812  0.3037 -1.3143  1.0339
 5511TIP3   OH238023   6.145   0.684  13.866  0.2299 -0.0314  0.1035
 5511TIP3    H138024   6.223   0.657  13.916  0.5513  0.1691 -0.2877
 5511TIP3    H238025   6.112   0.603  13.828  0.2561 -0.1150  0.2555
 5512TIP3   OH238026   3.981   2.034  12.733 -0.1710 -0.1075 -0.5284
 5512TIP3    H138027   3.955   2.126  12.736  2.2435  0.6124 -0.1341
 5512TIP3    H238028   3.979   2.005  12.824 -0.8022 -0.4115 -0.6365
 5513TIP3   OH238029   1.327   6.744   0.958  0.2889 -0.3158 -0.1534
 5513TIP3    H138030   1.261   6.772   1.022  1.1379  0.1283  0.5308
 5513TIP3    H238031   1.306   6.653   0.940  0.4906 -0.6593  1.3189
 5514TIP3   OH238032   2.544   6.429   6.868 -0.2261 -0.6968 -0.0321
 5514TIP3    H138033   2.585   6.420   6.782  0.0133 -1.3326  0.1477
 5514TIP3    H238034   2.466   6.483   6.851  0.8131  0.7579 -0.3171
 5515TIP3   OH238035   4.588   6.164   4.814  0.6755  0.0203  0.3857
 5515TIP3    H138036   4.530   6.092   4.789 -0.4667  0.3814  1.9205
 5515TIP3    H238037   4.635   6.186   4.733 -1.0874 -0.4978 -0.8191
 5516TIP3   OH238038   1.235   0.219  11.697  0.1030 -0.1594 -0.1439
 5516TIP3    H138039   1.305   0.175  11.745 -0.7811 -0.7894  0.5896
 5516TIP3    H238040   1.158   0.210  11.753 -1.4554 -2.6889 -2.5238
 5517TIP3   OH238041   4.363   0.480  14.050 -0.4790 -0.0244 -0.1263
 5517TIP3    H138042   4.349   0.387  14.033 -2.1058  0.3601 -0.9533
 5517TIP3    H238043   4.359   0.487  14.146  2.4109 -1.2070  0.1231
 5518TIP3   OH238044   2.165   4.564   3.615  0.6664 -0.5426  0.3166
 5518TIP3    H138045   2.257   4.578   3.638 -0.0123 -0.2528  3.0372
 5518TIP3    H238046   2.116   4.603   3.687 -1.6101 -1.0505 -0.8935
 5519TIP3   OH238047   1.062   4.047  15.761 -0.4739 -0.2618 -0.3999
 5519TIP3    H138048   1.109   3.984  15.706 -0.2838 -0.4240 -0.0522
 5519TIP3    H238049   1.103   4.132  15.740 -1.8731  0.0082 -2.1353
 5520TIP3   OH238050   2.586   5.417   5.094  0.6859 -0.2583  0.0180
 5520TIP3    H138051   2.573   5.438   5.001  0.3895  1.0861  0.3611
 5520TIP3    H238052   2.679   5.396   5.100  1.2111  1.8899 -0.1691
 5521TIP3   OH238053   6.083   4.789   3.489  0.8524  0.1967 -0.3904
 5521TIP3    H138054   6.031   4.732   3.432  0.4237  0.3777 -0.1847
 5521TIP3    H238055   6.019   4.829   3.547  1.1134  1.1050 -0.7140
 5522TIP3   OH238056   6.255   3.793  12.759 -0.3118  0.3331 -0.1471
 5522TIP3    H138057   6.262   3.885  12.782 -2.6664  0.7705 -0.9987
 5522TIP3    H238058   6.284   3.788  12.668 -0.4318  0.2892 -0.1837
 5523TIP3   OH238059   4.327   2.561  12.493 -0.3658  0.4793  0.2211
 5523TIP3    H138060   4.241   2.564  12.537 -0.1105 -3.7062  1.1782
 5523TIP3    H238061   4.386   2.607  12.553 -0.9694 -1.0808  2.0540
 5524TIP3   OH238062   2.710   2.137   0.032  0.2971 -0.3993  0.3592
 5524TIP3    H138063   2.655   2.156   0.108 -0.4609 -1.4012  0.0660
 5524TIP3    H238064   2.780   2.081   0.066 -1.3225 -2.7534 -0.1076
 5525TIP3   OH238065   1.106   3.998   3.276 -0.1710  0.2633 -0.5075
 5525TIP3    H138066   1.144   4.043   3.201  0.6366 -1.5945 -1.2185
 5525TIP3    H238067   1.156   4.030   3.351  0.5586  0.3741 -1.0411
 5526TIP3   OH238068   2.495   3.039   3.576 -0.9354 -0.3719 -0.6003
 5526TIP3    H138069   2.539   3.019   3.659 -1.4380  0.7232 -0.0572
 5526TIP3    H238070   2.559   3.091   3.527 -1.3716  0.6756 -0.0732
 5527TIP3   OH238071   5.803   2.735   1.873  0.1134 -0.1357  0.0502
 5527TIP3    H138072   5.871   2.768   1.932 -0.1605 -0.1243  0.3591
 5527TIP3    H238073   5.756   2.814   1.846  0.9998  0.0016 -1.1425
 5528TIP3   OH238074   1.954   6.005   4.917  0.0244  0.3227  0.4494
 5528TIP3    H138075   1.993   6.036   4.835 -1.0286  0.5623  0.0177
 5528TIP3    H238076   1.918   5.919   4.895  0.8473 -0.1637  1.0021
 5529TIP3   OH238077   3.740   6.638   5.275  0.5126 -0.3390 -0.2022
 5529TIP3    H138078   3.741   6.604   5.364 -1.0622 -0.2835 -0.1402
 5529TIP3    H238079   3.825   6.680   5.264  0.0835  1.1842  1.8916
 5530TIP3   OH238080   5.899   5.856  15.984  0.0923 -0.1883  0.7516
 5530TIP3    H138081   5.985   5.822  16.010  0.0704 -1.9619 -1.3431
 5530TIP3    H238082   5.918   5.941  15.944  0.7735 -0.1844  1.0774
 5531TIP3   OH238083   4.558   0.654  13.476  0.0075  0.0941  0.2352
 5531TIP3    H138084   4.502   0.722  13.438 -0.2995 -1.0431 -1.4086
 5531TIP3    H238085   4.539   0.657  13.570 -1.5765  0.8429 -0.0849
 5532TIP3   OH238086   5.499   3.607  12.892  0.1889 -0.4221  0.4123
 5532TIP3    H138087   5.403   3.599  12.899  0.4868 -3.1552  2.1536
 5532TIP3    H238088   5.518   3.583  12.801 -1.0162  3.5466 -0.9916
 5533TIP3   OH238089   2.301   6.559   5.379  0.2080  0.8220  0.1214
 5533TIP3    H138090   2.317   6.541   5.472  0.7275 -1.1292 -0.3214
 5533TIP3    H238091   2.343   6.644   5.364  0.0737  1.1834  1.6789
 5534TIP3   OH238092   3.998   1.662  14.175 -0.1929  0.2698  0.4942
 5534TIP3    H138093   4.081   1.706  14.190  0.4975 -0.7217 -0.2970
 5534TIP3    H238094   3.941   1.692  14.246  0.7015  1.2888  0.7925
 5535TIP3   OH238095   6.220   3.254  14.338 -0.2255  0.3549  0.4978
 5535TIP3    H138096   6.181   3.279  14.421  0.0425  0.9728  0.4437
 5535TIP3    H238097   6.289   3.192  14.361 -0.1533  0.5248  0.7393
 5536TIP3   OH238098   3.960   2.976   4.166 -0.3602 -0.0087 -0.0859
 5536TIP3    H138099   3.919   2.994   4.081 -0.0743  1.2744  0.0427
 5536TIP3    H238100   3.919   3.038   4.226  0.0554 -0.3364  0.5377
 5537TIP3   OH238101   4.099   0.657   0.436  0.1285  0.5311  0.2346
 5537TIP3    H138102   4.084   0.593   0.506  1.6900  0.1741  0.2512
 5537TIP3    H238103   4.060   0.616   0.358  3.7026 -1.8444 -0.4197
 5538TIP3   OH238104   0.866   5.198  14.289 -1.0537  0.3332 -0.1590
 5538TIP3    H138105   0.852   5.266  14.354 -1.6432 -0.3179  0.3960
 5538TIP3    H238106   0.839   5.238  14.206  0.2489  1.3555 -0.1099
 5539TIP3   OH238107   2.306   1.495   0.823 -0.3133  0.3745  0.5028
 5539TIP3    H138108   2.235   1.479   0.761 -0.8154  0.5512  1.0272
 5539TIP3    H238109   2.326   1.587   0.812 -1.2589  0.7097  1.4871
 5540TIP3   OH238110   3.537   1.752  15.873  0.6772 -0.2133  0.2036
 5540TIP3    H138111   3.490   1.746  15.789 -0.1373 -0.7032  0.6891
 5540TIP3    H238112   3.475   1.719  15.938  0.6251  1.8852  1.2563
 5541TIP3   OH238113   4.499   4.273   2.074 -0.3093  0.3163 -0.0234
 5541TIP3    H138114   4.535   4.190   2.105  1.0767  1.0820  0.4382
 5541TIP3    H238115   4.509   4.332   2.148 -3.3674  0.3278  0.4498
 5542TIP3   OH238116   2.560   1.421   0.822  0.4630 -0.4556 -0.4483
 5542TIP3    H138117   2.467   1.443   0.834  0.6724 -0.0977  0.6315
 5542TIP3    H238118   2.570   1.408   0.728 -1.2614 -3.1564 -0.3088
 5543TIP3   OH238119   4.338   5.989  12.861 -0.1696 -0.1039 -0.9211
 5543TIP3    H138120   4.276   6.061  12.847 -1.5405 -1.1718 -0.4314
 5543TIP3    H238121   4.320   5.959  12.950 -0.5929 -1.9754 -1.6211
 5544TIP3   OH238122   3.320   0.769  12.732  0.0588  0.1673 -0.1334
 5544TIP3    H138123   3.369   0.702  12.779 -2.5555  0.0775  2.5490
 5544TIP3    H238124   3.233   0.732  12.719 -0.1605  1.3579 -2.5167
 5545TIP3   OH238125   5.904   4.870  11.358 -0.9591 -0.3733 -0.5279
 5545TIP3    H138126   5.958   4.930  11.410 -1.0891  1.2706 -2.2016
 5545TIP3    H238127   5.938   4.783  11.378  1.4723  0.5372 -0.5634
 5546TIP3   OH238128   1.152   2.942  14.198  0.0929 -0.3451 -0.5672
 5546TIP3    H138129   1.236   2.900  14.182  0.8950  0.1365  2.0395
 5546TIP3    H238130   1.156   3.024  14.149  0.9703 -0.5083 -0.7735
 5547TIP3   OH238131   1.932   6.371  13.079 -0.2816 -0.0081  0.4185
 5547TIP3    H138132   1.931   6.340  13.170 -0.3040 -1.9819 -0.2160
 5547TIP3    H238133   2.021   6.352  13.049 -0.6695 -0.6485 -0.3652
 5548TIP3   OH238134   6.080   6.530   4.107  0.0793  0.1297 -0.1711
 5548TIP3    H138135   6.108   6.604   4.054  0.0211 -0.0586 -0.4695
 5548TIP3    H238136   6.145   6.462   4.090 -0.6094 -0.3476 -0.9554
 5549TIP3   OH238137   0.013   3.521  12.730  0.3283 -0.2352  0.3609
 5549TIP3    H138138   0.037   3.612  12.714  1.0641 -0.5961 -0.6288
 5549TIP3    H238139  -0.083   3.521  12.727  0.2825  0.7404  1.6929
 5550TIP3   OH238140   5.663   2.913  17.287 -0.1794 -0.4907 -0.1159
 5550TIP3    H138141   5.706   2.840  17.243 -2.0628 -1.7910  0.1670
 5550TIP3    H238142   5.578   2.879  17.315 -1.0879  1.7789  0.0569
 5551TIP3   OH238143   6.386   0.261   0.479  0.6102  0.2561 -0.5172
 5551TIP3    H138144   6.383   0.226   0.568  0.5465  0.2968 -0.5035
 5551TIP3    H238145   6.308   0.317   0.472  0.1461 -0.4173 -0.8706
 5552TIP3   OH238146   2.646   1.705  10.971  0.1817 -0.1608 -0.6486
 5552TIP3    H138147   2.604   1.739  11.050 -0.5573 -1.9803 -0.2419
 5552TIP3    H238148   2.596   1.745  10.899  1.4196  2.2075 -0.2629
 5553TIP3   OH238149   0.873   1.561   1.401  0.2291  0.1851  0.1704
 5553TIP3    H138150   0.831   1.506   1.467 -1.7915 -0.7019 -1.7861
 5553TIP3    H238151   0.833   1.534   1.318  0.8546  3.0316 -1.1259
 5554TIP3   OH238152   0.082   3.019  14.947 -0.1197 -0.7024  0.1339
 5554TIP3    H138153   0.166   3.009  14.992  0.2723  2.4319  0.1411
 5554TIP3    H238154   0.020   2.971  15.003  1.3898 -1.9223  0.8169
 5555TIP3   OH238155   3.323   0.025   6.669 -0.4160 -0.4850  0.1589
 5555TIP3    H138156   3.272  -0.001   6.746 -0.7142 -1.0983 -0.2463
 5555TIP3    H238157   3.263   0.078   6.617 -0.1435  0.1204  0.4561
 5556TIP3   OH238158   4.308   2.491  12.886 -0.3266 -0.6983  0.0688
 5556TIP3    H138159   4.228   2.460  12.928 -0.9790 -0.3150 -0.8798
 5556TIP3    H238160   4.318   2.436  12.809 -0.0907 -0.2347 -0.2323
 5557TIP3   OH238161   4.762   1.408  14.214 -0.5007  0.5342 -0.7439
 5557TIP3    H138162   4.682   1.456  14.237 -0.3707  0.2947  0.2261
 5557TIP3    H238163   4.777   1.430  14.122 -3.4909 -2.0207 -1.9046
 5558TIP3   OH238164   4.332   0.036   5.697  0.5408 -0.7201  0.0448
 5558TIP3    H138165   4.256   0.094   5.701  1.3106  0.3077 -0.2155
 5558TIP3    H238166   4.396   0.083   5.643  0.7303 -2.3278 -1.1626
 5559TIP3   OH238167   0.351   4.248  15.133 -0.2748  0.7973 -0.1843
 5559TIP3    H138168   0.415   4.296  15.080  0.2738  0.2928  0.0141
 5559TIP3    H238169   0.402   4.213  15.206 -1.1033  1.8179  0.8937
 5560TIP3   OH238170   3.113   5.589  16.253 -0.0535  0.2941 -0.7357
 5560TIP3    H138171   3.018   5.585  16.237 -0.1160  1.2759 -0.6558
 5560TIP3    H238172   3.125   5.669  16.304  0.7648 -0.0958 -0.3231
 5561TIP3   OH238173   4.161   5.512  12.392 -0.0108  0.2979  0.8525
 5561TIP3    H138174   4.102   5.580  12.357 -0.2748  0.3029  1.2923
 5561TIP3    H238175   4.216   5.487  12.319 -0.7043  0.1507  0.3790
 5562TIP3   OH238176   1.825   5.409  15.635  0.0191  0.0851 -0.2217
 5562TIP3    H138177   1.764   5.336  15.643 -0.3712  0.4570  0.2221
 5562TIP3    H238178   1.823   5.432  15.542  0.2381 -0.5431 -0.3851
 5563TIP3   OH238179   2.494   5.587   1.455 -0.2348 -0.1280 -0.5088
 5563TIP3    H138180   2.570   5.603   1.511  0.8684 -0.2624 -1.9309
 5563TIP3    H238181   2.523   5.518   1.395 -1.3370  0.1420 -1.3582
 5564TIP3   OH238182   1.784   6.384   3.097 -0.3435 -0.8053  0.0898
 5564TIP3    H138183   1.801   6.373   3.004 -1.3547  0.4877 -0.2578
 5564TIP3    H238184   1.689   6.393   3.103 -0.1294  1.1418  1.0184
 5565TIP3   OH238185   6.016   5.640   4.294 -0.3912 -0.1801 -0.2996
 5565TIP3    H138186   5.966   5.558   4.287 -0.2386 -0.2698 -0.3352
 5565TIP3    H238187   5.959   5.698   4.345  0.4168 -1.0345  1.6438
 5566TIP3   OH238188   4.670   3.597   2.407  0.7113  0.3225 -1.0760
 5566TIP3    H138189   4.598   3.540   2.436 -0.5487  1.8344 -1.1609
 5566TIP3    H238190   4.732   3.595   2.480  0.5312 -0.8912 -0.9409
 5567TIP3   OH238191   3.615   2.111   2.264  0.4315 -0.2057 -0.2867
 5567TIP3    H138192   3.627   2.205   2.251  0.6737 -0.2723 -0.5358
 5567TIP3    H238193   3.700   2.072   2.245  0.4918 -0.4191  0.3892
 5568TIP3   OH238194   1.982   0.014   3.809 -0.0789 -0.2742  0.6712
 5568TIP3    H138195   1.939   0.024   3.894 -1.6985 -2.3189  0.1350
 5568TIP3    H238196   1.930  -0.053   3.763  0.4018  1.2191 -2.1614
 5569TIP3   OH238197   0.670   1.057  13.467  0.6867 -0.4705  0.1307
 5569TIP3    H138198   0.742   1.004  13.503  0.9458  0.0732  0.4292
 5569TIP3    H238199   0.638   1.006  13.393  0.2157 -1.5706  1.0632
 5570TIP3   OH238200   4.760   3.460   2.911  0.3938  0.6197 -0.4187
 5570TIP3    H138201   4.671   3.428   2.898  0.4643 -0.0712  0.7529
 5570TIP3    H238202   4.787   3.422   2.994  1.0187  2.5100  0.2734
 5571TIP3   OH238203   5.685   5.247  10.974 -0.0263 -0.4377 -0.1159
 5571TIP3    H138204   5.745   5.310  11.015  0.0254 -0.9568  0.6314
 5571TIP3    H238205   5.675   5.278  10.884 -0.2849  0.8298  0.3443
 5572TIP3   OH238206   1.108   3.742  12.466 -1.0636 -0.0950  0.6668
 5572TIP3    H138207   1.094   3.806  12.537  0.8400  0.3402  0.6696
 5572TIP3    H238208   1.131   3.661  12.511  2.8233  0.8475  0.5569
 5573TIP3   OH238209   4.414   1.860   2.935  0.5308 -0.0423  0.2729
 5573TIP3    H138210   4.376   1.943   2.908  2.6268  1.4664  1.7701
 5573TIP3    H238211   4.486   1.884   2.994  1.8168 -2.8748 -0.0302
 5574TIP3   OH238212   1.980   4.483   5.914  0.6355 -0.1265 -0.7646
 5574TIP3    H138213   2.045   4.542   5.875 -0.0642  1.1446 -0.0394
 5574TIP3    H238214   2.032   4.414   5.955  1.4249 -0.6862 -2.6800
 5575TIP3   OH238215   2.650   6.682   2.496  0.3535  0.2950 -0.1327
 5575TIP3    H138216   2.621   6.701   2.407 -1.6205 -1.5593  0.0799
 5575TIP3    H238217   2.739   6.648   2.486  0.7865  1.7109 -1.2280
 5576TIP3   OH238218   0.451   1.588  14.754  0.0484 -0.1380  0.3861
 5576TIP3    H138219   0.358   1.581  14.735 -0.0035 -0.7123  0.8220
 5576TIP3    H238220   0.480   1.497  14.764  1.0344 -0.0654 -1.5520
 5577TIP3   OH238221   6.487   0.030   3.263  0.2616  0.3918 -0.8273
 5577TIP3    H138222   6.556  -0.031   3.235 -0.1156 -0.3042 -0.2769
 5577TIP3    H238223   6.526   0.117   3.253  0.8451  0.0508 -1.5258
 5578TIP3   OH238224   5.437   3.245  13.646  0.4271 -0.5368 -0.4289
 5578TIP3    H138225   5.482   3.316  13.600 -1.1450  1.4074  0.9412
 5578TIP3    H238226   5.359   3.228  13.592 -0.3933  0.3975  0.4336
 5579TIP3   OH238227   6.815   2.159  12.814 -0.4905  0.0717 -0.1587
 5579TIP3    H138228   6.824   2.209  12.895  0.8039 -0.9442  0.3246
 5579TIP3    H238229   6.892   2.183  12.762 -1.0571  0.3329 -0.9000
 5580TIP3   OH238230   4.208   0.168  14.959  0.2594 -0.4959  0.4700
 5580TIP3    H138231   4.153   0.234  14.918  1.3145 -0.7269 -1.4042
 5580TIP3    H238232   4.161   0.085  14.947  0.6305 -0.5827 -0.4406
 5581TIP3   OH238233   5.980   2.013   3.884 -0.4115 -0.0959 -0.1963
 5581TIP3    H138234   5.973   2.109   3.890 -1.7747 -0.1165 -1.2244
 5581TIP3    H238235   5.922   1.990   3.812 -0.7401 -1.7947  0.6023
 5582TIP3   OH238236   0.272   1.008   2.751 -0.1138  0.0888  0.0517
 5582TIP3    H138237   0.313   1.041   2.832 -1.0504 -1.4913  1.1956
 5582TIP3    H238238   0.342   0.958   2.709 -0.0983 -0.4523  0.7065
 5583TIP3   OH238239   1.900   4.434   4.339 -0.4371 -0.2344  0.4531
 5583TIP3    H138240   1.962   4.430   4.411  0.6651  0.9532 -0.3935
 5583TIP3    H238241   1.842   4.507   4.361 -1.5796 -1.3721  1.2659
 5584TIP3   OH238242   2.861   0.379   5.167 -0.2969  0.2571 -0.2005
 5584TIP3    H138243   2.890   0.399   5.078 -1.5040 -1.8905 -1.1172
 5584TIP3    H238244   2.855   0.283   5.170 -0.2286  0.2791  2.2141
 5585TIP3   OH238245   1.541   1.086   5.371 -0.3588  0.8225 -0.0174
 5585TIP3    H138246   1.560   1.076   5.277 -0.6683  0.6432 -0.0630
 5585TIP3    H238247   1.586   1.166   5.396 -0.1702  0.8053 -0.2929
 5586TIP3   OH238248   4.395   5.247  15.515 -0.0560 -0.1193 -0.4435
 5586TIP3    H138249   4.445   5.255  15.595 -1.4046  2.0719  0.2205
 5586TIP3    H238250   4.306   5.227  15.544 -0.2889 -0.5501 -1.4376
 5587TIP3   OH238251   5.825   3.760   1.985  0.1608 -0.2290  0.0092
 5587TIP3    H138252   5.846   3.786   1.895 -0.3688 -1.1565 -0.3950
 5587TIP3    H238253   5.909   3.764   2.031  0.6003 -0.5825 -0.7412
 5588TIP3   OH238254   0.249   4.332   3.392 -0.0315 -0.2288  0.3875
 5588TIP3    H138255   0.308   4.400   3.425  1.4791 -0.3098 -2.1131
 5588TIP3    H238256   0.173   4.381   3.358  1.2970  0.2799 -1.9180
 5589TIP3   OH238257   5.214   5.492   3.785  0.3566 -0.1155 -0.0606
 5589TIP3    H138258   5.219   5.508   3.879  0.9774 -0.4923 -0.0268
 5589TIP3    H238259   5.261   5.411   3.772 -0.4756 -0.5256 -0.5888
 5590TIP3   OH238260   0.253   4.318   4.313 -0.5368  0.4383 -0.1308
 5590TIP3    H138261   0.268   4.293   4.404  0.1854  1.5610  0.0759
 5590TIP3    H238262   0.169   4.279   4.290 -0.1932 -0.7922  0.6658
 5591TIP3   OH238263   0.646   2.270  13.007  0.3023  0.2441  0.4648
 5591TIP3    H138264   0.699   2.205  13.054  0.1064 -0.9463 -0.9149
 5591TIP3    H238265   0.657   2.247  12.915 -1.4003  0.9424  0.0710
 5592TIP3   OH238266   3.651   6.274  14.928  0.3295  0.0048  0.4687
 5592TIP3    H138267   3.581   6.295  14.866 -0.1037 -2.1229  0.1763
 5592TIP3    H238268   3.724   6.331  14.903 -0.8615  1.3235 -0.0556
 5593TIP3   OH238269   0.018   4.672   6.039  0.7624  0.1844  0.9468
 5593TIP3    H138270  -0.031   4.590   6.048  1.9414 -0.7396 -0.7580
 5593TIP3    H238271  -0.019   4.714   5.961  1.2962  0.4588  0.8400
 5594TIP3   OH238272   6.120   1.150   2.130  0.5784 -0.1938 -0.2043
 5594TIP3    H138273   6.026   1.166   2.140  0.6005 -0.4861  0.5348
 5594TIP3    H238274   6.162   1.230   2.164  0.6045 -0.1747 -0.2807
 5595TIP3   OH238275   4.942   1.086   6.063 -0.2107 -0.6212 -0.4367
 5595TIP3    H138276   5.018   1.121   6.109 -0.6809 -1.3974  0.9377
 5595TIP3    H238277   4.969   1.085   5.971  1.3171 -0.5715 -0.0109
 5596TIP3   OH238278   2.273   2.122   5.875 -0.0051  0.0950 -0.1493
 5596TIP3    H138279   2.325   2.056   5.827 -0.3889  0.4398 -1.0467
 5596TIP3    H238280   2.192   2.130   5.825  0.5464  2.1637 -0.7725
 5597TIP3   OH238281   4.514   6.493   5.707 -1.0993  0.1971  0.4416
 5597TIP3    H138282   4.497   6.438   5.630  1.3007  0.2794 -0.1801
 5597TIP3    H238283   4.522   6.432   5.779  0.8210 -0.2294 -0.1181
 5598TIP3   OH238284   6.035   2.994  17.012 -0.0514 -0.5575  0.7526
 5598TIP3    H138285   6.046   3.067  17.074 -0.4687  1.2360 -1.2342
 5598TIP3    H238286   6.120   2.985  16.970 -0.1304 -0.9519  0.6732
 5599TIP3   OH238287   0.114   1.862   3.292 -0.2039  0.2417  0.3441
 5599TIP3    H138288   0.161   1.780   3.281  2.3147  1.4212  1.9019
 5599TIP3    H238289   0.163   1.925   3.240 -1.7270  0.9299 -0.2946
 5600TIP3   OH238290   3.692   2.978  16.831 -0.1102 -0.0919 -0.3962
 5600TIP3    H138291   3.772   2.982  16.883 -0.3608 -1.0254  0.0710
 5600TIP3    H238292   3.654   3.065  16.839 -0.0396 -0.1674  0.8137
 5601TIP3   OH238293   6.052   5.795   2.654 -0.6652 -0.3634  0.1876
 5601TIP3    H138294   6.116   5.862   2.632 -0.6777 -0.8809 -1.5142
 5601TIP3    H238295   6.050   5.794   2.750  0.1466  1.2719  0.2360
 5602TIP3   OH238296   0.673   5.401   3.789  0.2086 -0.1874  0.0959
 5602TIP3    H138297   0.742   5.358   3.839  0.9984 -0.9768 -1.6585
 5602TIP3    H238298   0.710   5.486   3.765  0.2418 -0.2549 -0.0932
 5603TIP3   OH238299   3.256   0.935  15.936  0.4465 -0.3206  0.2079
 5603TIP3    H138300   3.162   0.925  15.921  0.6552  0.7080 -1.8270
 5603TIP3    H238301   3.263   1.008  15.998  0.0214  1.2278 -1.5556
 5604TIP3   OH238302   3.881   3.593  12.146  0.4324 -0.7097  0.2937
 5604TIP3    H138303   3.948   3.565  12.083 -0.8444 -1.3686 -0.7763
 5604TIP3    H238304   3.866   3.516  12.201  0.7017 -0.4954  0.6695
 5605TIP3   OH238305   5.910   5.057  12.443  0.3803  0.4700  0.1833
 5605TIP3    H138306   5.956   5.060  12.527  2.1921  0.3410 -0.7785
 5605TIP3    H238307   5.896   4.963  12.427 -2.8336  0.5901  1.8197
 5606TIP3   OH238308   1.760   0.363   4.376  0.1812  0.1605  0.5684
 5606TIP3    H138309   1.757   0.289   4.437 -0.1522  1.4677  2.1684
 5606TIP3    H238310   1.831   0.418   4.409 -0.3988  1.1835  0.1261
 5607TIP3   OH238311   1.354   4.412  16.685 -0.2250  0.3501 -0.0035
 5607TIP3    H138312   1.379   4.503  16.668 -0.9028  0.2528 -1.5923
 5607TIP3    H238313   1.258   4.413  16.686 -0.2475 -0.4340 -0.6090
 5608TIP3   OH238314   2.506   6.223  13.707 -0.1677  0.6464  0.1444
 5608TIP3    H138315   2.436   6.287  13.691 -0.7805 -0.4865 -1.9419
 5608TIP3    H238316   2.464   6.152  13.756 -0.0256  0.8053  0.4985
 5609TIP3   OH238317   6.753   1.606   5.355  0.5799 -0.1544 -0.2633
 5609TIP3    H138318   6.843   1.618   5.385  0.1970  1.0341  0.4614
 5609TIP3    H238319   6.715   1.542   5.415  0.3723  0.8117  0.6469
 5610TIP3   OH238320   0.387   5.184  14.660  0.2061  0.1249  0.2296
 5610TIP3    H138321   0.433   5.142  14.588 -0.1359  0.0747  0.0372
 5610TIP3    H238322   0.329   5.116  14.694 -0.7456  0.5871 -0.4325
 5611TIP3   OH238323   0.815   3.470  13.289 -0.4112  0.0587 -0.9519
 5611TIP3    H138324   0.892   3.484  13.234 -0.8957 -0.5819 -1.8175
 5611TIP3    H238325   0.808   3.374  13.297 -0.3035  0.1421  0.2926
 5612TIP3   OH238326   0.192   5.687   0.126 -0.7015 -0.2360  0.2250
 5612TIP3    H138327   0.224   5.718   0.210  0.7042  1.7608 -0.9940
 5612TIP3    H238328   0.097   5.689   0.134 -0.5768 -0.9053  2.0489
 5613TIP3   OH238329   0.752   1.553   4.555  0.6305  0.4835 -0.7582
 5613TIP3    H138330   0.689   1.618   4.524  0.2274  0.0655 -0.8330
 5613TIP3    H238331   0.785   1.588   4.637 -0.8972 -0.0440  0.1003
 5614TIP3   OH238332   3.380   5.384   2.206  0.0061  0.0729 -0.0162
 5614TIP3    H138333   3.349   5.466   2.245  0.4605  0.3778 -0.2990
 5614TIP3    H238334   3.441   5.411   2.138 -1.7758 -0.4100 -1.8724
 5615TIP3   OH238335   2.369   0.601  11.603 -0.2460  0.1050 -0.2854
 5615TIP3    H138336   2.426   0.525  11.611  0.1812  0.8177  5.2768
 5615TIP3    H238337   2.429   0.675  11.593 -0.3317  0.4482  1.6629
 5616TIP3   OH238338   1.855   4.206   4.178 -0.1623  0.1657  0.0369
 5616TIP3    H138339   1.889   4.265   4.111  0.1568 -0.1306 -0.0653
 5616TIP3    H238340   1.854   4.258   4.258 -1.6340  0.8686 -0.4318
 5617TIP3   OH238341   6.410   4.538  12.515  0.0191 -0.3934 -0.1001
 5617TIP3    H138342   6.428   4.581  12.431  0.6247 -1.2106 -0.3962
 5617TIP3    H238343   6.353   4.465  12.493  0.9063 -1.1450  0.0718
 5618TIP3   OH238344   5.228   5.654  12.644 -0.4546 -0.3969 -0.1090
 5618TIP3    H138345   5.281   5.641  12.722 -0.6966 -2.0632 -0.2134
 5618TIP3    H238346   5.239   5.747  12.623 -0.4882  0.1078  1.9636
 5619TIP3   OH238347   6.392   6.519  17.036  0.2871  0.0940 -0.1655
 5619TIP3    H138348   6.375   6.531  16.943 -2.1944 -0.7368  0.1510
 5619TIP3    H238349   6.314   6.552  17.080  1.7016  1.1028  1.6823
 5620TIP3   OH238350   4.190   0.146  16.320 -0.1114 -0.2727  0.4819
 5620TIP3    H138351   4.207   0.144  16.414 -1.0082  0.4895  0.6568
 5620TIP3    H238352   4.204   0.237  16.295 -1.1335 -0.2185  0.1025
 5621TIP3   OH238353   3.639   2.298   0.519  0.1950 -0.0916 -0.1630
 5621TIP3    H138354   3.619   2.379   0.472  0.0916  0.4515  0.8032
 5621TIP3    H238355   3.684   2.327   0.599 -0.4235 -0.9514  0.5087
 5622TIP3   OH238356   3.749   5.670   2.408  0.4269  0.6617  0.1312
 5622TIP3    H138357   3.711   5.671   2.320  0.6517  0.5885  0.0325
 5622TIP3    H238358   3.752   5.762   2.434  0.0309  0.6529  0.2044
 5623TIP3   OH238359   1.266   2.665   5.052 -0.7840 -0.1904 -0.5938
 5623TIP3    H138360   1.287   2.698   5.139  2.0396 -0.3792 -1.1553
 5623TIP3    H238361   1.241   2.573   5.066  1.7987 -0.8821 -0.1518
 5624TIP3   OH238362   4.415   6.131  13.955 -0.5416 -0.6967 -0.2920
 5624TIP3    H138363   4.473   6.063  13.987  0.9618  0.8870  0.4380
 5624TIP3    H238364   4.364   6.158  14.032  2.3386  2.3796  0.6571
 5625TIP3   OH238365   4.729   1.218   6.145  0.4999 -0.4884 -0.6569
 5625TIP3    H138366   4.771   1.200   6.229 -0.1681  0.5999 -0.0745
 5625TIP3    H238367   4.781   1.169   6.081  1.1822 -1.1034  0.3519
 5626TIP3   OH238368   6.280   2.133  16.059 -0.0545  0.4101 -0.4513
 5626TIP3    H138369   6.325   2.117  16.142  1.0727  0.1852 -1.0963
 5626TIP3    H238370   6.248   2.223  16.066  0.5160  0.5787  0.0072
 5627TIP3   OH238371   3.546   4.881  14.977  0.6446  0.3696  0.0168
 5627TIP3    H138372   3.512   4.796  14.949  0.5689  0.5520 -0.4467
 5627TIP3    H238373   3.533   4.882  15.072 -0.4507  0.3514 -0.1300
 5628TIP3   OH238374   2.829   1.916  15.994  0.1362 -0.5306 -0.4382
 5628TIP3    H138375   2.880   1.836  16.007 -0.0070 -0.6122 -0.3753
 5628TIP3    H238376   2.875   1.982  16.045  0.0041 -0.6763 -0.1294
 5629TIP3   OH238377   0.837   0.788  15.286 -0.2052 -0.0484 -0.2963
 5629TIP3    H138378   0.806   0.811  15.374  1.4679  1.3625 -0.0348
 5629TIP3    H238379   0.910   0.728  15.302 -0.4423 -0.4561 -0.7510
 5630TIP3   OH238380   6.686   1.656  12.864 -0.4215 -0.4999 -1.2687
 5630TIP3    H138381   6.702   1.747  12.888 -2.0923 -0.7309  0.8638
 5630TIP3    H238382   6.687   1.656  12.768  2.1342  1.2599 -1.2789
 5631TIP3   OH238383   6.728   4.173   1.004  0.0882  0.1529  0.6068
 5631TIP3    H138384   6.688   4.224   1.074  0.4458  1.7969 -0.3640
 5631TIP3    H238385   6.668   4.183   0.930  0.8524  0.2789  0.0043
 5632TIP3   OH238386   3.105   2.424  14.196 -0.2281  0.1228  0.4509
 5632TIP3    H138387   3.148   2.386  14.273 -0.1340 -2.6306 -0.8910
 5632TIP3    H238388   3.166   2.491  14.166  1.3318 -1.0908  0.8321
 5633TIP3   OH238389   4.386   5.408   1.782  0.5552 -0.1389  0.5733
 5633TIP3    H138390   4.379   5.443   1.871  0.6747 -0.4448  0.7038
 5633TIP3    H238391   4.331   5.330   1.782 -1.5380  1.2782 -0.3519
 5634TIP3   OH238392   5.697   3.718  15.039  0.1697 -1.3807  0.0871
 5634TIP3    H138393   5.637   3.716  15.114 -0.5951 -0.9443 -0.5051
 5634TIP3    H238394   5.783   3.731  15.078 -0.2498 -0.9557  0.8873
 5635TIP3   OH238395   5.555   5.416   1.074 -0.1123 -0.5622 -0.2535
 5635TIP3    H138396   5.514   5.330   1.081  1.7352 -1.5757 -1.4986
 5635TIP3    H238397   5.641   5.405   1.113  0.8704  0.1821 -2.1291
 5636TIP3   OH238398   4.002   1.454   4.378 -0.1477 -0.0681 -0.1355
 5636TIP3    H138399   4.008   1.433   4.472  3.3098  1.2506 -0.0053
 5636TIP3    H238400   4.041   1.541   4.370 -0.3622 -0.1772 -2.8460
 5637TIP3   OH238401   5.092   6.396  16.794 -0.0202  0.3404 -0.2754
 5637TIP3    H138402   5.077   6.391  16.700 -0.2346  1.2170 -0.2900
 5637TIP3    H238403   5.106   6.489  16.811  1.3144  0.0370  0.3581
 5638TIP3   OH238404   2.788   0.419   0.568  0.0783  0.1674  0.6892
 5638TIP3    H138405   2.803   0.336   0.523  0.6856  0.4820  0.3158
 5638TIP3    H238406   2.696   0.414   0.596  0.2775 -0.8813  1.1985
 5639TIP3   OH238407   1.399   2.336   3.175 -0.4445  0.0950  0.1274
 5639TIP3    H138408   1.373   2.364   3.087  0.7404 -0.7173 -0.5063
 5639TIP3    H238409   1.476   2.389   3.195  1.4725 -2.1958 -0.8482
 5640TIP3   OH238410   1.314   1.669   1.473  0.8441  0.6411 -0.1212
 5640TIP3    H138411   1.259   1.605   1.426  1.4851 -0.5708  0.7632
 5640TIP3    H238412   1.303   1.750   1.423 -0.0748 -0.1194 -1.1984
 5641TIP3   OH238413   0.562   0.417   4.170  0.6887  0.0309  0.1725
 5641TIP3    H138414   0.543   0.468   4.249  1.3172 -0.0237  0.3642
 5641TIP3    H238415   0.564   0.326   4.200 -1.2978 -0.1950 -0.3355
 5642TIP3   OH238416   2.954   5.199  14.058  0.0520 -0.2617  0.8654
 5642TIP3    H138417   2.889   5.244  14.111 -0.6713 -0.2986  0.0176
 5642TIP3    H238418   2.929   5.107  14.061 -0.5903 -0.1364 -0.3650
 5643TIP3   OH238419   0.224   4.113   1.992  0.0785  0.6357 -0.3279
 5643TIP3    H138420   0.133   4.132   1.971 -0.2623  1.3139  1.5813
 5643TIP3    H238421   0.272   4.190   1.961 -0.3483  1.4127  0.8826
 5644TIP3   OH238422   5.449   0.538   1.761  0.4166 -0.3223  0.6827
 5644TIP3    H138423   5.510   0.464   1.757 -0.1278 -0.7868  0.9757
 5644TIP3    H238424   5.396   0.530   1.682  0.3858 -0.2192  0.6929
 5645TIP3   OH238425   1.581   4.663   5.043 -0.2757  0.2175 -0.3925
 5645TIP3    H138426   1.522   4.644   4.971  0.4207 -1.0637 -0.6423
 5645TIP3    H238427   1.661   4.697   5.001  0.1778 -0.6470 -0.2394
 5646TIP3   OH238428   6.067   4.768   2.260  0.4000  0.8431 -0.5045
 5646TIP3    H138429   6.047   4.838   2.197  1.6096  0.5476 -1.2296
 5646TIP3    H238430   6.136   4.717   2.218 -0.6266 -0.9264 -0.0694
 5647TIP3   OH238431   2.125   2.457   2.919  0.0059 -0.1875  0.3585
 5647TIP3    H138432   2.070   2.528   2.887  0.3193 -0.4258 -0.7422
 5647TIP3    H238433   2.100   2.382   2.865  1.2204 -0.3571  0.0303
 5648TIP3   OH238434   4.137   2.997  11.410  0.2885  0.8597  0.2677
 5648TIP3    H138435   4.232   3.008  11.418  0.3057  0.4554  0.6150
 5648TIP3    H238436   4.101   3.048  11.483  0.2549  0.7207  0.3479
 5649TIP3   OH238437   4.195   5.776  12.244  0.2475 -0.8337 -0.7879
 5649TIP3    H138438   4.200   5.840  12.173 -0.0750 -0.3954 -0.4236
 5649TIP3    H238439   4.280   5.733  12.244  1.1616  0.9191  0.1774
 5650TIP3   OH238440   2.190   0.370  15.220  0.5952  0.1600  0.7249
 5650TIP3    H138441   2.278   0.402  15.198  0.7332 -1.1805 -0.8013
 5650TIP3    H238442   2.131   0.436  15.184  0.9494  0.3677  0.5198
 5651TIP3   OH238443   2.199   1.085   3.926 -0.1334  0.0047  0.4021
 5651TIP3    H138444   2.134   1.153   3.941  0.7274  0.7505  0.7710
 5651TIP3    H238445   2.283   1.130   3.932  0.3751 -0.4593 -2.5479
 5652TIP3   OH238446   5.738   1.583   3.754 -0.3124  0.0010  0.2404
 5652TIP3    H138447   5.830   1.606   3.743  0.2121 -0.7216  2.9052
 5652TIP3    H238448   5.707   1.641   3.823 -1.8562  0.2181 -0.6254
 5653TIP3   OH238449   4.353   4.160  15.449  0.2043 -0.1547 -0.3438
 5653TIP3    H138450   4.392   4.225  15.390  0.1366 -0.9737 -1.2996
 5653TIP3    H238451   4.428   4.128  15.500 -0.0828  2.2025  1.6611
 5654TIP3   OH238452   6.624   6.029  15.948 -0.2321  0.6087  0.0614
 5654TIP3    H138453   6.682   5.989  15.882 -1.8466 -1.0995 -0.3675
 5654TIP3    H238454   6.580   6.099  15.901  0.3651  0.9279 -0.0298
 5655TIP3   OH238455   2.222   4.921  12.367 -0.6128  0.2674  0.4072
 5655TIP3    H138456   2.225   4.919  12.462  0.1560 -1.4405  0.3620
 5655TIP3    H238457   2.134   4.952  12.346 -1.8755 -2.3044  1.6726
 5656TIP3   OH238458   6.036   4.060  10.693 -0.0117 -0.4634  0.2366
 5656TIP3    H138459   6.083   4.033  10.771  1.9374  0.4369 -0.5818
 5656TIP3    H238460   6.104   4.098  10.636 -1.3197 -1.4206 -2.0328
 5657TIP3   OH238461   4.003   0.189  14.560  0.2119 -0.0673  0.0131
 5657TIP3    H138462   3.915   0.157  14.579 -0.7447  0.5200 -3.2244
 5657TIP3    H238463   4.049   0.114  14.525  0.0413  0.3920 -1.2078
 5658TIP3   OH238464   2.473   5.044  12.457  0.4384  0.2240 -0.4809
 5658TIP3    H138465   2.533   5.003  12.395 -0.5704  1.8771 -2.6450
 5658TIP3    H238466   2.386   5.025  12.422 -0.1218  1.9334 -0.0948
 5659TIP3   OH238467   1.092   1.864  13.057  0.0316 -0.5922  0.3043
 5659TIP3    H138468   1.093   1.770  13.038  0.8739 -0.8036  1.3504
 5659TIP3    H238469   1.183   1.891  13.049  0.2140 -0.4112  2.6175
 5660TIP3   OH238470   2.159   0.080  15.826  0.0510  0.4318  0.3051
 5660TIP3    H138471   2.250   0.097  15.804  0.8538 -0.2333  2.9946
 5660TIP3    H238472   2.124   0.166  15.851  0.9508  0.1495  2.6949
 5661TIP3   OH238473   0.105   6.542  16.170  0.7535 -0.0495  0.2105
 5661TIP3    H138474   0.096   6.548  16.265  2.2501  0.4329  0.3283
 5661TIP3    H238475   0.014   6.542  16.138  0.2073 -1.0314  1.6710
 5662TIP3   OH238476   6.685   5.566   5.098 -0.1447  0.6434  0.3435
 5662TIP3    H138477   6.713   5.508   5.028 -0.4537 -0.6030  1.2348
 5662TIP3    H238478   6.639   5.509   5.160 -1.9824  2.1320  0.4025
 5663TIP3   OH238479   1.693   1.962   0.508 -0.1542 -0.0807 -0.1374
 5663TIP3    H138480   1.599   1.950   0.491 -0.1843  0.5329 -0.4133
 5663TIP3    H238481   1.696   2.034   0.571  0.1330 -0.0920 -0.1410
 5664TIP3   OH238482   3.621   5.355  15.986 -0.0466  0.0920 -0.1148
 5664TIP3    H138483   3.714   5.338  15.995 -0.0811  0.3489  0.8043
 5664TIP3    H238484   3.606   5.434  16.038 -0.4496  1.1056 -1.7056
 5665TIP3   OH238485   4.106   6.569  15.325  0.5105  0.5026  0.1394
 5665TIP3    H138486   4.043   6.575  15.397  1.0085  2.3049  0.4519
 5665TIP3    H238487   4.070   6.624  15.256  0.7091 -0.1386 -0.4881
 5666TIP3   OH238488   5.945   3.067   1.597  0.0429 -0.1983 -0.3635
 5666TIP3    H138489   5.905   3.153   1.611 -1.6065 -1.0898  0.6425
 5666TIP3    H238490   6.022   3.067   1.654  1.2260  1.3633 -1.9353
 5667TIP3   OH238491   0.998   5.370   5.760  0.4301  0.2844  0.5212
 5667TIP3    H138492   1.026   5.455   5.727  0.6069 -0.7239 -2.0553
 5667TIP3    H238493   0.928   5.343   5.700  0.8434 -1.6820  0.8968
 5668TIP3   OH238494   4.622   0.796   1.250  0.6382 -0.3124  0.2149
 5668TIP3    H138495   4.664   0.860   1.193 -0.3978 -0.9823 -1.3393
 5668TIP3    H238496   4.694   0.746   1.288  1.3854  0.8739  0.3738
 5669TIP3   OH238497   2.033   3.865   3.619  0.4180 -0.3014 -0.5879
 5669TIP3    H138498   1.989   3.804   3.678  1.3629  0.0325  0.4872
 5669TIP3    H238499   1.994   3.848   3.533 -1.4624 -0.3093  0.2508
 5670TIP3   OH238500   2.208   6.082   2.799  0.1403 -0.1414 -0.1445
 5670TIP3    H138501   2.153   6.141   2.850  0.4989 -0.0409  0.1257
 5670TIP3    H238502   2.168   6.082   2.712  0.3842  0.8287 -0.2589
 5671TIP3   OH238503   0.887   6.117  12.242  0.4672  0.4089 -0.4054
 5671TIP3    H138504   0.858   6.060  12.313  1.3786 -0.2781 -0.5860
 5671TIP3    H238505   0.890   6.060  12.165  1.7170  0.6086 -0.5113
 5672TIP3   OH238506   2.965   0.115   2.854  0.1110 -0.9119  0.4333
 5672TIP3    H138507   2.944   0.129   2.761  1.8615 -3.1976 -0.3696
 5672TIP3    H238508   2.886   0.143   2.901 -1.1024 -0.4605 -1.7837
 5673TIP3   OH238509   2.323   3.178   5.918 -0.5626 -0.0222  0.2126
 5673TIP3    H138510   2.357   3.089   5.915  0.5989  0.4669 -2.5405
 5673TIP3    H238511   2.315   3.204   5.826  0.0053  3.0462  0.9774
 5674TIP3   OH238512   5.240   6.387   0.568  0.2627 -0.9812 -0.0612
 5674TIP3    H138513   5.193   6.307   0.593 -1.1788 -0.1601 -0.0507
 5674TIP3    H238514   5.226   6.395   0.474 -0.9390  0.0637  0.1802
 5675TIP3   OH238515   5.424   6.604  12.126  0.4943  0.1384  0.1484
 5675TIP3    H138516   5.377   6.528  12.092  1.1700 -1.2365  2.1552
 5675TIP3    H238517   5.397   6.677  12.071  1.1991 -1.8919 -3.0007
 5676TIP3   OH238518   5.337   3.695  16.415  0.0094  0.2837 -0.2064
 5676TIP3    H138519   5.247   3.700  16.445 -0.1331  2.3629 -0.9318
 5676TIP3    H238520   5.384   3.759  16.468  0.3899  1.6141 -2.1131
 5677TIP3   OH238521   5.317   0.688  12.295  0.5718 -0.2090  0.1015
 5677TIP3    H138522   5.389   0.678  12.357  0.8671  3.1258  0.3930
 5677TIP3    H238523   5.361   0.696  12.210  0.3730 -1.0803 -0.0846
 5678TIP3   OH238524   6.212   6.329  13.464 -0.0714  0.1030 -0.0503
 5678TIP3    H138525   6.254   6.251  13.429  2.0777  1.3993 -0.4871
 5678TIP3    H238526   6.231   6.326  13.558 -0.9366 -0.4731  0.1008
 5679TIP3   OH238527   6.102   3.683  16.222  0.5172  0.1059  0.1165
 5679TIP3    H138528   6.021   3.657  16.178  0.2591  1.2831 -0.1289
 5679TIP3    H238529   6.076   3.756  16.279  1.0450 -0.7419  1.4679
 5680TIP3   OH238530   5.977   2.830  12.406 -0.0173 -0.2895  0.3047
 5680TIP3    H138531   5.899   2.796  12.449  1.6293 -2.7470  1.4489
 5680TIP3    H238532   6.016   2.889  12.471 -0.2656  0.0045  0.1900
 5681TIP3   OH238533   3.185   5.861  14.959 -0.3385  0.2683 -0.3868
 5681TIP3    H138534   3.237   5.848  14.879  0.9094 -0.5342  0.5515
 5681TIP3    H238535   3.232   5.927  15.008 -0.8397  0.3943 -0.0751
 5682TIP3   OH238536   2.860   0.690   5.881  0.3480  0.1621 -0.5678
 5682TIP3    H138537   2.871   0.772   5.832  2.2678  0.4627  0.2986
 5682TIP3    H238538   2.929   0.632   5.846  0.1077 -0.4868  0.0196
 5683TIP3   OH238539   3.365   0.562   6.289  1.0690  0.0459  0.2742
 5683TIP3    H138540   3.444   0.508   6.296  1.1084  0.1836  0.8825
 5683TIP3    H238541   3.305   0.526   6.353  0.4681 -0.3331 -0.4976
 5684TIP3   OH238542   1.849   2.685  15.947 -0.0279  0.2488 -0.7505
 5684TIP3    H138543   1.870   2.746  15.877 -0.0031  1.4680  0.2963
 5684TIP3    H238544   1.753   2.687  15.953 -0.2306 -2.1542 -2.7502
 5685TIP3   OH238545   3.427   5.757  12.457  0.6344  0.7846 -0.5873
 5685TIP3    H138546   3.502   5.817  12.457  0.4176  1.0929  1.3641
 5685TIP3    H238547   3.419   5.729  12.366  3.3578  0.4332 -0.7496
 5686TIP3   OH238548   4.976   5.336  11.889  0.6866  0.2283  0.1593
 5686TIP3    H138549   4.977   5.345  11.794 -1.2767  0.1874  0.1198
 5686TIP3    H238550   4.949   5.246  11.905 -0.8927  0.7970  0.7676
 5687TIP3   OH238551   5.499   3.013   3.991 -0.2115  0.7384 -0.3467
 5687TIP3    H138552   5.556   3.079   3.951  0.4150  0.4544  0.0563
 5687TIP3    H238553   5.473   2.957   3.918  0.7592  0.3442 -0.4052
 5688TIP3   OH238554   0.104   4.200  12.899 -1.2289 -0.0003 -0.8183
 5688TIP3    H138555   0.019   4.200  12.943 -2.0349 -0.0180 -2.3654
 5688TIP3    H238556   0.098   4.270  12.834  0.4168  0.8930 -0.0549
 5689TIP3   OH238557   5.231   4.793  14.271  0.8713 -0.0206  0.2948
 5689TIP3    H138558   5.238   4.886  14.251 -1.5842  0.3687  1.0736
 5689TIP3    H238559   5.296   4.751  14.214  1.1585  2.0404 -0.9391
 5690TIP3   OH238560   0.943   1.960   4.317  0.0436 -0.3582 -0.1994
 5690TIP3    H138561   0.970   2.037   4.266 -0.5145 -0.4582 -0.6457
 5690TIP3    H238562   0.863   1.929   4.274  0.0374 -0.9445  0.2271
 5691TIP3   OH238563   4.462   6.242   5.070  0.0125  0.0473 -0.5264
 5691TIP3    H138564   4.381   6.193   5.061  0.9267 -1.6623  0.2469
 5691TIP3    H238565   4.507   6.230   4.986 -0.0592  0.1124 -0.5741
 5692TIP3   OH238566   6.097   0.316   4.208 -0.0392 -0.0140 -0.4559
 5692TIP3    H138567   6.028   0.268   4.253 -0.0941 -0.7420 -1.3158
 5692TIP3    H238568   6.175   0.260   4.215 -0.0792 -0.1895 -1.3646
 5693TIP3   OH238569   4.644   6.645   0.618 -0.5666 -0.2809 -0.0107
 5693TIP3    H138570   4.581   6.578   0.644 -1.2525  0.6327  0.7302
 5693TIP3    H238571   4.727   6.616   0.656 -0.8792 -0.6638  0.3775
 5694TIP3   OH238572   2.511   5.852   5.049  0.1715  0.8624 -0.0358
 5694TIP3    H138573   2.518   5.937   5.092  2.7612  0.2041  0.9471
 5694TIP3    H238574   2.431   5.857   4.997 -0.1052  3.6100  0.6206
 5695TIP3   OH238575   1.487   5.478   4.167  0.4135 -0.1761  0.0793
 5695TIP3    H138576   1.520   5.402   4.119 -0.0850 -0.7016  0.5563
 5695TIP3    H238577   1.558   5.500   4.227  0.7098 -0.0305 -0.3245
 5696TIP3   OH238578   1.587   3.615  16.433  0.2490  0.4061 -0.1254
 5696TIP3    H138579   1.593   3.667  16.513  1.0200  2.3402 -1.4048
 5696TIP3    H238580   1.494   3.613  16.413  0.2694  2.0186 -0.4923
 5697TIP3   OH238581   3.191   2.860  15.674  0.0776 -0.0933 -0.8200
 5697TIP3    H138582   3.238   2.942  15.670 -1.2728  0.6253 -2.8872
 5697TIP3    H238583   3.099   2.885  15.685 -0.3499 -1.3133 -1.4512
 5698TIP3   OH238584   4.321   6.689  15.441  0.2030  0.3120  0.0171
 5698TIP3    H138585   4.260   6.636  15.389 -0.7090  1.3747 -0.0253
 5698TIP3    H238586   4.277   6.774  15.450  2.0972  1.4276 -0.8233
 5699TIP3   OH238587   2.016   4.285   4.622  0.4052  0.7934  0.1151
 5699TIP3    H138588   1.943   4.261   4.565  0.5173  0.2495  0.1958
 5699TIP3    H238589   1.976   4.331   4.695  0.3961  2.8643 -1.1459
 5700TIP3   OH238590   3.269   4.879  14.768 -0.0111  0.1303  0.3450
 5700TIP3    H138591   3.272   4.843  14.856 -1.4677 -1.0869 -0.0867
 5700TIP3    H238592   3.351   4.928  14.759 -0.4779  1.4541  2.8437
 5701TIP3   OH238593   2.336   1.759  12.828 -0.3217 -0.0045  0.1824
 5701TIP3    H138594   2.413   1.749  12.885 -0.1356  0.4007  0.0052
 5701TIP3    H238595   2.341   1.685  12.768 -0.2831 -0.1959  0.4215
 5702TIP3   OH238596   1.562   0.299  12.600  0.1383 -0.0232  0.1050
 5702TIP3    H138597   1.575   0.246  12.522 -1.2411  0.7326 -0.6706
 5702TIP3    H238598   1.577   0.240  12.673 -1.1926 -1.4476 -0.7408
 5703TIP3   OH238599   6.167   3.077  11.133  0.2472  0.0546  0.8918
 5703TIP3    H138600   6.126   3.133  11.067  0.6581 -0.5782  0.0954
 5703TIP3    H238601   6.095   3.051  11.191 -0.2623 -0.0892  0.1966
 5704TIP3   OH238602   1.025   1.512  14.969  0.6797  0.0965  0.0346
 5704TIP3    H138603   0.940   1.531  14.928  0.6671  0.5175  0.2550
 5704TIP3    H238604   1.032   1.575  15.040  0.9603 -0.2598  0.3263
 5705TIP3   OH238605   4.613   0.194  12.425 -0.2713 -0.2895  0.0369
 5705TIP3    H138606   4.626   0.260  12.357  0.0459 -0.8647 -0.4653
 5705TIP3    H238607   4.656   0.231  12.502  0.8388 -0.3845 -0.5267
 5706TIP3   OH238608   0.503   1.912   0.158  0.0631  1.0060 -0.0446
 5706TIP3    H138609   0.456   1.972   0.217  0.8403  0.2453  1.3944
 5706TIP3    H238610   0.482   1.825   0.190  2.2246  0.6403  0.5065
 5707TIP3   OH238611   0.442   3.696  13.366 -0.0760  0.7456 -0.1688
 5707TIP3    H138612   0.387   3.747  13.306 -0.2585  0.3785 -0.3131
 5707TIP3    H238613   0.521   3.678  13.315 -0.6346 -0.4011 -0.6391
 5708TIP3   OH238614   0.420   2.924   2.389  1.0052 -0.0848 -0.4363
 5708TIP3    H138615   0.327   2.941   2.406  1.6732  2.7192  0.7041
 5708TIP3    H238616   0.420   2.867   2.312 -1.6623 -0.6052 -0.1133
 5709TIP3   OH238617   2.296   1.183  15.382 -0.0728 -0.2591 -0.1699
 5709TIP3    H138618   2.264   1.099  15.415 -0.7913 -0.1247 -0.5171
 5709TIP3    H238619   2.390   1.179  15.395 -0.2395 -0.6030  0.9901
 5710TIP3   OH238620   5.260   5.353   1.371  0.0326  0.2752 -0.8803
 5710TIP3    H138621   5.347   5.373   1.404  0.5990  0.4256 -2.4345
 5710TIP3    H238622   5.237   5.428   1.317 -1.4806  0.6915  0.3050
 5711TIP3   OH238623   0.270   3.110   4.993 -0.0822  0.0986  0.1629
 5711TIP3    H138624   0.286   3.022   4.957  1.2819  0.4821 -0.1728
 5711TIP3    H238625   0.191   3.139   4.947 -0.2618 -0.7497 -0.0933
 5712TIP3   OH238626   0.745   2.897   4.539  0.1943 -0.4376  0.0675
 5712TIP3    H138627   0.813   2.876   4.603  0.1310 -0.8714 -0.0053
 5712TIP3    H238628   0.735   2.992   4.545 -0.0982 -0.5226  0.9916
 5713TIP3   OH238629   1.275   4.585   0.243 -0.9191 -0.0331 -0.0524
 5713TIP3    H138630   1.236   4.603   0.158 -1.6547  1.3454  0.5464
 5713TIP3    H238631   1.337   4.657   0.257  0.4098 -1.1423 -0.1349
 5714TIP3   OH238632   0.370   6.452   4.790  0.6077 -0.2196 -0.2446
 5714TIP3    H138633   0.424   6.375   4.771  1.0153  0.5178 -2.2526
 5714TIP3    H238634   0.415   6.524   4.746 -0.0702  1.0821  1.1300
 5715TIP3   OH238635   1.983   4.666  14.208 -0.3248 -0.0180  0.6669
 5715TIP3    H138636   1.979   4.624  14.122 -0.6135  0.3513  0.4992
 5715TIP3    H238637   1.892   4.683  14.230 -0.1981  0.6202  0.6899
 5716TIP3   OH238638   6.298   1.498  10.858  0.3069  0.1092  0.3815
 5716TIP3    H138639   6.311   1.478  10.766 -1.1850 -2.0246  0.6117
 5716TIP3    H238640   6.260   1.586  10.858 -0.9214 -0.3947 -1.1149
 5717TIP3   OH238641   0.969   4.267  13.186  0.1051 -0.1152 -0.2793
 5717TIP3    H138642   1.004   4.226  13.107  1.3625 -0.2341  0.3109
 5717TIP3    H238643   0.913   4.338  13.154 -1.6232 -1.9103 -1.2953
 5718TIP3   OH238644   4.380   0.760  14.258  0.1473 -0.1781  0.9364
 5718TIP3    H138645   4.293   0.800  14.258 -0.8659 -2.2794  0.1560
 5718TIP3    H238646   4.375   0.693  14.326  1.2719 -0.0681  1.1299
 5719TIP3   OH238647   0.384   2.503   4.557  0.4129 -0.3453 -0.3917
 5719TIP3    H138648   0.437   2.568   4.511  0.4892 -0.5253 -0.5543
 5719TIP3    H238649   0.445   2.433   4.579  0.2714 -0.4868 -0.4513
 5720TIP3   OH238650   3.052   4.868  11.014 -0.0671  0.0422  0.5466
 5720TIP3    H138651   3.110   4.942  10.997  1.4795 -0.9490  1.3686
 5720TIP3    H238652   3.074   4.804  10.947 -2.0147  0.6468 -0.7037
 5721TIP3   OH238653   3.592   3.234   1.035 -0.1554 -0.1712 -0.4642
 5721TIP3    H138654   3.580   3.241   0.940 -0.2241  0.2235 -0.4279
 5721TIP3    H238655   3.682   3.203   1.046 -0.1477 -0.2171 -0.6590
 5722TIP3   OH238656   6.160   2.337  16.862  0.1870  0.0233 -0.1264
 5722TIP3    H138657   6.103   2.368  16.791  1.4045 -0.0558 -1.1333
 5722TIP3    H238658   6.136   2.393  16.937 -0.5287  0.6517 -0.8128
 5723TIP3   OH238659   5.712   3.689   0.566  0.0556  0.2024 -0.6071
 5723TIP3    H138660   5.798   3.664   0.600 -0.2603 -1.2286 -0.8231
 5723TIP3    H238661   5.683   3.759   0.624  0.7272 -0.3293  0.3884
 5724TIP3   OH238662   4.125   3.816  17.050  0.1889  0.4017 -0.4749
 5724TIP3    H138663   4.082   3.827  16.966 -2.0477 -0.0369  0.5717
 5724TIP3    H238664   4.073   3.869  17.111  0.0263 -1.5947  1.1788
 5725TIP3   OH238665   5.433   2.750  13.883 -0.1778  0.6299 -0.1465
 5725TIP3    H138666   5.463   2.833  13.845  1.1333  0.8441  1.3047
 5725TIP3    H238667   5.473   2.683  13.827  0.0232  0.9583 -0.4028
 5726TIP3   OH238668   5.493   1.150  15.532 -0.9181 -0.0477 -0.0299
 5726TIP3    H138669   5.443   1.203  15.470 -0.7549  1.0707  0.7789
 5726TIP3    H238670   5.427   1.097  15.577 -1.1833  0.1209 -0.2207
 5727TIP3   OH238671   0.963   0.236  11.790  1.0358 -0.3208 -0.1351
 5727TIP3    H138672   0.888   0.224  11.732  1.8573  0.5834 -1.4114
 5727TIP3    H238673   0.927   0.225  11.878 -0.0822 -2.4284 -0.8181
 5728TIP3   OH238674   6.490   5.224  10.775 -0.0835 -0.2951 -0.1241
 5728TIP3    H138675   6.454   5.311  10.755 -1.1801 -1.2850 -2.5736
 5728TIP3    H238676   6.563   5.214  10.713  0.9629 -0.5551  1.1306
 5729TIP3   OH238677   3.979   3.012   2.001 -0.4434 -0.4249 -0.1554
 5729TIP3    H138678   4.016   2.931   2.036 -0.4082  0.0185  0.8489
 5729TIP3    H238679   3.884   3.000   2.008 -0.4105  0.1287  1.1425
 5730TIP3   OH238680   4.379   2.364  15.111 -0.0911  0.2736  0.1662
 5730TIP3    H138681   4.335   2.447  15.128  1.0296  0.7498  0.8357
 5730TIP3    H238682   4.381   2.356  15.016 -0.4641  0.8774  0.1059
 5731TIP3   OH238683   1.833   4.954  14.981  0.9051 -0.2637 -0.2407
 5731TIP3    H138684   1.746   4.992  14.978  1.6478  1.5115 -0.2875
 5731TIP3    H238685   1.887   5.021  15.024  2.2756 -1.2463 -0.3707
 5732TIP3   OH238686   4.398   0.612   1.964 -0.2812 -0.6964  0.0815
 5732TIP3    H138687   4.367   0.523   1.948 -0.0684 -0.7925  0.1995
 5732TIP3    H238688   4.389   0.657   1.880 -1.4160 -0.5167  0.2826
 5733TIP3   OH238689   6.373   1.062  14.089 -0.2722  0.7923  0.5082
 5733TIP3    H138690   6.316   1.088  14.161 -1.0963  1.8537 -0.4990
 5733TIP3    H238691   6.414   0.981  14.118  0.0072  1.6112  2.4957
 5734TIP3   OH238692   3.193   2.675   5.580 -0.3329  0.4808  0.4456
 5734TIP3    H138693   3.241   2.703   5.658  1.3359  0.0854 -0.4176
 5734TIP3    H238694   3.156   2.756   5.544  0.7093  0.9761  0.4602
 5735TIP3   OH238695   6.728   5.746  14.717 -0.2411  0.2204  0.0459
 5735TIP3    H138696   6.789   5.731  14.645 -0.0272  0.3654  0.1931
 5735TIP3    H238697   6.760   5.826  14.758  0.2359 -0.3930  0.9032
 5736TIP3   OH238698   1.528   4.311   0.326  0.3525  0.4205  0.4179
 5736TIP3    H138699   1.500   4.350   0.408 -1.7708  0.4582 -0.2870
 5736TIP3    H238700   1.596   4.249   0.350  0.1700  0.8775  2.1337
 5737TIP3   OH238701   2.868   3.283  15.071 -0.2466  0.9143  0.1432
 5737TIP3    H138702   2.777   3.254  15.076  0.1398 -0.0900  1.4788
 5737TIP3    H238703   2.888   3.314  15.159  1.4113 -1.0326  0.4721
 5738TIP3   OH238704   5.783   0.725  12.141  0.2097  0.7274  0.0615
 5738TIP3    H138705   5.860   0.745  12.193 -1.0687  1.8232  1.5785
 5738TIP3    H238706   5.802   0.763  12.055  2.1385 -0.6993 -0.1709
 5739TIP3   OH238707   2.027   5.365   3.465 -0.1155 -0.0273  0.1382
 5739TIP3    H138708   1.971   5.430   3.507 -0.0259  0.8064 -1.0035
 5739TIP3    H238709   2.015   5.380   3.371  1.0343 -0.6998 -0.1286
 5740TIP3   OH238710   4.327   2.341  15.907  0.3821  0.2925 -0.2429
 5740TIP3    H138711   4.347   2.294  15.988  0.6556 -0.2012 -0.5904
 5740TIP3    H238712   4.362   2.429  15.920 -0.0822  0.3895  0.3905
 5741TIP3   OH238713   0.655   0.571  15.918  0.3567 -0.3143  0.1567
 5741TIP3    H138714   0.611   0.497  15.876  1.6679 -0.7583 -0.4702
 5741TIP3    H238715   0.614   0.648  15.879  0.2139 -0.7188 -0.5041
 5742TIP3   OH238716   0.967   3.800  13.478  0.2686  0.0404 -0.1903
 5742TIP3    H138717   1.037   3.738  13.500  1.5183  1.9342  1.3973
 5742TIP3    H238718   0.897   3.781  13.541  0.5140  0.0286  0.0795
 5743TIP3   OH238719   1.102   3.116   0.742 -0.4336 -0.0035 -0.1393
 5743TIP3    H138720   1.133   3.039   0.694  0.6694  0.0413  0.4948
 5743TIP3    H238721   1.012   3.093   0.768  0.8936 -2.3345  2.6698
 5744TIP3   OH238722   4.650   5.854   3.552 -0.3469  0.1882 -0.2936
 5744TIP3    H138723   4.672   5.871   3.461 -3.5407  0.4197 -1.0553
 5744TIP3    H238724   4.631   5.940   3.589 -0.1882 -0.0303  0.3097
 5745TIP3   OH238725   4.839   6.238   0.999  0.3648 -0.5032 -0.0822
 5745TIP3    H138726   4.843   6.322   1.045 -0.2956 -0.6687  0.2666
 5745TIP3    H238727   4.807   6.261   0.911  1.1194 -0.2643 -0.3095
 5746TIP3   OH238728   1.939   5.067  14.505  0.2490 -0.0707  0.5902
 5746TIP3    H138729   1.925   5.132  14.574 -0.6511  0.8191 -0.4076
 5746TIP3    H238730   1.908   5.109  14.425 -1.5501 -2.1821  0.1116
 5747TIP3   OH238731   1.502   1.924   2.238  0.2669 -0.1239 -0.4598
 5747TIP3    H138732   1.500   1.876   2.320  1.2330 -1.4110 -1.1741
 5747TIP3    H238733   1.557   2.001   2.256 -1.6497  0.9839  0.8067
 5748TIP3   OH238734   6.160   6.040  14.473 -0.1358 -0.1047 -0.3531
 5748TIP3    H138735   6.204   5.955  14.469 -0.0948 -0.0536 -1.2365
 5748TIP3    H238736   6.133   6.057  14.382  1.9922  1.9076 -0.6753
 5749TIP3   OH238737   2.956   2.125  14.323  0.1092  0.0114  0.1891
 5749TIP3    H138738   3.003   2.099  14.243 -0.0365 -1.3479  0.5351
 5749TIP3    H238739   3.014   2.189  14.365  1.4287 -1.2625  0.3498
 5750TIP3   OH238740   2.448   3.331   0.481 -0.4671 -0.2052 -0.1934
 5750TIP3    H138741   2.477   3.264   0.543  2.5754  0.8697 -0.3566
 5750TIP3    H238742   2.369   3.368   0.520  0.4626 -0.6956  2.2314
 5751TIP3   OH238743   1.245   4.848   1.891  0.6297 -0.4238 -0.3351
 5751TIP3    H138744   1.204   4.870   1.807 -0.3718  2.3168  0.8091
 5751TIP3    H238745   1.172   4.844   1.953  1.6120  0.3281  0.9133
 5752TIP3   OH238746   5.661   6.562  11.648 -0.0851  0.2532 -0.1754
 5752TIP3    H138747   5.741   6.605  11.618  0.4368 -0.8703 -0.3953
 5752TIP3    H238748   5.591   6.611  11.606  0.4115  2.0630  1.0111
 5753TIP3   OH238749   1.400   6.475  11.495  0.1582  0.0310  0.1302
 5753TIP3    H138750   1.314   6.484  11.535  0.4548  1.1409  0.5245
 5753TIP3    H238751   1.461   6.511  11.560  0.9737 -1.2351  0.0830
 5754TIP3   OH238752   1.810   0.861   3.990 -0.1498 -0.8779 -0.0296
 5754TIP3    H138753   1.897   0.862   4.029 -0.2733  0.4544  0.2402
 5754TIP3    H238754   1.801   0.947   3.950 -1.2454 -1.1040 -0.2803
 5755TIP3   OH238755   1.890   0.097   2.712 -0.3952 -0.5573 -0.0431
 5755TIP3    H138756   1.907   0.006   2.734 -3.3751 -1.4819 -1.3626
 5755TIP3    H238757   1.872   0.139   2.796  0.6350 -1.2305  0.5273
 5756TIP3   OH238758   5.020   6.366   2.279  0.0444  0.5439  0.6783
 5756TIP3    H138759   4.937   6.320   2.269  0.4750  0.2668 -1.7226
 5756TIP3    H238760   4.999   6.440   2.337 -1.9012  0.5185  0.0353
 5757TIP3   OH238761   4.004   6.260  13.443 -0.2992  0.6140 -0.8187
 5757TIP3    H138762   4.007   6.343  13.490  2.0921  0.4664 -0.6451
 5757TIP3    H238763   4.007   6.193  13.511 -0.4717  0.4049 -1.0185
 5758TIP3   OH238764   3.415   6.403  14.069 -0.1229 -0.5965  0.1923
 5758TIP3    H138765   3.339   6.347  14.048 -0.7497 -0.2110  1.3859
 5758TIP3    H238766   3.391   6.446  14.151  0.9433  0.3758  0.0035
 5759TIP3   OH238767   6.399   3.036  15.783 -0.7972 -0.5713  0.2146
 5759TIP3    H138768   6.361   2.982  15.714  4.3282 -1.9668 -1.6764
 5759TIP3    H238769   6.428   2.974  15.850 -1.2610  0.4232  1.3657
 5760TIP3   OH238770   3.790   2.189  17.047  0.4668 -0.3199 -0.0074
 5760TIP3    H138771   3.864   2.240  17.081  1.7953 -1.4522 -1.1625
 5760TIP3    H238772   3.756   2.241  16.974  0.1871  0.1276  0.4296
 5761TIP3   OH238773   1.942   4.626  16.290 -0.3625  0.0757  0.3674
 5761TIP3    H138774   1.916   4.540  16.257 -2.5232  1.1351 -0.8258
 5761TIP3    H238775   1.941   4.617  16.385 -1.2796 -1.0431  0.2642
 5762TIP3   OH238776   4.302   1.920   6.797 -0.5123 -0.1101  0.3305
 5762TIP3    H138777   4.275   1.901   6.887 -2.4284  1.0775  0.0362
 5762TIP3    H238778   4.240   1.987   6.767  1.4338  1.0769 -1.1476
 5763TIP3   OH238779   4.465   5.782  12.185  0.1555  0.6247  0.0781
 5763TIP3    H138780   4.501   5.765  12.098 -0.5204  1.1867 -0.3198
 5763TIP3    H238781   4.518   5.854  12.220  1.0069 -0.1930  0.5045
 5764TIP3   OH238782   1.612   2.051   4.111  0.0856 -0.3790 -0.8029
 5764TIP3    H138783   1.566   1.969   4.092 -1.1720  0.5977 -2.1167
 5764TIP3    H238784   1.681   2.026   4.173 -0.8963 -2.2479 -0.4164
 5765TIP3   OH238785   0.606   4.477  14.568  0.8524  0.3422  1.1667
 5765TIP3    H138786   0.549   4.403  14.549 -1.8014  2.3724  0.9650
 5765TIP3    H238787   0.647   4.498  14.484  0.9586 -0.3409  1.0441
 5766TIP3   OH238788   1.487   0.453  15.470 -0.8267 -0.2878 -0.2866
 5766TIP3    H138789   1.427   0.528  15.473 -2.5996 -1.6615 -0.3966
 5766TIP3    H238790   1.462   0.406  15.391 -1.3131 -2.2616  1.0109
 5767TIP3   OH238791   1.873   2.664  13.726 -0.2567 -0.1462 -0.2492
 5767TIP3    H138792   1.823   2.593  13.765 -0.7900 -0.6652 -1.8658
 5767TIP3    H238793   1.810   2.736  13.717 -0.1369 -0.0318 -0.1858
 5768TIP3   OH238794   6.624   5.834   4.452 -0.2869  0.0512  0.4113
 5768TIP3    H138795   6.551   5.773   4.440  0.9472 -0.8940 -2.7916
 5768TIP3    H238796   6.597   5.913   4.406 -0.2829  0.5693  1.2902
 5769TIP3   OH238797   1.400   3.376  13.990  0.1318  0.4391  0.2807
 5769TIP3    H138798   1.417   3.435  14.063  0.9627  0.3919  0.1277
 5769TIP3    H238799   1.481   3.377  13.939  0.5004 -1.5030  0.7627
 5770TIP3   OH238800   1.647   6.048   2.119 -0.2251  0.1552  0.0675
 5770TIP3    H138801   1.615   6.088   2.201 -2.1268  0.7017 -0.9038
 5770TIP3    H238802   1.571   6.002   2.085  0.9765 -1.3153 -0.6590
 5771TIP3   OH238803   3.419   0.469   4.287 -0.0714  0.1991 -0.1113
 5771TIP3    H138804   3.413   0.542   4.226  1.3762  0.6024  0.1946
 5771TIP3    H238805   3.343   0.479   4.344  0.1299  1.4923 -0.0520
 5772TIP3   OH238806   3.373   5.078   0.090  1.0523  0.2406  0.0051
 5772TIP3    H138807   3.412   5.160   0.120  1.5510 -0.0342  0.1123
 5772TIP3    H238808   3.447   5.026   0.060  0.5503  0.5660 -1.8700
 5773TIP3   OH238809   1.407   1.838  11.807  0.8415 -0.1997 -0.2230
 5773TIP3    H138810   1.353   1.861  11.732  1.5478  1.2429 -0.3008
 5773TIP3    H238811   1.491   1.880  11.791  1.7031 -1.6745  0.3380
 5774TIP3   OH238812   0.544   6.651   0.783 -0.5880 -0.2464  0.1277
 5774TIP3    H138813   0.457   6.691   0.773 -0.4590 -0.1458 -0.6021
 5774TIP3    H238814   0.573   6.634   0.694  0.5299  0.5499  0.3248
 5775TIP3   OH238815   4.295   2.990  12.876  0.3158  0.1916 -0.4625
 5775TIP3    H138816   4.237   2.916  12.862  1.8317 -0.6883 -2.3524
 5775TIP3    H238817   4.291   3.040  12.794 -0.5095  2.0835  0.6987
 5776TIP3   OH238818   2.976   3.408   2.418  0.8334  0.0245  0.3273
 5776TIP3    H138819   2.907   3.432   2.357  1.2596  2.1655  0.6689
 5776TIP3    H238820   2.931   3.360   2.488 -0.5564  2.6419  1.2861
 5777TIP3   OH238821   4.064   6.790   0.991 -0.2037 -0.4543  0.9843
 5777TIP3    H138822   4.000   6.819   1.056 -0.6907  0.2210  0.2080
 5777TIP3    H238823   4.135   6.854   0.996 -0.6567  0.1151  0.2238
 5778TIP3   OH238824   0.146   0.601  11.953  0.2804  0.6408 -0.0370
 5778TIP3    H138825   0.163   0.692  11.975  0.0565  1.4339 -2.9551
 5778TIP3    H238826   0.196   0.586  11.873 -0.5534 -1.5099 -0.2004
 5779TIP3   OH238827   4.093   5.560  14.825 -0.0750 -0.1429 -0.5988
 5779TIP3    H138828   4.124   5.518  14.906  0.7515 -0.9505 -1.3319
 5779TIP3    H238829   4.004   5.527  14.813  0.0569 -0.5678 -0.4065
 5780TIP3   OH238830   4.652   1.632  16.647 -0.4114  0.3414  0.3191
 5780TIP3    H138831   4.585   1.585  16.696  0.4343 -1.1674  0.0741
 5780TIP3    H238832   4.636   1.611  16.555 -1.3611  2.3299  0.0004
 5781TIP3   OH238833   0.088   5.060  12.697 -0.4860 -0.4227 -0.3741
 5781TIP3    H138834   0.093   5.037  12.605  1.3112  0.7989 -0.5853
 5781TIP3    H238835   0.175   5.042  12.732 -0.6475  0.8045  0.6982
 5782TIP3   OH238836   5.460   0.032  10.590  0.1847  0.1822 -0.1686
 5782TIP3    H138837   5.539   0.069  10.552  2.6673 -1.6835  2.9390
 5782TIP3    H238838   5.450  -0.053  10.547  0.6796 -0.2075  0.4969
 5783TIP3   OH238839   2.368   0.209  17.266 -0.5737 -0.1323  0.4529
 5783TIP3    H138840   2.440   0.248  17.315  2.8214 -2.9810 -2.0237
 5783TIP3    H238841   2.348   0.127  17.313  0.5597 -1.2990 -1.0306
 5784TIP3   OH238842   6.670   5.019   1.074  0.9420 -0.0050 -0.1050
 5784TIP3    H138843   6.650   5.110   1.052  2.8097  0.0299 -1.7514
 5784TIP3    H238844   6.717   4.985   0.997 -0.5508 -2.6455  0.0880
 5785TIP3   OH238845   4.805   5.634  16.342  0.8321 -0.1193  0.3602
 5785TIP3    H138846   4.751   5.555  16.352 -0.0987  0.5552  0.6929
 5785TIP3    H238847   4.853   5.641  16.425  0.5171 -0.0393  0.5354
 5786TIP3   OH238848   5.243   3.211  13.447  0.0871  0.2391 -0.0480
 5786TIP3    H138849   5.187   3.285  13.422 -1.1360 -0.7909 -0.4212
 5786TIP3    H238850   5.185   3.153  13.496  0.9519 -0.6413 -0.0598
 5787TIP3   OH238851   0.404   0.446   5.157 -0.1465  0.0228  0.1230
 5787TIP3    H138852   0.341   0.501   5.110  0.1829 -0.3822 -0.8252
 5787TIP3    H238853   0.471   0.507   5.186 -0.6379  0.3623  0.5530
 5788TIP3   OH238854   5.512   5.527   0.200 -0.0270 -0.5164 -0.1731
 5788TIP3    H138855   5.479   5.616   0.208  0.1105 -0.2544 -2.0908
 5788TIP3    H238856   5.604   5.533   0.226 -0.3501 -0.3732  0.9628
 5789TIP3   OH238857   0.776   3.961   1.257 -0.0425 -0.3935 -0.4797
 5789TIP3    H138858   0.696   3.911   1.272  0.9146 -1.3229  1.6901
 5789TIP3    H238859   0.840   3.897   1.226  0.6265 -0.1866  0.4330
 5790TIP3   OH238860   5.109   2.361  11.884 -0.0912 -0.4055  0.2244
 5790TIP3    H138861   5.048   2.298  11.846  1.2070 -1.5654  0.0285
 5790TIP3    H238862   5.180   2.308  11.920  1.4924  0.9631 -0.7504
 5791TIP3   OH238863   3.743   3.856   5.462  0.1898  0.8865  0.4801
 5791TIP3    H138864   3.717   3.933   5.412  0.5475 -0.1986 -1.3920
 5791TIP3    H238865   3.834   3.840   5.436  0.4998  0.5020  1.7414
 5792TIP3   OH238866   1.886   2.069   6.317  0.6060  0.2610 -0.0500
 5792TIP3    H138867   1.872   1.986   6.364  0.7805 -0.8855 -1.9555
 5792TIP3    H238868   1.834   2.060   6.237  1.2608  1.6691 -0.6440
 5793TIP3   OH238869   5.777   2.200  16.177  0.5965  0.3197  0.0335
 5793TIP3    H138870   5.699   2.146  16.169 -0.3997  1.7003  0.1854
 5793TIP3    H238871   5.848   2.138  16.194 -0.5537 -0.8990  0.4667
 5794TIP3   OH238872   6.020   3.437  13.120 -0.0402 -0.3423  0.2039
 5794TIP3    H138873   5.950   3.404  13.176 -0.1931  0.5114  0.5329
 5794TIP3    H238874   5.994   3.527  13.099 -0.9751 -1.2825 -2.8960
 5795TIP3   OH238875   2.877   5.347  14.517  0.6621  0.1491 -0.1950
 5795TIP3    H138876   2.944   5.296  14.563 -0.0393 -0.2766  0.3696
 5795TIP3    H238877   2.895   5.438  14.541 -0.9523 -0.2074  2.6561
 5796TIP3   OH238878   2.905   6.213   4.772  0.0376 -0.0444  0.0563
 5796TIP3    H138879   2.869   6.272   4.706 -0.8957 -0.4651  0.1922
 5796TIP3    H238880   2.995   6.198   4.744 -0.0146  0.6666 -0.5089
 5797TIP3   OH238881   1.724   5.213  12.363  0.4863  0.9520  0.2681
 5797TIP3    H138882   1.746   5.120  12.377 -0.4576  0.7519  0.4194
 5797TIP3    H238883   1.644   5.226  12.413 -0.8577  1.1804 -1.8919
 5798TIP3   OH238884   5.280   3.643   2.741 -0.1710  1.0587  0.8682
 5798TIP3    H138885   5.260   3.632   2.648 -1.5881  1.7352  1.0666
 5798TIP3    H238886   5.265   3.557   2.779  1.0050  0.6253  0.3838
 5799TIP3   OH238887   0.363   0.470   2.515  0.3996 -0.1927  0.1780
 5799TIP3    H138888   0.320   0.397   2.470 -0.2689 -0.9173  1.9793
 5799TIP3    H238889   0.401   0.522   2.444 -2.3157 -0.2389 -1.3816
 5800TIP3   OH238890   6.453   4.708  15.859 -0.4726  0.1760 -0.0603
 5800TIP3    H138891   6.440   4.659  15.778 -1.1629 -0.0248  0.1668
 5800TIP3    H238892   6.529   4.763  15.842 -1.0936  0.7255 -1.1144
 5801TIP3   OH238893   3.100   2.698   4.818 -0.5921  0.2102  0.3140
 5801TIP3    H138894   3.153   2.622   4.840  0.1442  0.7756  0.5196
 5801TIP3    H238895   3.056   2.674   4.736  1.0346  0.2439 -0.5995
 5802TIP3   OH238896   4.834   2.083   5.913 -0.6501  0.2987  0.7448
 5802TIP3    H138897   4.775   2.009   5.898  0.4528 -0.1353 -1.8002
 5802TIP3    H238898   4.896   2.051   5.979 -0.3400 -0.9981 -0.1338
 5803TIP3   OH238899   1.110   5.335   6.511  0.0537  0.3441  0.1114
 5803TIP3    H138900   1.184   5.390   6.536  0.5607  0.5418 -1.7321
 5803TIP3    H238901   1.121   5.255   6.562 -0.0310  1.4733  1.9395
 5804TIP3   OH238902   2.618   1.967  13.158  0.1849  0.7141 -0.3686
 5804TIP3    H138903   2.690   2.015  13.200 -0.2384  1.5120 -0.5505
 5804TIP3    H238904   2.591   1.903  13.224  0.0491  1.4301  0.2766
 5805TIP3   OH238905   1.683   3.636  17.232  0.1234  0.3220  1.2098
 5805TIP3    H138906   1.778   3.647  17.245  0.2994 -1.4108  1.6200
 5805TIP3    H238907   1.657   3.579  17.305 -1.4066  1.5114  1.6023
 5806TIP3   OH238908   1.201   1.858   1.033 -0.6753  0.1859 -0.3257
 5806TIP3    H138909   1.131   1.863   1.099 -0.3548  0.7745 -0.0275
 5806TIP3    H238910   1.250   1.939   1.045  0.1867 -0.3301 -0.4019
 5807TIP3   OH238911   1.883   1.946  11.435  0.2797 -0.2182 -0.1673
 5807TIP3    H138912   1.825   1.882  11.475  0.4616 -0.4421 -0.2623
 5807TIP3    H238913   1.851   2.031  11.467 -0.1944 -0.3282 -0.3367
 5808TIP3   OH238914   1.626   0.248  11.710  0.4839  0.0139  0.1933
 5808TIP3    H138915   1.656   0.168  11.666 -1.2537 -0.8456  0.5378
 5808TIP3    H238916   1.588   0.217  11.792 -0.6388  1.1514  0.1160
 5809TIP3   OH238917   4.814   6.395  13.550 -0.0376 -0.0674 -0.0007
 5809TIP3    H138918   4.802   6.445  13.631 -1.7853  1.1278 -0.9523
 5809TIP3    H238919   4.907   6.375  13.548  0.1106  0.3206  2.0570
 5810TIP3   OH238920   4.367   1.618  15.434 -0.0471  0.1236  0.1775
 5810TIP3    H138921   4.351   1.568  15.354 -0.1249 -0.7003  0.6911
 5810TIP3    H238922   4.428   1.687  15.409  0.3993 -0.4969 -0.4588
 5811TIP3   OH238923   2.415   2.025   3.046 -0.5976 -0.2259  0.2251
 5811TIP3    H138924   2.409   2.069   3.131 -1.3021 -0.3425  0.2366
 5811TIP3    H238925   2.462   1.943   3.065  0.5484  0.4167  0.2371
 5812TIP3   OH238926   1.579   0.064  14.747  0.2802 -0.3483  0.0252
 5812TIP3    H138927   1.549  -0.014  14.700  0.8676  1.0363 -2.7010
 5812TIP3    H238928   1.656   0.033  14.796  0.6039 -1.4654 -1.1445
 5813TIP3   OH238929   5.172   0.283  15.667  1.2042  0.0290  0.2495
 5813TIP3    H138930   5.154   0.312  15.577  0.1244 -1.0244  0.1082
 5813TIP3    H238931   5.231   0.208  15.657  0.9164 -0.2210  0.3949
 5814TIP3   OH238932   3.618   4.198  17.146  0.2196 -0.4861 -0.3154
 5814TIP3    H138933   3.641   4.178  17.056  0.9785  1.1628 -0.5092
 5814TIP3    H238934   3.619   4.294  17.151 -0.1992 -0.5442  1.3289
 5815TIP3   OH238935   3.051   3.099  11.840  0.1714 -0.1040 -0.5559
 5815TIP3    H138936   3.118   3.042  11.803  1.2970  1.5633 -1.1529
 5815TIP3    H238937   2.969   3.053  11.824  1.1832 -2.3584  0.5201
 5816TIP3   OH238938   4.149   4.669  14.376 -0.1903  0.7818 -0.5084
 5816TIP3    H138939   4.133   4.642  14.285 -2.4672  2.8269 -0.7514
 5816TIP3    H238940   4.097   4.608  14.428 -1.1644  1.4043 -0.7472
 5817TIP3   OH238941   6.515   0.492  10.945 -0.0379 -0.4761  0.0223
 5817TIP3    H138942   6.505   0.533  10.859 -0.4377 -0.6955 -0.0412
 5817TIP3    H238943   6.609   0.493  10.962 -0.0231  0.2825 -0.0666
 5818TIP3   OH238944   1.130   0.112   2.985  0.4148  0.0088 -0.5471
 5818TIP3    H138945   1.058   0.053   2.964  0.5286 -0.0165 -0.8706
 5818TIP3    H238946   1.209   0.066   2.956  0.5444  0.1278 -0.3899
 5819TIP3   OH238947   1.976   2.441  15.864 -0.1745  0.0459  0.9105
 5819TIP3    H138948   2.030   2.485  15.798 -0.1592 -0.5514  0.5258
 5819TIP3    H238949   1.904   2.502  15.881  0.3086  0.5965  1.0053
 5820TIP3   OH238950   5.939   5.165   3.044  0.9421  0.1602 -0.1155
 5820TIP3    H138951   5.881   5.107   2.995  1.6714 -0.9049  0.2767
 5820TIP3    H238952   5.997   5.106   3.093 -0.4112  1.1352  2.8064
 5821TIP3   OH238953   2.568   5.422   0.631 -0.2828  0.5466  0.6506
 5821TIP3    H138954   2.662   5.404   0.630 -0.0826  1.0787  3.8085
 5821TIP3    H238955   2.527   5.338   0.613  0.7726  0.3200 -0.7907
 5822TIP3   OH238956   5.936   3.613  13.527  0.0976 -0.0117  0.0584
 5822TIP3    H138957   5.938   3.708  13.519  0.6877 -0.3146 -4.0672
 5822TIP3    H238958   6.028   3.588  13.538 -0.1127 -0.1277  1.8277
 5823TIP3   OH238959   3.377   1.634   4.498 -0.1814 -0.3260 -0.3559
 5823TIP3    H138960   3.321   1.592   4.564 -0.4233  1.7038  0.7751
 5823TIP3    H238961   3.318   1.652   4.425 -0.6862  0.3769  0.2063
 5824TIP3   OH238962   1.881   0.203   0.485 -0.0557  0.2291 -0.2893
 5824TIP3    H138963   1.803   0.148   0.488 -0.4949  0.8557 -0.1010
 5824TIP3    H238964   1.935   0.172   0.557 -1.1125  1.2211  0.9554
 5825TIP3   OH238965   6.338   1.992   4.540  0.6918 -0.0349 -0.1430
 5825TIP3    H138966   6.321   1.901   4.564  2.2542  0.1501  1.8048
 5825TIP3    H238967   6.433   1.999   4.534  0.6428  1.6736  0.5810
 5826TIP3   OH238968   3.936   5.182  11.822 -0.2640  0.2599  0.4025
 5826TIP3    H138969   3.928   5.277  11.819 -0.4878  0.2404  0.3790
 5826TIP3    H238970   4.030   5.165  11.816 -0.2587  0.4626 -0.1251
 5827TIP3   OH238971   4.882   0.619   3.609 -0.0370 -0.1660  0.2907
 5827TIP3    H138972   4.822   0.691   3.595 -1.5032 -1.6946 -1.5945
 5827TIP3    H238973   4.827   0.541   3.610  1.7919 -1.5274 -0.6633
 5828TIP3   OH238974   1.853   5.808   3.462 -0.6949  0.4474 -0.2526
 5828TIP3    H138975   1.880   5.898   3.481  1.8487 -0.3730  0.2117
 5828TIP3    H238976   1.899   5.786   3.381  0.6201 -1.2064  0.9042
 5829TIP3   OH238977   3.135   3.673  14.922  0.4081 -0.2970  0.3722
 5829TIP3    H138978   3.067   3.606  14.933 -0.4886  0.3443 -1.1161
 5829TIP3    H238979   3.183   3.646  14.844  0.8106  0.1481  0.4648
 5830TIP3   OH238980   0.062   4.427   0.896 -0.1645  0.0603 -0.2082
 5830TIP3    H138981  -0.003   4.472   0.949 -0.1568 -0.0876 -0.0726
 5830TIP3    H238982   0.023   4.343   0.875  0.5261 -0.5899  1.0325
 5831TIP3   OH238983   0.042   0.614   4.060 -0.0645 -0.2864 -0.1489
 5831TIP3    H138984   0.062   0.542   4.000  2.4941  1.1256 -1.0951
 5831TIP3    H238985  -0.016   0.576   4.125  0.0249 -2.8146 -1.4797
 5832TIP3   OH238986   4.887   3.852  11.836 -0.2531  0.3102  0.3440
 5832TIP3    H138987   4.823   3.921  11.855  0.6334  0.7835  1.6336
 5832TIP3    H238988   4.842   3.795  11.773 -1.5845  1.1747  0.4915
 5833TIP3   OH238989   6.038   6.182  11.505 -0.2353  0.3407 -0.0985
 5833TIP3    H138990   6.014   6.120  11.435 -0.8745  0.4262  0.0385
 5833TIP3    H238991   6.024   6.133  11.586 -0.1390  0.4616 -0.0089
 5834TIP3   OH238992   1.426   4.925  13.185  0.2941 -0.1689 -0.0333
 5834TIP3    H138993   1.479   4.988  13.136 -0.1547 -1.4332 -2.1711
 5834TIP3    H238994   1.471   4.841  13.175 -0.3503 -0.6393  0.8793
 5835TIP3   OH238995   2.879   6.557   6.007 -0.0220 -0.0532 -0.8209
 5835TIP3    H138996   2.969   6.525   6.018 -0.3998 -1.1816 -0.9745
 5835TIP3    H238997   2.825   6.479   6.011 -1.0244  0.6441 -0.5653
 5836TIP3   OH238998   3.971   6.020   3.217  0.2494  0.2230 -0.1462
 5836TIP3    H138999   3.988   6.082   3.146  0.3474  0.5581  0.1687
 5836TIP3    H239000   4.020   6.054   3.291  1.5997 -1.1005 -0.4045
 5837TIP3   OH239001   4.970   4.672  15.581  0.5739 -0.0843  0.1997
 5837TIP3    H139002   4.955   4.761  15.550 -1.0890  0.4600  2.4634
 5837TIP3    H239003   5.060   4.673  15.612  0.7460  0.6403 -0.2907
 5838TIP3   OH239004   2.476   4.759   3.314  0.5248 -0.1912  0.0546
 5838TIP3    H139005   2.478   4.774   3.409  0.8438 -2.8649  0.5066
 5838TIP3    H239006   2.566   4.770   3.286  0.3122  1.3180 -0.0775
 5839TIP3   OH239007   3.188   3.093  12.918  0.1781 -0.6542 -0.1831
 5839TIP3    H139008   3.199   3.030  12.989  1.7504 -0.0655  0.1074
 5839TIP3    H239009   3.171   3.176  12.962 -1.4487 -0.7729 -0.5551
 5840TIP3   OH239010   3.613   6.207   5.228  0.2391  0.1660 -0.2687
 5840TIP3    H139011   3.578   6.152   5.157 -0.7854 -0.3955  0.6570
 5840TIP3    H239012   3.625   6.293   5.188  0.5996 -0.3908 -1.3814
 5841TIP3   OH239013   6.387   6.529  15.677  0.6707 -0.5945 -0.2693
 5841TIP3    H139014   6.446   6.599  15.648  0.2271 -0.7039 -1.4599
 5841TIP3    H239015   6.383   6.540  15.772  1.3350  0.4243 -0.3435
 5842TIP3   OH239016   6.718   2.192  12.372  0.2605  0.0025 -0.3592
 5842TIP3    H139017   6.766   2.247  12.433  1.7111 -0.8575 -0.7033
 5842TIP3    H239018   6.675   2.254  12.313  1.5855  0.7723 -0.5335
 5843TIP3   OH239019   5.190   6.009   2.152  0.2492  1.1587  0.5303
 5843TIP3    H139020   5.181   6.033   2.060 -1.1853  3.2087  1.1753
 5843TIP3    H239021   5.102   5.986   2.180  0.6558  0.6682  1.4325
 5844TIP3   OH239022   4.684   3.542   0.217 -0.4104  0.0757  0.2332
 5844TIP3    H139023   4.723   3.508   0.136 -0.9247 -2.6670  1.0908
 5844TIP3    H239024   4.602   3.494   0.226 -0.4499  0.4825  2.2678
 5845TIP3   OH239025   1.748   3.540   4.511 -0.2255 -0.1974  0.7204
 5845TIP3    H139026   1.688   3.615   4.502  0.5603  0.5247  1.4254
 5845TIP3    H239027   1.828   3.569   4.468  0.1298 -0.5758  1.1329
 5846TIP3   OH239028   2.442   1.819  12.071  0.0275 -0.1761 -0.3105
 5846TIP3    H139029   2.403   1.906  12.082  0.4674 -0.1630  1.2490
 5846TIP3    H239030   2.374   1.758  12.099 -0.1213 -0.3160 -0.9718
 5847TIP3   OH239031   0.397   6.156  11.394  0.5215  0.3572 -0.3080
 5847TIP3    H139032   0.432   6.073  11.426 -1.0886 -0.1794  0.1250
 5847TIP3    H239033   0.369   6.138  11.304 -3.0920 -0.6062  0.9154
 5848TIP3   OH239034   1.884   1.759   5.626 -0.0541 -0.5807  0.1154
 5848TIP3    H139035   1.922   1.773   5.540  0.7542 -0.3350  0.5006
 5848TIP3    H239036   1.879   1.664   5.635  2.1698 -0.6766  0.7605
 5849TIP3   OH239037   5.211   2.675   3.698 -0.3140 -0.3074  0.2150
 5849TIP3    H139038   5.176   2.761   3.676 -1.5357 -0.6393  0.7737
 5849TIP3    H239039   5.246   2.641   3.615  0.9427  1.0518  0.1654
 5850TIP3   OH239040   3.363   5.274  15.804  0.1721  0.0185  0.2141
 5850TIP3    H139041   3.426   5.330  15.851 -0.3404  0.4780  0.3598
 5850TIP3    H239042   3.391   5.278  15.713  1.2254 -0.9411  0.4796
 5851TIP3   OH239043   4.766   2.663  13.479 -0.3042 -0.3299 -0.2482
 5851TIP3    H139044   4.748   2.745  13.525 -0.4297  0.8900 -2.3708
 5851TIP3    H239045   4.858   2.645  13.497  0.0102  0.8505 -0.5654
 5852TIP3   OH239046   4.341   2.785  17.010 -0.3267  0.2376 -0.0844
 5852TIP3    H139047   4.423   2.823  16.977  0.3930 -1.1743  0.0461
 5852TIP3    H239048   4.343   2.694  16.981 -0.0245 -0.8804  3.2432
 5853TIP3   OH239049   1.839   5.569   0.745  0.1123 -0.0008  0.3686
 5853TIP3    H139050   1.908   5.608   0.691  1.4680 -1.7534  0.8015
 5853TIP3    H239051   1.782   5.642   0.768  0.4675  1.0716 -2.0123
 5854TIP3   OH239052   6.657   1.680  14.706 -0.1547 -0.2201  0.2369
 5854TIP3    H139053   6.615   1.745  14.649  1.4625  0.4330 -0.2279
 5854TIP3    H239054   6.728   1.727  14.748  0.4302 -1.4382  0.6428
 5855TIP3   OH239055   4.150   0.042   4.758  0.6423 -0.1762 -0.3731
 5855TIP3    H139056   4.181   0.131   4.777  0.1684 -0.1434  0.2520
 5855TIP3    H239057   4.224  -0.000   4.716  1.2474  0.1748  0.3270
 5856TIP3   OH239058   4.378   0.542  14.428 -0.1514 -0.6584  0.0924
 5856TIP3    H139059   4.341   0.567  14.513 -0.1035 -0.1300 -0.0419
 5856TIP3    H239060   4.311   0.487  14.388 -0.6234 -0.0476  0.0268
 5857TIP3   OH239061   2.533   5.909  12.097  0.2601  0.0360  0.0271
 5857TIP3    H139062   2.590   5.972  12.052  1.0033  0.1278  1.0784
 5857TIP3    H239063   2.482   5.963  12.157  3.1881 -0.6706  3.3087
 5858TIP3   OH239064   4.197   4.039  12.013  0.5621 -0.8972 -0.0035
 5858TIP3    H139065   4.110   4.076  12.028  0.7024 -0.3832 -0.4118
 5858TIP3    H239066   4.180   3.948  11.987  0.2949 -1.5978  2.5122
 5859TIP3   OH239067   2.105   2.880  13.420 -0.0753  0.1888  0.1463
 5859TIP3    H139068   2.017   2.849  13.437  0.0390 -0.5125 -0.5431
 5859TIP3    H239069   2.161   2.827  13.476  0.0664 -0.4864 -0.6286
 5860TIP3   OH239070   3.802   1.405   3.911  0.0858  0.0388 -0.7438
 5860TIP3    H139071   3.728   1.460   3.935 -0.5297 -0.7108 -0.8936
 5860TIP3    H239072   3.874   1.466   3.897 -0.6300  0.8148 -1.0941
 5861TIP3   OH239073   3.121   4.490   5.061  0.2567 -0.4651  0.0143
 5861TIP3    H139074   3.054   4.447   5.009  1.1284 -0.1056 -1.4431
 5861TIP3    H239075   3.121   4.581   5.030  0.7939 -0.2532  0.6214
 5862TIP3   OH239076   5.073   1.097  13.479 -0.0693  0.1819 -0.5216
 5862TIP3    H139077   5.002   1.036  13.459  0.7685  0.0640 -3.2688
 5862TIP3    H239078   5.093   1.080  13.571 -2.0892 -1.3488 -0.3285
 5863TIP3   OH239079   1.362   4.353  13.422 -0.0172 -0.3183  0.0093
 5863TIP3    H139080   1.286   4.303  13.390 -0.7421  1.1455 -0.5983
 5863TIP3    H239081   1.393   4.302  13.497 -1.0767 -1.3897 -0.2426
 5864TIP3   OH239082   3.440   6.463   4.669 -0.2775 -0.6038 -0.0165
 5864TIP3    H139083   3.476   6.393   4.722  2.0647 -0.7756 -1.7564
 5864TIP3    H239084   3.471   6.543   4.711 -1.5352 -0.6171  0.9809
 5865TIP3   OH239085   0.130   1.274   4.007 -0.3361  0.1690 -0.7962
 5865TIP3    H139086   0.040   1.285   4.038 -0.4636 -0.7380 -0.8167
 5865TIP3    H239087   0.127   1.194   3.954  1.2664 -2.0535  2.3070
 5866TIP3   OH239088   3.825   5.536   2.025  0.3614 -0.1436  0.2409
 5866TIP3    H139089   3.828   5.472   1.954 -0.8087 -1.5221  1.3831
 5866TIP3    H239090   3.906   5.586   2.016  1.3076 -1.7938 -0.6918
 5867TIP3   OH239091   5.402   0.307  11.200 -0.2067 -0.0998 -0.3582
 5867TIP3    H139092   5.341   0.331  11.270  0.1718 -0.6974  0.1819
 5867TIP3    H239093   5.401   0.382  11.141 -0.7704  0.2793  0.1267
 5868TIP3   OH239094   1.969   0.223  13.071  0.4712 -0.6123 -0.5745
 5868TIP3    H139095   1.948   0.310  13.038 -0.8742 -1.0593 -0.9490
 5868TIP3    H239096   2.062   0.212  13.052  0.6876  0.7916 -0.3915
 5869TIP3   OH239097   4.468   1.203  11.242  0.5761 -0.4514  0.3474
 5869TIP3    H139098   4.559   1.220  11.219  0.6156  1.1848  1.6950
 5869TIP3    H239099   4.417   1.255  11.179  0.6400  1.5305  1.9067
 5870TIP3   OH239100   4.404   1.385  15.725  0.0646  0.2346 -0.7138
 5870TIP3    H139101   4.395   1.428  15.810  1.6783 -4.0308  1.7694
 5870TIP3    H239102   4.493   1.351  15.725 -0.5937 -1.6375 -3.2445
 5871TIP3   OH239103   4.653   5.871  16.806  0.1691 -0.3922  0.1904
 5871TIP3    H139104   4.747   5.889  16.804 -0.1588  1.3419 -0.5792
 5871TIP3    H239105   4.624   5.907  16.890  0.1817 -0.8537  0.3897
 5872TIP3   OH239106   2.118   3.106  15.807  0.2482 -0.0879 -0.1812
 5872TIP3    H139107   2.027   3.132  15.794  0.8410  1.4125 -1.3636
 5872TIP3    H239108   2.125   3.021  15.765 -0.7562 -0.5033  0.4670
 5873TIP3   OH239109   6.427   2.740   1.853 -0.0955 -0.3411  0.2478
 5873TIP3    H139110   6.363   2.680   1.814  0.2642 -1.0041  0.6552
 5873TIP3    H239111   6.464   2.690   1.926  0.6012  0.1858  0.2574
 5874TIP3   OH239112   2.254   2.700   2.921 -0.0019 -0.3001 -0.6247
 5874TIP3    H139113   2.343   2.701   2.887  0.7541  0.8726  1.3122
 5874TIP3    H239114   2.231   2.607   2.927  1.2313 -0.6123 -0.7246
 5875TIP3   OH239115   5.467   3.685  15.566 -0.1419  0.4035  0.3753
 5875TIP3    H139116   5.526   3.742  15.614  0.0418 -1.3679  2.2917
 5875TIP3    H239117   5.387   3.684  15.618 -0.1983 -0.9411  0.2752
 5876TIP3   OH239118   6.270   6.283  15.680 -0.3287  0.6769 -0.5856
 5876TIP3    H139119   6.232   6.296  15.767 -1.1999  0.0633 -0.8678
 5876TIP3    H239120   6.305   6.368  15.656 -1.3087  1.1903 -0.2108
 5877TIP3   OH239121   2.816   3.260   0.313 -0.4151 -0.2483 -0.3908
 5877TIP3    H139122   2.825   3.294   0.402 -0.1485 -0.7984 -0.2048
 5877TIP3    H239123   2.812   3.338   0.258  0.7819  0.0826 -0.0265
 5878TIP3   OH239124   2.332   2.451   4.434 -0.1891  0.1496 -0.0790
 5878TIP3    H139125   2.258   2.404   4.474  1.6802 -2.7341  0.1449
 5878TIP3    H239126   2.299   2.480   4.349 -1.2060 -2.2718 -0.5479
 5879TIP3   OH239127   0.159   4.781  12.301 -0.0384 -0.9455 -0.1406
 5879TIP3    H139128   0.229   4.816  12.245  0.1915 -1.5418 -0.2271
 5879TIP3    H239129   0.201   4.711  12.351  0.6611  1.7315  3.2426
 5880TIP3   OH239130   1.492   2.234  13.296  0.1739  0.1828 -0.2101
 5880TIP3    H139131   1.471   2.225  13.389 -2.0247  1.5160 -0.5400
 5880TIP3    H239132   1.560   2.302  13.294  2.3288 -1.8619  0.6079
 5881TIP3   OH239133   5.514   3.646   4.978  0.1218  0.1451  0.0724
 5881TIP3    H139134   5.426   3.615   4.961 -0.5717  2.0619 -0.0182
 5881TIP3    H239135   5.515   3.665   5.072  0.9219 -1.3091  0.3676
 5882TIP3   OH239136   0.159   3.578  14.747  0.1995  0.2405  0.5013
 5882TIP3    H139137   0.157   3.633  14.825 -0.9767  3.2251 -1.5587
 5882TIP3    H239138   0.071   3.542  14.741 -0.3057  1.6067 -0.5103
 5883TIP3   OH239139   5.863   2.801   3.042  0.0528  0.6015  0.2262
 5883TIP3    H139140   5.825   2.730   3.094  0.6819  0.6435  0.7518
 5883TIP3    H239141   5.795   2.824   2.979 -0.3970 -0.0302  0.4795
 5884TIP3   OH239142   4.252   2.426   1.698 -1.0593  0.6000 -0.1252
 5884TIP3    H139143   4.286   2.452   1.784 -0.8922 -0.5924  0.1810
 5884TIP3    H239144   4.298   2.483   1.636 -2.0576  2.2968  0.6443
 5885TIP3   OH239145   6.158   0.438  11.394 -0.1327 -0.1557 -0.5650
 5885TIP3    H139146   6.132   0.474  11.479 -2.2362 -1.6089 -0.5684
 5885TIP3    H239147   6.212   0.362  11.416  0.8409  0.5324 -0.5476
 5886TIP3   OH239148   2.710   0.979  13.144  0.1337 -0.4148  0.3042
 5886TIP3    H139149   2.748   1.036  13.077  0.6742 -0.7301  0.3335
 5886TIP3    H239150   2.745   0.892  13.123  0.7185 -0.4295  1.2988
 5887TIP3   OH239151   5.836   2.096  13.316 -0.0970 -0.1085  0.3474
 5887TIP3    H139152   5.745   2.082  13.291 -0.8450 -0.0622  2.9383
 5887TIP3    H239153   5.861   2.015  13.361  0.3265  0.8723  1.9090
 5888TIP3   OH239154   0.402   4.244   1.814  0.2054 -0.1132  0.4950
 5888TIP3    H139155   0.469   4.219   1.878  0.0309  2.0625  1.5855
 5888TIP3    H239156   0.401   4.172   1.751  0.8895 -1.9675  2.5416
 5889TIP3   OH239157   6.802   2.808   3.979  0.2153 -0.1545 -0.0739
 5889TIP3    H139158   6.861   2.766   3.916  2.7021  1.8053  0.8754
 5889TIP3    H239159   6.809   2.754   4.058  0.0861 -0.3928 -0.2239
 5890TIP3   OH239160   0.636   2.454   4.177  0.1654 -0.2928 -0.3405
 5890TIP3    H139161   0.675   2.503   4.104  0.4107  0.3578  0.2170
 5890TIP3    H239162   0.706   2.448   4.242 -0.7813  1.2738  0.8557
 5891TIP3   OH239163   3.705   5.517  13.108 -0.5187 -0.1450  0.2255
 5891TIP3    H139164   3.760   5.593  13.093 -1.1810  0.3266  0.1563
 5891TIP3    H239165   3.617   5.553  13.123 -0.8614 -0.8947  0.0758
 5892TIP3   OH239166   2.731   2.400   5.092 -0.4887  0.3277 -0.1933
 5892TIP3    H139167   2.823   2.424   5.087 -0.2684 -0.0157  1.8330
 5892TIP3    H239168   2.689   2.474   5.135 -1.4204  1.0911 -2.3624
 5893TIP3   OH239169   6.720   0.851  14.822  0.5720 -0.0475  0.0335
 5893TIP3    H139170   6.697   0.852  14.915 -2.3862 -0.0397 -0.6744
 5893TIP3    H239171   6.681   0.771  14.788  3.4359 -1.1473 -0.8130
 5894TIP3   OH239172   1.229   2.157  16.974  0.2530 -0.1161  0.4041
 5894TIP3    H139173   1.212   2.134  16.883  2.7254 -0.2245 -0.0760
 5894TIP3    H239174   1.167   2.105  17.025  0.2934 -1.6695 -1.1060
 5895TIP3   OH239175   5.349   1.381  13.825  0.4194  0.1016 -0.1987
 5895TIP3    H139176   5.426   1.406  13.878  0.0387 -2.3830  1.6197
 5895TIP3    H239177   5.275   1.388  13.886 -0.0836 -2.3856 -0.4695
 5896TIP3   OH239178   6.000   3.258   6.214  0.5225 -0.2090  0.1411
 5896TIP3    H139179   5.989   3.318   6.289  1.5277 -0.2172  0.3071
 5896TIP3    H239180   5.999   3.171   6.253  0.5964 -0.2324  0.0908
 5897TIP3   OH239181   1.721   2.757   5.389 -0.4057  0.0450 -0.1093
 5897TIP3    H139182   1.812   2.729   5.394 -0.2667  0.2998 -1.1308
 5897TIP3    H239183   1.671   2.675   5.383 -0.0876 -0.0575 -1.7540
 5898TIP3   OH239184   2.177   2.845  12.038 -0.8292  0.4336 -0.1580
 5898TIP3    H139185   2.115   2.918  12.028 -0.9258  0.3668 -0.0495
 5898TIP3    H239186   2.223   2.864  12.120 -0.9495  0.3014 -0.0600
 5899TIP3   OH239187   2.932   3.940   4.589  0.5183  0.3099  0.1153
 5899TIP3    H139188   2.966   3.998   4.657  2.4105 -0.4646 -0.1492
 5899TIP3    H239189   2.973   3.972   4.508  1.1515 -1.0333 -0.1111
 5900TIP3   OH239190   0.671   0.517  13.103  0.9005  0.9167 -0.2739
 5900TIP3    H139191   0.578   0.501  13.088  0.9312 -0.4895  0.9376
 5900TIP3    H239192   0.680   0.612  13.096 -1.2613  1.4450  2.8947
 5901TIP3   OH239193   6.376   0.745   5.630  0.1773 -0.2477 -0.1275
 5901TIP3    H139194   6.382   0.681   5.700 -0.4391  0.9290  1.0285
 5901TIP3    H239195   6.409   0.826   5.669 -2.4858  1.0195 -0.4055
 5902TIP3   OH239196   3.383   3.110   0.862 -0.3515 -0.8543 -0.4530
 5902TIP3    H139197   3.361   3.112   0.956 -1.1330  0.7181 -0.6551
 5902TIP3    H239198   3.476   3.087   0.860  0.4192  1.8799  0.8674
 5903TIP3   OH239199   4.729   1.057   6.411  0.0655  0.0649 -0.3160
 5903TIP3    H139200   4.680   1.104   6.478 -2.4729  0.3148 -2.2908
 5903TIP3    H239201   4.812   1.105   6.403  0.7781 -0.4535  3.1575
 5904TIP3   OH239202   1.705   0.810   4.988 -0.7432 -0.0909 -0.1652
 5904TIP3    H139203   1.714   0.757   5.067 -0.8479  0.3248  0.1275
 5904TIP3    H239204   1.780   0.784   4.934  0.5492  1.1361  0.9688
 5905TIP3   OH239205   1.613   2.242  12.649 -0.4317 -0.0009 -0.1808
 5905TIP3    H139206   1.532   2.292  12.645 -0.3705  0.2236  1.1757
 5905TIP3    H239207   1.605   2.189  12.729  1.0039  0.4733  0.2915
 5906TIP3   OH239208   4.585   0.854   3.301  0.2106 -0.2510 -0.0886
 5906TIP3    H139209   4.507   0.847   3.355  1.2496 -1.1684  1.3127
 5906TIP3    H239210   4.561   0.813   3.218 -1.5257  1.5660 -0.5077
 5907TIP3   OH239211   0.107   2.025   0.295  0.1817  0.0802 -0.1064
 5907TIP3    H139212   0.191   2.035   0.250  0.9113  0.8673  1.3598
 5907TIP3    H239213   0.046   2.079   0.245  1.0218  1.0919 -0.0720
 5908TIP3   OH239214   6.039   2.644   2.838  0.1728  0.4290 -0.5458
 5908TIP3    H139215   6.073   2.674   2.754 -0.8520 -0.7038 -1.3965
 5908TIP3    H239216   6.014   2.724   2.884  1.2815  1.0924 -1.0758
 5909TIP3   OH239217   1.834   0.744  16.889 -0.1580  0.0654 -0.1270
 5909TIP3    H139218   1.874   0.737  16.976  0.4020 -1.1878 -0.4687
 5909TIP3    H239219   1.799   0.656  16.871 -0.6069  0.4160 -1.0008
 5910TIP3   OH239220   1.913   2.538   0.753 -0.2256  0.6882 -0.0969
 5910TIP3    H139221   1.903   2.479   0.678 -1.5128 -1.3615  1.6160
 5910TIP3    H239222   2.006   2.534   0.775 -0.4514 -1.5575  0.6188
 5911TIP3   OH239223   4.557   3.860   1.032  0.1164 -0.2442  0.2742
 5911TIP3    H139224   4.482   3.882   1.087  0.1573  0.5296  0.0394
 5911TIP3    H239225   4.542   3.770   1.005 -0.5445 -0.2141  0.5286
 5912TIP3   OH239226   6.612   0.391  16.003  0.0688  0.1597  0.2743
 5912TIP3    H139227   6.670   0.452  15.956  0.6017  0.4742  1.3165
 5912TIP3    H239228   6.613   0.423  16.093 -1.9050  0.2893  0.2740
 5913TIP3   OH239229   5.687   6.769   3.829  0.4322  0.4198 -0.1257
 5913TIP3    H139230   5.686   6.684   3.873  1.1466  1.0686  1.1681
 5913TIP3    H239231   5.661   6.832   3.897 -0.8297  1.1587 -1.2593
 5914TIP3   OH239232   1.120   5.665   5.521 -0.3537 -0.3388  0.1923
 5914TIP3    H139233   1.157   5.662   5.432 -0.8575  0.5776 -0.0499
 5914TIP3    H239234   1.196   5.654   5.579  0.1901  0.6460 -0.3222
 5915TIP3   OH239235   5.720   1.424   4.353 -0.1158  0.4902  0.5378
 5915TIP3    H139236   5.719   1.405   4.259  1.0174  1.4224  0.3249
 5915TIP3    H239237   5.712   1.519   4.358  0.3390  0.4845  1.3707
 5916TIP3   OH239238   1.632   3.482  14.805  0.0242 -0.1913  0.1201
 5916TIP3    H139239   1.689   3.456  14.879 -1.1358 -1.8271  0.4824
 5916TIP3    H239240   1.629   3.404  14.749  1.0834  1.1219 -1.8014
 5917TIP3   OH239241   0.092   4.133   1.203 -0.3893 -0.5644 -0.0142
 5917TIP3    H139242   0.023   4.143   1.137 -1.4413  1.6285  1.3558
 5917TIP3    H239243   0.100   4.220   1.242  0.4932 -1.7203  2.4769
 5918TIP3   OH239244   3.830   5.711  14.310  0.3043  0.1623  0.4798
 5918TIP3    H139245   3.815   5.658  14.231 -3.7125  0.0947  1.1863
 5918TIP3    H239246   3.774   5.788  14.298  0.7359  0.8452  2.6353
 5919TIP3   OH239247   3.653   1.608   5.228  0.6464  0.0431 -0.0413
 5919TIP3    H139248   3.729   1.664   5.213  1.1504 -0.4711  0.5654
 5919TIP3    H239249   3.678   1.522   5.194  0.5464 -0.2695  0.6537
 5920TIP3   OH239250   1.562   5.982  15.928  0.0295 -0.4407 -0.0868
 5920TIP3    H139251   1.559   5.926  15.850  1.6171 -0.4688 -0.1434
 5920TIP3    H239252   1.654   6.005  15.937 -0.3785  0.8213  0.9060
 5921TIP3   OH239253   3.999   4.822   4.831 -0.2905  0.0812 -0.6105
 5921TIP3    H139254   4.081   4.805   4.785 -0.7409 -0.3038 -1.2858
 5921TIP3    H239255   4.026   4.857   4.916  0.5893 -0.6109 -0.5915
 5922TIP3   OH239256   1.654   0.856   2.581 -0.3087 -0.2551 -0.0443
 5922TIP3    H139257   1.742   0.820   2.567 -0.1843 -0.2836  0.8197
 5922TIP3    H239258   1.657   0.942   2.538  0.6566  0.4410  1.3708
 5923TIP3   OH239259   4.395   4.744   5.701 -0.3261 -0.1456 -0.2117
 5923TIP3    H139260   4.403   4.659   5.658  1.3363  0.5653 -1.3392
 5923TIP3    H239261   4.438   4.805   5.642 -0.5119  1.3159  1.1343
 5924TIP3   OH239262   4.096   3.510  14.289  0.3988  0.0540 -0.1744
 5924TIP3    H139263   4.047   3.499  14.208 -0.3674 -0.4467  0.3449
 5924TIP3    H239264   4.140   3.594  14.280  0.4040 -0.0519 -1.1501
 5925TIP3   OH239265   6.642   0.579   3.528 -0.1028  0.0605  0.4512
 5925TIP3    H139266   6.654   0.632   3.608 -1.1354  1.2068 -0.1326
 5925TIP3    H239267   6.712   0.608   3.470 -0.3055  0.3599  0.3552
 5926TIP3   OH239268   1.084   2.750  12.646  0.0634  0.6760  0.7494
 5926TIP3    H139269   1.091   2.724  12.554 -0.5623 -1.8649  1.3684
 5926TIP3    H239270   1.164   2.800  12.662  0.8704 -0.0583 -0.8079
 5927TIP3   OH239271   1.748   3.536  14.232 -0.1447 -0.2450  0.5657
 5927TIP3    H139272   1.841   3.549  14.253 -0.0591  2.0119 -0.9677
 5927TIP3    H239273   1.702   3.598  14.290 -0.5557 -0.2410  0.2395
 5928TIP3   OH239274   3.362   4.991  13.431  0.4830 -0.5348  0.1109
 5928TIP3    H139275   3.446   5.034  13.446 -0.0202  0.4337  0.2005
 5928TIP3    H239276   3.385   4.906  13.393  1.5210 -0.5751  0.8159
 5929TIP3   OH239277   6.283   4.811  14.920 -0.9218  0.5542 -0.3277
 5929TIP3    H139278   6.298   4.902  14.894 -1.3371  0.4928 -0.7947
 5929TIP3    H239279   6.340   4.760  14.863 -0.5730  0.5338  0.0422
 5930TIP3   OH239280   4.606   0.642   5.075 -0.5714  0.2528  0.3353
 5930TIP3    H139281   4.595   0.553   5.042  1.7134 -0.3856  1.2273
 5930TIP3    H239282   4.681   0.676   5.026  0.4030  0.6493  2.0596
 5931TIP3   OH239283   0.127   3.454   0.898 -0.1494 -0.0379 -0.0526
 5931TIP3    H139284   0.198   3.512   0.925 -0.0154 -0.1190 -0.2315
 5931TIP3    H239285   0.167   3.394   0.836  0.1758 -1.6513  1.6976
 5932TIP3   OH239286   1.689   2.577   4.988  0.0285  0.0992  0.0603
 5932TIP3    H139287   1.619   2.641   5.002  0.4601  0.4286  0.7124
 5932TIP3    H239288   1.764   2.612   5.036  1.3548  0.9062 -2.5478
 5933TIP3   OH239289   1.464   5.067  11.818 -0.7951 -0.4966  0.1442
 5933TIP3    H139290   1.551   5.061  11.779 -0.9693  0.0228 -0.3204
 5933TIP3    H239291   1.432   4.977  11.818 -0.6572 -0.5502 -0.5859
 5934TIP3   OH239292   4.539   3.257   6.326  0.4714 -0.6044 -0.3328
 5934TIP3    H139293   4.476   3.318   6.288  1.2800  1.1975  1.1807
 5934TIP3    H239294   4.484   3.191   6.370 -0.4051  1.3928  1.6683
 5935TIP3   OH239295   2.734   4.298   1.413  0.2894 -0.3533  0.4916
 5935TIP3    H139296   2.827   4.276   1.421  0.2607 -0.6155  0.1192
 5935TIP3    H239297   2.732   4.378   1.361  0.0870 -2.8582 -3.5672
 5936TIP3   OH239298   1.739   3.030  13.957 -0.5191 -0.3427  0.3834
 5936TIP3    H139299   1.821   3.064  13.995  0.0492 -0.8143 -0.4050
 5936TIP3    H239300   1.767   2.980  13.880 -1.6333  0.3034 -0.4616
 5937TIP3   OH239301   1.765   1.069   0.406 -0.6432 -0.1228 -0.1514
 5937TIP3    H139302   1.677   1.037   0.426 -0.9490  0.2034 -0.9468
 5937TIP3    H239303   1.822   0.993   0.417 -1.0785 -0.4265 -0.0190
 5938TIP3   OH239304   5.517   2.482   4.915 -1.3843  0.3721 -0.2970
 5938TIP3    H139305   5.496   2.390   4.928  0.0557 -0.2699 -2.2698
 5938TIP3    H239306   5.552   2.487   4.826  1.8362  2.2390  0.9751
 5939TIP3   OH239307   4.886   5.739  14.204  0.0211 -0.4124  0.6925
 5939TIP3    H139308   4.794   5.712  14.209  0.0385 -1.2613 -2.6494
 5939TIP3    H239309   4.935   5.657  14.196  1.0087  0.0873  1.4594
 5940TIP3   OH239310   5.314   3.737  15.167 -0.5015  0.1168  0.7202
 5940TIP3    H139311   5.326   3.805  15.102 -0.7468 -1.8267 -1.4253
 5940TIP3    H239312   5.236   3.764  15.216  0.4397  2.2446  1.1188
 5941TIP3   OH239313   2.682   3.153   6.112  0.0309  0.1250  0.0049
 5941TIP3    H139314   2.657   3.243   6.088 -0.0340  0.0922 -0.0522
 5941TIP3    H239315   2.700   3.110   6.029  0.3323  0.1626  0.0507
 5942TIP3   OH239316   3.603   4.801  16.049  0.5237  0.0262 -0.1496
 5942TIP3    H139317   3.602   4.896  16.038  2.3746  0.1551  0.6488
 5942TIP3    H239318   3.620   4.788  16.142 -0.4909 -1.0932 -0.1143
 5943TIP3   OH239319   3.933   2.340   5.525  0.3014 -0.0855 -0.3293
 5943TIP3    H139320   3.876   2.409   5.560  2.0135  1.3722 -0.3459
 5943TIP3    H239321   3.926   2.268   5.588 -0.0863  0.8023  0.6522
 5944TIP3   OH239322   2.698   3.780  14.242 -0.6595  0.7200  0.2106
 5944TIP3    H139323   2.789   3.789  14.212  0.0476  0.0708  2.1203
 5944TIP3    H239324   2.678   3.864  14.283 -0.5338  0.4357  0.8476
 5945TIP3   OH239325   3.954   0.194  15.320 -0.0325 -0.3471 -0.0257
 5945TIP3    H139326   3.957   0.287  15.301  0.6981 -0.8679 -2.5824
 5945TIP3    H239327   3.870   0.180  15.363 -0.0254  1.5160  0.6036
 5946TIP3   OH239328   5.394   6.510  13.489 -0.0408 -0.0856  0.1335
 5946TIP3    H139329   5.315   6.563  13.481  0.2368  0.1199 -1.4074
 5946TIP3    H239330   5.414   6.509  13.583 -0.7114  1.5470  0.2982
 5947TIP3   OH239331   2.972   4.601  16.428  0.9015 -0.0477 -0.1053
 5947TIP3    H139332   3.004   4.690  16.440  1.0322 -0.2368  1.0145
 5947TIP3    H239333   3.001   4.554  16.506 -3.0251  0.0297  1.5500
 5948TIP3   OH239334   2.661   4.875   2.920 -0.0056 -0.5724 -0.6701
 5948TIP3    H139335   2.695   4.787   2.905  1.3220  0.0990 -1.7543
 5948TIP3    H239336   2.703   4.928   2.852 -0.9405  0.8531 -0.1438
 5949TIP3   OH239337   1.330   5.922   3.319  0.0173  0.3063 -0.1353
 5949TIP3    H139338   1.261   5.916   3.385 -1.6958  2.9047 -1.6155
 5949TIP3    H239339   1.408   5.949   3.369 -0.9755  1.1369  1.0080
 5950TIP3   OH239340   2.453   3.938  13.948  0.3835  0.5564  0.2482
 5950TIP3    H139341   2.396   3.976  14.015  0.5868 -0.0860  0.7831
 5950TIP3    H239342   2.471   3.849  13.979  2.1664  0.9452  0.3896
 5951TIP3   OH239343   0.503   2.214  15.668 -0.0656 -0.2122 -0.3388
 5951TIP3    H139344   0.432   2.167  15.712 -0.0024 -0.4791 -0.5206
 5951TIP3    H239345   0.482   2.207  15.575  0.9910 -1.5855 -0.4940
 5952TIP3   OH239346   5.310   6.340  15.058 -0.0756  0.5881 -0.2326
 5952TIP3    H139347   5.240   6.278  15.037  0.0067  0.1777  0.7012
 5952TIP3    H239348   5.344   6.367  14.973 -0.5995 -0.0886 -0.6618
 5953TIP3   OH239349   2.781   6.345   1.325  0.0660 -0.5967  0.1411
 5953TIP3    H139350   2.754   6.254   1.330 -0.0480 -0.7113 -1.9483
 5953TIP3    H239351   2.839   6.348   1.249  0.0401  1.0655  0.1732
 5954TIP3   OH239352   0.419   2.062  15.136 -0.2282 -0.1380  0.2310
 5954TIP3    H139353   0.357   2.135  15.131 -0.9256 -0.7300  0.0591
 5954TIP3    H239354   0.382   1.996  15.077  0.9728 -0.2024 -0.4619
 5955TIP3   OH239355   6.269   4.627   1.842  0.1453 -0.3621 -0.1753
 5955TIP3    H139356   6.316   4.634   1.758 -3.5343 -2.6587 -2.5640
 5955TIP3    H239357   6.223   4.711   1.850 -1.9571 -1.2751 -2.1055
 5956TIP3   OH239358   2.929   4.829   3.513  0.5837  0.1824 -0.0504
 5956TIP3    H139359   2.957   4.903   3.567 -1.8779  0.3634  1.0510
 5956TIP3    H239360   2.875   4.868   3.445  1.3420 -0.3506 -0.9601
 5957TIP3   OH239361   5.619   3.605   2.759  0.3479 -0.4214 -0.2970
 5957TIP3    H139362   5.583   3.688   2.729  0.2831 -0.5963 -0.7017
 5957TIP3    H239363   5.713   3.613   2.746  0.5265  0.2651  1.3163
 5958TIP3   OH239364   1.515   3.627  11.925  0.0876  0.0930 -0.2326
 5958TIP3    H139365   1.527   3.703  11.868  0.4638  0.0295 -0.2411
 5958TIP3    H239366   1.499   3.554  11.865 -2.1340  0.4944 -0.1559
 5959TIP3   OH239367   3.897   3.068  13.836  0.2007  0.0791 -0.0448
 5959TIP3    H139368   3.883   3.156  13.802  0.2592 -0.0838 -0.4883
 5959TIP3    H239369   3.860   3.010  13.770 -0.2080 -0.2168  0.4366
 5960TIP3   OH239370   3.709   6.690  15.528  0.4217 -0.5110 -0.5686
 5960TIP3    H139371   3.791   6.688  15.578  0.3396 -0.4944 -0.4342
 5960TIP3    H239372   3.641   6.668  15.592  0.0278  1.8483 -0.1254
 5961TIP3   OH239373   4.214   4.273  16.679 -0.0817  0.0322  0.1569
 5961TIP3    H139374   4.260   4.357  16.675  0.5869 -0.3222  0.3599
 5961TIP3    H239375   4.273   4.215  16.727 -1.4852  0.0498  1.9664
 5962TIP3   OH239376   2.682   5.999  16.710 -0.0440  0.7333 -0.1012
 5962TIP3    H139377   2.736   5.923  16.733 -1.9954 -0.9572 -0.8806
 5962TIP3    H239378   2.610   5.997  16.773 -0.8344  1.1352 -0.9850
 5963TIP3   OH239379   4.752   6.456   3.502  0.7256 -0.0835  0.9534
 5963TIP3    H139380   4.765   6.530   3.443  1.8326 -0.9040  0.1408
 5963TIP3    H239381   4.825   6.397   3.482  0.3442 -0.9864  2.2014
 5964TIP3   OH239382   0.874   0.003  14.862 -0.1506  0.6098  0.3475
 5964TIP3    H139383   0.782  -0.014  14.885  0.0084  0.9630  1.2537
 5964TIP3    H239384   0.924  -0.053  14.921  0.2114 -0.0225 -0.5431
 5965TIP3   OH239385   5.149   6.740   2.267  0.2218  0.6573  0.2099
 5965TIP3    H139386   5.150   6.675   2.338 -0.6877  0.1246 -0.2381
 5965TIP3    H239387   5.220   6.800   2.287  2.5146 -1.7425 -0.5347
 5966TIP3   OH239388   6.456   1.169  15.243 -0.0516  0.4475 -0.0252
 5966TIP3    H139389   6.398   1.203  15.312 -1.0551 -1.3188  0.0329
 5966TIP3    H239390   6.473   1.079  15.269  1.1030  0.3441 -1.1191
 5967TIP3   OH239391   0.252   0.735   6.910  0.2024 -0.1752  0.0930
 5967TIP3    H139392   0.195   0.658   6.913 -0.1531 -0.0046 -2.0187
 5967TIP3    H239393   0.199   0.802   6.867  1.8632  0.0945 -1.5688
 5968TIP3   OH239394   2.124   6.604   1.017  0.2571 -0.5989  0.3351
 5968TIP3    H139395   2.108   6.576   1.107 -1.5818  1.2958  0.6360
 5968TIP3    H239396   2.151   6.695   1.025  1.6500 -0.8907 -0.9315
 5969TIP3   OH239397   0.760   3.276   1.002 -0.5597  0.7942  0.1734
 5969TIP3    H139398   0.757   3.222   0.923  0.8133 -0.5995  1.0396
 5969TIP3    H239399   0.818   3.349   0.979  0.1537  0.1841 -0.0025
 5970TIP3   OH239400   3.124   6.007   2.124 -0.5977  0.4860 -0.1353
 5970TIP3    H139401   3.128   5.956   2.043  3.1130  0.9644 -0.3687
 5970TIP3    H239402   3.123   6.098   2.094 -0.5849  0.6433  0.3374
 5971TIP3   OH239403   3.192   4.978   2.249  0.8496  0.9125 -0.4566
 5971TIP3    H139404   3.236   5.032   2.183  1.1116  0.9272 -0.2719
 5971TIP3    H239405   3.261   4.959   2.313  1.8722 -3.0809 -2.6046
 5972TIP3   OH239406   5.210   1.365  16.537  0.0700  0.4011  0.2874
 5972TIP3    H139407   5.221   1.398  16.626 -1.5889  1.3620  0.1678
 5972TIP3    H239408   5.212   1.444  16.482  2.5607 -0.2992 -0.7112
 5973TIP3   OH239409   4.616   1.830   5.194 -0.1935  0.7203  0.5494
 5973TIP3    H139410   4.612   1.894   5.266  0.4923  2.5190 -0.9606
 5973TIP3    H239411   4.563   1.869   5.124  0.0223 -0.5052 -0.3150
 5974TIP3   OH239412   1.956   3.455  10.712  0.1250  0.4366 -0.1722
 5974TIP3    H139413   2.024   3.442  10.646  1.6804  2.2657  1.0233
 5974TIP3    H239414   1.953   3.549  10.727 -0.5954  0.1175  1.9503
 5975TIP3   OH239415   4.982   2.680   6.018  0.0777  0.3856  0.1665
 5975TIP3    H139416   4.955   2.765   5.982  1.8063  0.7900 -0.2018
 5975TIP3    H239417   4.937   2.616   5.963  0.3964  1.0427 -0.8856
 5976TIP3   OH239418   5.773   3.516   2.970 -0.2352 -0.3571  0.0736
 5976TIP3    H139419   5.711   3.545   2.903 -1.0156 -0.9934  0.5134
 5976TIP3    H239420   5.803   3.597   3.012 -2.3295 -0.1720  1.2369
 5977TIP3   OH239421   3.653   0.214  13.093 -0.1915 -0.0355 -0.5793
 5977TIP3    H139422   3.623   0.270  13.021  0.3408  0.5670 -0.3439
 5977TIP3    H239423   3.703   0.145  13.050 -0.5591 -0.1370 -0.8480
 5978TIP3   OH239424   0.577   2.122   6.502  0.4346 -0.1922  0.4024
 5978TIP3    H139425   0.601   2.212   6.525 -1.4589  0.0047  1.6904
 5978TIP3    H239426   0.580   2.074   6.585  3.6019 -1.8917 -0.5853
 5979TIP3   OH239427   6.787   3.271   0.149  0.2672  0.0137  0.1243
 5979TIP3    H139428   6.712   3.330   0.154  0.3111  0.0048  1.1691
 5979TIP3    H239429   6.756   3.189   0.189  0.2755 -0.5975 -1.1096
 5980TIP3   OH239430   0.578   3.448  16.260 -0.1059 -0.2600  0.3680
 5980TIP3    H139431   0.494   3.479  16.226 -0.0551  0.0464  0.5251
 5980TIP3    H239432   0.632   3.435  16.183 -0.5811 -1.2926  0.1975
 5981TIP3   OH239433   5.522   0.042   0.661 -0.1116 -0.1980  0.0680
 5981TIP3    H139434   5.428   0.042   0.680 -0.1459 -0.0693 -0.0985
 5981TIP3    H239435   5.561   0.094   0.731 -0.1309 -0.5076  0.3053
 5982TIP3   OH239436   2.903   6.389  16.336 -0.3159  0.2813  0.0974
 5982TIP3    H139437   2.925   6.412  16.246  0.8546  0.2718  0.3758
 5982TIP3    H239438   2.810   6.411  16.344 -0.7398 -0.7974 -1.4576
 5983TIP3   OH239439   3.882   5.184  16.824  0.1306 -0.1598  0.2479
 5983TIP3    H139440   3.918   5.188  16.913  0.0388  1.9442  0.2225
 5983TIP3    H239441   3.787   5.192  16.836  0.0278 -1.0528  0.0299
 5984TIP3   OH239442   2.984   6.419   0.390  0.3466  0.2317 -0.3443
 5984TIP3    H139443   2.933   6.449   0.315 -1.3155 -1.1171  0.2069
 5984TIP3    H239444   3.028   6.497   0.422 -1.8899  1.5950 -0.4686
 5985TIP3   OH239445   4.588   3.435  11.540 -0.1020  1.0198  0.0562
 5985TIP3    H139446   4.639   3.486  11.477  1.1686 -0.8044 -0.4654
 5985TIP3    H239447   4.582   3.348  11.500 -0.3418  0.1762  1.8730
 5986TIP3   OH239448   6.400   1.063   1.462  0.0621 -0.4306  0.4314
 5986TIP3    H139449   6.475   1.038   1.516 -0.4886 -1.4521  0.7269
 5986TIP3    H239450   6.327   1.013   1.497 -0.4356 -0.6371 -0.8765
 5987TIP3   OH239451   3.978   5.665   4.863 -0.9161  0.7244 -0.2371
 5987TIP3    H139452   3.907   5.613   4.901 -0.0352  0.0198  0.4823
 5987TIP3    H239453   4.053   5.605   4.861 -0.3709  1.4209 -1.0980
 5988TIP3   OH239454   6.566   6.723   2.528  0.1610 -0.2250  0.4920
 5988TIP3    H139455   6.519   6.665   2.468  0.1155 -1.2422  1.4978
 5988TIP3    H239456   6.556   6.810   2.490  1.2189 -1.0085 -1.6775
 5989TIP3   OH239457   6.797   3.938   4.686  0.7500  0.2026  0.2675
 5989TIP3    H139458   6.785   3.876   4.758 -3.3855  1.1981  0.5651
 5989TIP3    H239459   6.775   3.888   4.607 -0.3103  0.6219  0.2858
 5990TIP3   OH239460   6.401   1.684   1.864 -0.1449 -0.1599  0.3971
 5990TIP3    H139461   6.324   1.627   1.862  0.2263 -0.6622  0.4597
 5990TIP3    H239462   6.399   1.723   1.952 -1.5407  1.5024 -0.3521
 5991TIP3   OH239463   0.450   0.229   5.695  0.0101  0.1729 -0.0509
 5991TIP3    H139464   0.383   0.161   5.702 -0.1921  0.3740 -0.0014
 5991TIP3    H239465   0.533   0.183   5.708 -0.2297  0.2131  1.8085
 5992TIP3   OH239466   6.155   2.686  11.200  0.0756 -0.1136  0.2193
 5992TIP3    H139467   6.169   2.648  11.287  0.0849  1.0363  0.7326
 5992TIP3    H239468   6.063   2.669  11.181 -0.3656  1.0945  1.1925
 5993TIP3   OH239469   1.740   2.308  12.432  0.3388  0.2463  0.2279
 5993TIP3    H139470   1.832   2.318  12.456  1.1243 -2.4885 -1.4125
 5993TIP3    H239471   1.698   2.274  12.511  1.0657  0.0178  0.5215
 5994TIP3   OH239472   4.687   1.652   1.049 -0.3881 -0.4584  0.2212
 5994TIP3    H139473   4.602   1.613   1.029 -1.6344  3.2706 -2.3358
 5994TIP3    H239474   4.683   1.673   1.142 -2.7394  0.6612 -0.0986
 5995TIP3   OH239475   5.139   4.175  14.648 -0.0041 -0.7682 -0.3805
 5995TIP3    H139476   5.126   4.131  14.732 -1.9553  0.6203  0.0760
 5995TIP3    H239477   5.228   4.210  14.653  0.0715 -1.1139  0.9215
 5996TIP3   OH239478   4.784   3.862   3.953 -0.2348  0.1426  0.7236
 5996TIP3    H139479   4.763   3.890   3.864 -1.3743  1.8429  1.4912
 5996TIP3    H239480   4.703   3.821   3.985  0.2762 -0.7593  0.8550
 5997TIP3   OH239481   4.879   2.035   4.782 -0.8005 -0.3854 -0.0349
 5997TIP3    H139482   4.965   2.063   4.751 -0.3422  0.3222  1.7992
 5997TIP3    H239483   4.855   1.962   4.726  1.4492 -1.2392  0.0894
 5998TIP3   OH239484   3.913   0.938  15.767  0.0124 -0.1983 -0.0284
 5998TIP3    H139485   4.009   0.943  15.761 -0.0267 -0.2148 -0.7799
 5998TIP3    H239486   3.891   0.855  15.726 -0.2712 -0.5798  0.8811
 5999TIP3   OH239487   2.683   3.313  10.700  0.1529  0.6544 -0.6314
 5999TIP3    H139488   2.713   3.338  10.788 -1.3811 -0.3672  0.2097
 5999TIP3    H239489   2.740   3.362  10.641  0.2467  2.5097  0.9305
 6000TIP3   OH239490   3.588   5.132   1.773  0.0955  0.0660  0.2131
 6000TIP3    H139491   3.588   5.037   1.787 -0.5310  0.0335 -0.0187
 6000TIP3    H239492   3.513   5.149   1.716 -1.9402  1.1314  3.1345
 6001TIP3   OH239493   4.522   6.029   5.647 -0.2124  0.6136  0.0061
 6001TIP3    H139494   4.539   5.938   5.623  2.2588  1.4032 -1.3495
 6001TIP3    H239495   4.463   6.060   5.578 -0.0263  0.4077 -0.2486
 6002TIP3   OH239496   2.477   0.242  12.623  0.4207 -0.2338 -0.5164
 6002TIP3    H139497   2.412   0.292  12.672  0.6850  1.3007 -1.6859
 6002TIP3    H239498   2.440   0.154  12.618 -0.1711 -0.1199  1.3589
 6003TIP3   OH239499   3.108   5.133   0.008  0.4245  0.0319  0.5852
 6003TIP3    H139500   3.199   5.125   0.036  0.2237  0.5217  1.3744
 6003TIP3    H239501   3.071   5.202   0.063 -0.4958 -0.3438  0.4526
 6004TIP3   OH239502   3.873   3.746  10.649 -0.1192 -0.1812  0.0499
 6004TIP3    H139503   3.879   3.687  10.574 -2.0919  0.3445 -0.5480
 6004TIP3    H239504   3.961   3.783  10.657  0.4159 -1.1139 -1.2763
 6005TIP3   OH239505   3.603   3.480  12.693  0.3127  0.1342 -0.1928
 6005TIP3    H139506   3.630   3.525  12.613  0.0330 -0.1224 -0.4334
 6005TIP3    H239507   3.607   3.548  12.761  2.9136 -0.2424  0.0751
 6006TIP3   OH239508   4.424   6.803  17.031 -0.4755  0.2212  0.5939
 6006TIP3    H139509   4.487   6.874  17.032 -0.6405  0.3688  1.7899
 6006TIP3    H239510   4.344   6.841  17.066 -1.6135  0.3576 -2.0851
 6007TIP3   OH239511   5.043   3.299   5.009 -0.6300  0.3601 -0.2956
 6007TIP3    H139512   5.020   3.295   5.102 -0.2761  0.9471 -0.1802
 6007TIP3    H239513   5.009   3.217   4.972 -0.4035 -0.0629  0.4345
 6008TIP3   OH239514   2.619   5.956   0.487 -0.1795 -0.5580 -0.3042
 6008TIP3    H139515   2.658   5.932   0.403  2.5516 -1.1853  1.0808
 6008TIP3    H239516   2.662   6.038   0.511 -1.8703  0.2824 -0.1043
 6009TIP3   OH239517   0.898   0.424   3.121  0.2300  0.1150  0.4715
 6009TIP3    H139518   0.903   0.519   3.127  1.0958  0.1139 -0.2790
 6009TIP3    H239519   0.831   0.407   3.054 -1.5421  0.1689  2.1717
 6010TIP3   OH239520   4.701   5.650  16.682  0.4132 -0.4069  0.3215
 6010TIP3    H139521   4.770   5.691  16.629  0.9141  1.8906  2.6686
 6010TIP3    H239522   4.662   5.723  16.731 -0.9602 -2.2802  2.0925
 6011TIP3   OH239523   5.051   1.056   6.622  0.1324 -0.2901 -0.0232
 6011TIP3    H139524   5.087   1.138   6.587 -0.1325 -0.1753 -0.0263
 6011TIP3    H239525   5.041   1.000   6.545 -1.3942  0.3139 -0.2836
 6012TIP3   OH239526   5.984   4.286   6.458  0.3960 -0.0799 -0.1603
 6012TIP3    H139527   5.958   4.206   6.414  1.3936  0.2178 -1.3119
 6012TIP3    H239528   5.949   4.356   6.403  0.6791  0.2830  0.1165
 6013TIP3   OH239529   3.815   1.310  14.964 -0.2469  0.4945 -0.6944
 6013TIP3    H139530   3.774   1.391  14.994  1.6492  1.9811 -2.0192
 6013TIP3    H239531   3.908   1.326  14.974  0.2664 -0.4524 -3.6022
 6014TIP3   OH239532   4.012   1.460  12.590  0.4269 -0.0556  0.0143
 6014TIP3    H139533   3.934   1.487  12.637 -0.0431  1.2664 -1.4805
 6014TIP3    H239534   4.015   1.517  12.513  1.8112 -1.3716 -0.9419
 6015TIP3   OH239535   1.332   5.154   5.278  0.3348  0.4950 -0.1730
 6015TIP3    H139536   1.383   5.091   5.328  1.4856  0.5708 -1.2282
 6015TIP3    H239537   1.376   5.159   5.193 -2.3351 -0.6494 -1.7236
 6016TIP3   OH239538   5.658   3.423   6.344  0.1089  0.2531  0.3848
 6016TIP3    H139539   5.628   3.437   6.434 -0.0713  0.3102  0.3173
 6016TIP3    H239540   5.750   3.448   6.345 -0.1187  1.1066  0.3478
 6017TIP3   OH239541   5.369   0.363   0.116 -0.2847  0.1298 -0.4500
 6017TIP3    H139542   5.448   0.341   0.166 -0.1328  0.8893 -0.3409
 6017TIP3    H239543   5.317   0.283   0.116  0.3354 -0.2768 -0.2331
 6018TIP3   OH239544   1.755   4.926  12.122 -0.1491 -0.2299  0.7462
 6018TIP3    H139545   1.777   4.899  12.033  1.0787  1.9679  0.3475
 6018TIP3    H239546   1.744   5.021  12.117 -2.3938 -0.3290  2.4853
 6019TIP3   OH239547   2.506   3.583   5.085 -0.0434 -0.3178  0.4729
 6019TIP3    H139548   2.536   3.671   5.063  0.4119 -0.5196  0.2883
 6019TIP3    H239549   2.414   3.594   5.108 -0.1758  0.0985 -0.2423
 6020TIP3   OH239550   5.042   1.383  13.145 -0.2537  0.1052 -0.0267
 6020TIP3    H139551   4.968   1.389  13.205  0.0499 -0.6374  0.4255
 6020TIP3    H239552   5.114   1.350  13.198  0.3788  0.7303 -0.4887
 6021TIP3   OH239553   2.292   4.841   1.606  0.7036 -0.1444 -0.4501
 6021TIP3    H139554   2.269   4.918   1.658  2.6887 -0.4527  0.9380
 6021TIP3    H239555   2.211   4.818   1.561 -0.0228  2.5327 -0.6117
 6022TIP3   OH239556   0.044   1.939   2.597 -0.1979 -0.2211 -0.0450
 6022TIP3    H139557   0.026   1.869   2.533  1.5793 -1.2880  0.5989
 6022TIP3    H239558   0.083   2.009   2.545  3.2792 -1.9129  0.1017
 6023TIP3   OH239559   3.079   3.486   4.495  0.0967 -0.0011 -0.5056
 6023TIP3    H139560   3.070   3.441   4.579 -0.6571  0.1770 -0.4840
 6023TIP3    H239561   3.014   3.557   4.499  1.2011  1.0337 -0.5694
 6024TIP3   OH239562   5.001   4.181   4.335  0.1694 -0.5486  0.4447
 6024TIP3    H139563   4.985   4.111   4.397 -0.5100 -1.5391 -0.8353
 6024TIP3    H239564   5.072   4.149   4.280  0.2123 -0.0119  0.1769
 6025TIP3   OH239565   1.182   4.670  15.031 -0.6927 -0.5024 -0.1923
 6025TIP3    H139566   1.275   4.648  15.025 -0.1762  1.7881 -0.8925
 6025TIP3    H239567   1.180   4.765  15.035 -3.0111 -0.5417  0.0962
 6026TIP3   OH239568   1.064   2.164   1.170  0.8443  0.3463  0.3664
 6026TIP3    H139569   1.157   2.161   1.150  0.7356  0.5602 -0.1727
 6026TIP3    H239570   1.058   2.221   1.247  0.9965  1.6177 -0.5575
 6027TIP3   OH239571   2.649   1.662   1.469  0.0630 -0.4354 -0.0695
 6027TIP3    H139572   2.619   1.672   1.379  1.1121 -0.4990 -0.4256
 6027TIP3    H239573   2.571   1.681   1.522  0.0614  2.0326 -0.9125
 6028TIP3   OH239574   4.705   3.147  11.469  0.6425  0.1818 -0.3990
 6028TIP3    H139575   4.762   3.134  11.393  0.9027 -1.2325  0.0121
 6028TIP3    H239576   4.617   3.153  11.433  0.7649 -0.4762 -0.8231
 6029TIP3   OH239577   3.544   2.441   3.331  0.4394 -0.1212  0.0500
 6029TIP3    H139578   3.451   2.433   3.310  0.1518  0.2898  1.1229
 6029TIP3    H239579   3.583   2.359   3.302 -0.4546 -0.7446  0.5832
 6030TIP3   OH239580   4.389   2.406   1.229  0.5916 -0.0480  0.4678
 6030TIP3    H139581   4.420   2.377   1.314 -1.2761 -0.1243  1.1520
 6030TIP3    H239582   4.410   2.334   1.170 -1.3803 -1.6070  1.5937
 6031TIP3   OH239583   0.320   0.500  11.304 -0.2006 -0.1321  0.1143
 6031TIP3    H139584   0.276   0.431  11.355 -1.1659  1.3541  1.3486
 6031TIP3    H239585   0.386   0.535  11.364 -0.3371  0.6428 -0.1951
 6032TIP3   OH239586   1.887   3.260  11.413  0.4104  0.0459 -0.2869
 6032TIP3    H139587   1.948   3.325  11.448 -0.4612  1.0010 -0.5374
 6032TIP3    H239588   1.801   3.300  11.423 -0.0862 -0.8620 -0.9128
 6033TIP3   OH239589   2.878   3.380  11.805  0.5562  0.0943  0.1829
 6033TIP3    H139590   2.913   3.293  11.824 -1.3395 -0.6742  0.2182
 6033TIP3    H239591   2.835   3.407  11.886 -1.6657 -0.3275 -0.8033
 6034TIP3   OH239592   3.681   4.643  15.438 -0.2990  0.3921  0.1724
 6034TIP3    H139593   3.653   4.552  15.428 -0.9391  0.5914  0.0764
 6034TIP3    H239594   3.681   4.658  15.533 -0.8856  0.4950  0.1601
 6035TIP3   OH239595   6.140   1.647  12.761 -0.0465  0.4826  0.0018
 6035TIP3    H139596   6.116   1.736  12.734  1.4509  0.4052 -1.7128
 6035TIP3    H239597   6.105   1.638  12.849 -4.7290  0.9459 -1.6580
 6036TIP3   OH239598   1.329   6.669   3.599 -0.4383  0.2788  0.5347
 6036TIP3    H139599   1.310   6.701   3.688 -0.6639 -0.7817  0.8726
 6036TIP3    H239600   1.371   6.584   3.613  2.5786  1.5821 -0.2681
 6037TIP3   OH239601   1.344   2.594  12.091  0.0698  0.0477  0.5076
 6037TIP3    H139602   1.367   2.503  12.109 -3.8375 -1.2274 -0.5231
 6037TIP3    H239603   1.396   2.617  12.013  1.4015 -1.1193  1.0277
 6038TIP3   OH239604   5.808   6.383  16.731 -0.2065  0.8843 -0.4057
 6038TIP3    H139605   5.849   6.298  16.738 -0.9925  0.6920  2.1115
 6038TIP3    H239606   5.865   6.433  16.672  0.7720 -1.0284 -1.1054
 6039TIP3   OH239607   0.786   6.412  15.963  0.5495 -0.5041 -0.8296
 6039TIP3    H139608   0.831   6.450  16.038 -0.3389  0.0893 -0.5923
 6039TIP3    H239609   0.826   6.454  15.887 -0.9687  1.5334 -0.5478
 6040TIP3   OH239610   2.281   2.504  12.100 -0.0492 -0.6375 -0.7741
 6040TIP3    H139611   2.241   2.480  12.016 -0.6444  1.5728 -1.1590
 6040TIP3    H239612   2.343   2.573  12.077  0.8996 -1.0894  0.4134
 6041TIP3   OH239613   1.623   0.760  15.286 -0.1089  0.5279  0.4182
 6041TIP3    H139614   1.598   0.680  15.239  1.8836 -1.0872  1.9850
 6041TIP3    H239615   1.622   0.735  15.378 -2.9222  3.3564  1.2368
 6042TIP3   OH239616   3.159   5.648  14.423 -0.0757 -0.7731 -0.1242
 6042TIP3    H139617   3.075   5.664  14.379 -0.0194 -0.8416 -0.2585
 6042TIP3    H239618   3.144   5.675  14.514  0.1712  0.4938 -0.4632
 6043TIP3   OH239619   5.372   1.076  16.886  0.0000 -0.2196  0.3048
 6043TIP3    H139620   5.327   1.094  16.803  0.1747 -0.0023  0.2587
 6043TIP3    H239621   5.350   1.150  16.942 -0.8009 -0.7787  0.7367
 6044TIP3   OH239622   5.838   0.451  16.374 -0.7682 -0.7804 -0.1320
 6044TIP3    H139623   5.752   0.429  16.409 -0.2260 -1.6646  0.6585
 6044TIP3    H239624   5.888   0.482  16.449 -0.5443  0.1963 -0.6727
 6045TIP3   OH239625   0.309   0.061   3.794  0.1561  0.4298  0.5387
 6045TIP3    H139626   0.330   0.154   3.797  0.2171  0.4591 -0.6344
 6045TIP3    H239627   0.392   0.017   3.815  0.0201  0.6362  1.5467
 6046TIP3   OH239628   0.380   0.437   1.157 -0.1139  0.4108  0.7297
 6046TIP3    H139629   0.469   0.470   1.167 -0.5639  2.7189 -2.1927
 6046TIP3    H239630   0.330   0.513   1.126 -2.5270 -1.5594 -0.3611
 6047TIP3   OH239631   6.266   1.063  15.875 -0.8735  0.0275 -0.0819
 6047TIP3    H139632   6.296   1.135  15.820  1.2572 -0.0225  0.9904
 6047TIP3    H239633   6.188   1.097  15.919 -1.5733  0.6546 -1.7699
 6048TIP3   OH239634   2.198   5.945  15.213  0.7102 -0.2283 -0.2386
 6048TIP3    H139635   2.189   5.946  15.308 -0.3002 -1.9082 -0.2913
 6048TIP3    H239636   2.252   5.868  15.195  3.5013  1.8077 -0.8605
 6049TIP3   OH239637   1.099   1.604  13.013 -0.0180 -0.3813  0.2375
 6049TIP3    H139638   1.158   1.596  12.939 -0.7948 -1.3291 -0.2904
 6049TIP3    H239639   1.040   1.529  13.006  1.1565 -1.6483  2.9293
 6050TIP3   OH239640   6.115   0.170  14.640 -0.2784 -0.2811  0.1147
 6050TIP3    H139641   6.080   0.259  14.634 -1.0295 -0.7209 -2.3039
 6050TIP3    H239642   6.133   0.144  14.550  1.6720 -1.9218  0.9166
 6051TIP3   OH239643   1.421   4.690   3.245  0.3241  0.2552 -0.5983
 6051TIP3    H139644   1.435   4.599   3.220  0.5328  0.5291 -1.4889
 6051TIP3    H239645   1.328   4.694   3.269  0.5937 -0.4566  0.6232
 6052TIP3   OH239646   3.995   4.462   3.773  0.1619  0.5687 -0.5280
 6052TIP3    H139647   3.917   4.471   3.719 -0.6850  0.1253  0.6022
 6052TIP3    H239648   3.979   4.519   3.849  0.9361  0.4803 -0.2895
 6053TIP3   OH239649   2.388   4.379   5.156  0.0210 -0.5832  0.3040
 6053TIP3    H139650   2.461   4.349   5.211 -1.0772 -1.4180  1.3181
 6053TIP3    H239651   2.315   4.323   5.181 -1.5941  1.7407  0.9341
 6054TIP3   OH239652   5.332   0.155  13.115 -0.8341  0.3379 -0.1629
 6054TIP3    H139653   5.293   0.117  13.037  0.1135 -0.7959 -0.1125
 6054TIP3    H239654   5.293   0.107  13.188  0.6235 -0.8311 -0.1136
 6055TIP3   OH239655   3.376   5.853   0.688 -0.3049  0.0205 -0.0653
 6055TIP3    H139656   3.442   5.837   0.757 -0.8781  0.0162  0.4864
 6055TIP3    H239657   3.419   5.914   0.628  0.7767 -1.1694 -0.5352
 6056TIP3   OH239658   5.258   2.104  13.250 -0.0567  0.0803 -0.6296
 6056TIP3    H139659   5.271   2.179  13.193  2.9837 -0.2016 -0.3837
 6056TIP3    H239660   5.170   2.115  13.285  0.2637  3.3749 -0.7763
 6057TIP3   OH239661   4.417   5.240   4.447  0.0617  0.0582  0.4888
 6057TIP3    H139662   4.414   5.265   4.539  0.8869 -0.0085  0.5419
 6057TIP3    H239663   4.507   5.260   4.420  0.0910 -0.7884 -0.0540
 6058TIP3   OH239664   4.990   1.647  13.151  0.9970  0.9744 -0.0140
 6058TIP3    H139665   5.058   1.580  13.144 -1.0489 -0.9712 -2.1821
 6058TIP3    H239666   4.932   1.615  13.220  0.9525  1.4130  0.1559
 6059TIP3   OH239667   3.513   4.389   5.549  0.1913  0.1112 -0.3658
 6059TIP3    H139668   3.445   4.456   5.546  2.2955  2.2441 -2.7613
 6059TIP3    H239669   3.581   4.425   5.606 -0.1977 -1.5906  1.2378
 6060TIP3   OH239670   3.659   6.109  10.562 -0.6541 -0.1667 -0.8001
 6060TIP3    H139671   3.584   6.114  10.621 -0.8318 -0.1565 -1.0280
 6060TIP3    H239672   3.657   6.190  10.512 -0.1230  0.1203 -0.3614
 6061TIP3   OH239673   1.259   4.604  17.108 -0.5528  0.1010 -0.2799
 6061TIP3    H139674   1.314   4.668  17.153  0.5177  0.0782 -1.5578
 6061TIP3    H239675   1.169   4.628  17.133 -0.0852  1.3152  0.2579
 6062TIP3   OH239676   5.354   5.494  11.983 -0.3811 -0.5784  0.4018
 6062TIP3    H139677   5.390   5.583  11.993  3.4196 -1.9788  0.2229
 6062TIP3    H239678   5.328   5.490  11.891  2.2027 -0.5035 -0.3946
 6063TIP3   OH239679   1.118   2.933  15.880 -0.2222 -0.0457 -0.0361
 6063TIP3    H139680   1.024   2.915  15.885 -0.2767  0.2951  0.1968
 6063TIP3    H239681   1.149   2.880  15.806 -0.2745 -1.5251  0.9687
 6064TIP3   OH239682   3.408   0.937  12.171  1.0589 -0.0920 -0.1950
 6064TIP3    H139683   3.439   0.850  12.145  0.7457 -0.6031  1.1004
 6064TIP3    H239684   3.367   0.923  12.256 -1.8552  0.7776 -1.4221
 6065TIP3   OH239685   5.201   6.223  13.812  0.0007  0.1219  0.3737
 6065TIP3    H139686   5.263   6.278  13.861  1.5978 -0.6094 -0.7679
 6065TIP3    H239687   5.142   6.188  13.878 -0.2700  2.2262  1.2748
 6066TIP3   OH239688   6.537   3.008   0.069 -0.4562  0.2038  0.5822
 6066TIP3    H139689   6.459   2.955   0.086  0.9980 -1.7867  1.1473
 6066TIP3    H239690   6.526   3.038  -0.021 -0.5583 -2.3473 -0.2806
 6067TIP3   OH239691   4.433   4.983  15.661 -0.3795 -0.1246 -0.6999
 6067TIP3    H139692   4.506   5.046  15.653  0.9223 -1.4580  0.4305
 6067TIP3    H239693   4.476   4.898  15.662 -2.0900 -1.0050 -1.4129
 6068TIP3   OH239694   1.757   0.739  13.050  0.1256 -0.0812 -0.3374
 6068TIP3    H139695   1.670   0.775  13.031  0.9264  1.2783 -1.5334
 6068TIP3    H239696   1.763   0.742  13.146 -1.8538 -1.9612 -0.1150
 6069TIP3   OH239697   6.545   0.432   0.741 -0.0201 -0.5240  0.5279
 6069TIP3    H139698   6.589   0.356   0.780 -0.5348 -0.2818  1.6008
 6069TIP3    H239699   6.536   0.494   0.814 -0.2021  0.2923 -0.1898
 6070TIP3   OH239700   5.295   0.097   0.182  0.6961 -0.0877  0.0659
 6070TIP3    H139701   5.379   0.083   0.139  0.8356 -0.5064  0.4687
 6070TIP3    H239702   5.242   0.021   0.156  1.3151 -1.1950  1.9160
 6071TIP3   OH239703   0.249   4.495  17.107 -0.0983  0.1648 -0.1781
 6071TIP3    H139704   0.206   4.514  17.190 -0.2118  2.4719 -0.7213
 6071TIP3    H239705   0.207   4.415  17.075 -0.3229 -0.5309  1.7741
 6072TIP3   OH239706   1.916   3.533  17.057 -0.5531  0.3078 -0.0833
 6072TIP3    H139707   1.916   3.626  17.079 -1.8066  0.5739 -1.1936
 6072TIP3    H239708   2.008   3.512  17.042 -0.0165  0.8950  2.0727
 6073TIP3   OH239709   4.588   1.844  17.039 -0.0598  0.3535 -0.0904
 6073TIP3    H139710   4.611   1.789  17.114  0.2077 -0.4356 -0.7489
 6073TIP3    H239711   4.671   1.886  17.014 -0.2122  0.8595  0.2538
 6074TIP3   OH239712   1.147   3.728   1.391 -0.1970 -0.3236 -0.2443
 6074TIP3    H139713   1.219   3.688   1.441  0.4174 -0.6665 -1.4041
 6074TIP3    H239714   1.085   3.656   1.378 -0.3036 -0.2604 -0.0980
 6075TIP3   OH239715   1.853   5.767  12.606  0.0070  0.2578  0.0488
 6075TIP3    H139716   1.946   5.761  12.624  0.1822  0.2455 -0.8309
 6075TIP3    H239717   1.813   5.783  12.691  0.9628  1.9428  0.1921
 6076TIP3   OH239718   2.160   3.698   4.003  0.2519 -0.1179 -0.2559
 6076TIP3    H139719   2.213   3.619   4.000  1.3757  0.6744 -1.6400
 6076TIP3    H239720   2.195   3.748   4.077  0.7112 -0.1058 -0.4813
 6077TIP3   OH239721   6.427   0.543   5.349 -0.1931 -0.1169  0.2611
 6077TIP3    H139722   6.494   0.528   5.416  1.3426 -1.9513 -1.6323
 6077TIP3    H239723   6.477   0.568   5.271 -1.7333 -1.1327 -1.0741
 6078TIP3   OH239724   3.100   6.100   0.012  0.5574 -0.0810  0.2814
 6078TIP3    H139725   3.187   6.139   0.008  1.3499 -1.8956 -0.7775
 6078TIP3    H239726   3.116   6.007   0.029 -1.2049 -0.3063  0.8063
 6079TIP3   OH239727   3.468   4.439   5.177  0.0281 -0.0150 -0.4737
 6079TIP3    H139728   3.436   4.388   5.103 -1.7057 -1.0575  0.9591
 6079TIP3    H239729   3.552   4.398   5.199 -0.9597 -1.7685  0.1421
 6080TIP3   OH239730   1.798   4.470   0.202  0.1538  0.0085  0.2987
 6080TIP3    H139731   1.823   4.483   0.293  1.1485  0.2604 -0.0013
 6080TIP3    H239732   1.800   4.375   0.190  1.1580  0.0300  0.2366
 6081TIP3   OH239733   3.115   1.933  12.227 -0.1630 -0.3140 -0.1295
 6081TIP3    H139734   3.113   1.875  12.151  0.3218 -0.3633 -0.1052
 6081TIP3    H239735   3.069   1.885  12.295 -1.0203 -0.0701 -0.5307
 6082TIP3   OH239736   0.154   4.243  17.038  0.2357  0.2840  0.5507
 6082TIP3    H139737   0.161   4.237  16.943  0.0606 -0.3461  0.5777
 6082TIP3    H239738   0.066   4.212  17.058 -0.3684  2.0903  0.7709
 6083TIP3   OH239739   3.015   3.098   0.179 -0.0893 -0.3863  0.1132
 6083TIP3    H139740   2.960   3.047   0.120 -0.0382  1.6663 -1.7604
 6083TIP3    H239741   2.954   3.154   0.227  0.2417  1.1003 -1.1741
 6084TIP3   OH239742   2.857   3.638   5.288 -0.6736 -0.4596  0.3859
 6084TIP3    H139743   2.931   3.578   5.279 -0.0361  0.4760 -0.6854
 6084TIP3    H239744   2.897   3.725   5.294 -1.6194 -0.0810  1.3195
 6085TIP3   OH239745   4.238   6.794  10.930 -0.3364 -0.4909  0.0480
 6085TIP3    H139746   4.276   6.878  10.905 -0.0165 -0.5838  0.2164
 6085TIP3    H239747   4.293   6.729  10.888 -0.5593 -0.6206 -0.0465
 6086TIP3   OH239748   6.228   3.650   1.000  0.1273 -0.0446  0.4787
 6086TIP3    H139749   6.139   3.619   1.017  0.5107 -2.2413 -1.3452
 6086TIP3    H239750   6.217   3.737   0.961 -1.1052  0.5832  2.1644
 6087TIP3   OH239751   0.335   4.829   3.590 -0.2686  0.4521  0.6755
 6087TIP3    H139752   0.404   4.790   3.536 -2.0619 -2.7393  0.5235
 6087TIP3    H239753   0.373   4.836   3.677  0.8037  0.3066  0.2193
 6088TIP3   OH239754   5.018   5.402  15.945  0.0155  0.1944  0.4857
 6088TIP3    H139755   5.043   5.478  15.894  0.5977  0.4809  1.1853
 6088TIP3    H239756   5.101   5.360  15.968 -0.2958 -0.6069  0.1633
 6089TIP3   OH239757   3.688   6.635   0.081  0.5416  0.1089 -0.3143
 6089TIP3    H139758   3.629   6.598   0.015 -0.8687  0.2662  0.8264
 6089TIP3    H239759   3.666   6.728   0.083  0.8157  0.1651  0.1315
 6090TIP3   OH239760   4.453   3.190  13.932 -0.6751  1.2087 -0.2493
 6090TIP3    H139761   4.376   3.222  13.885  0.2125  1.8040 -1.3164
 6090TIP3    H239762   4.515   3.263  13.930 -0.6921  1.3262  2.0451
 6091TIP3   OH239763   0.082   0.516  11.583 -0.3529  0.6107  0.1837
 6091TIP3    H139764   0.133   0.437  11.569 -0.0874  0.8264 -0.0622
 6091TIP3    H239765   0.035   0.530  11.501 -1.3177  0.0508  0.6219
 6092TIP3   OH239766   0.425   4.813  14.202  0.3101  0.0102  0.3084
 6092TIP3    H139767   0.404   4.794  14.110 -0.8690  1.8830  0.1692
 6092TIP3    H239768   0.517   4.839  14.201 -0.0889  1.4273 -0.5699
 6093TIP3   OH239769   4.498   0.896   1.927  0.1263  0.2266 -0.0402
 6093TIP3    H139770   4.442   0.850   1.866  0.7254  0.8192 -1.0470
 6093TIP3    H239771   4.577   0.917   1.877  1.2944 -0.6810  1.3776
 6094TIP3   OH239772   1.139   1.350   4.259 -0.2500 -0.6709 -0.4792
 6094TIP3    H139773   1.139   1.400   4.340 -0.5131 -1.1906 -0.1518
 6094TIP3    H239774   1.046   1.337   4.238 -0.1846 -0.0766 -1.1545
 6095TIP3   OH239775   2.818   6.002   2.001  0.3116  0.0856  0.3740
 6095TIP3    H139776   2.887   6.067   2.011  0.7598  0.0337 -2.2204
 6095TIP3    H239777   2.795   6.004   1.909 -1.4168 -1.6775  0.7220
 6096TIP3   OH239778   0.092   2.791   0.811  0.3924 -0.2967  0.0715
 6096TIP3    H139779   0.085   2.840   0.728 -2.7443 -2.3577 -0.9582
 6096TIP3    H239780   0.165   2.731   0.796 -0.0263 -0.5287 -1.1536
 6097TIP3   OH239781   1.107   1.776   4.470 -0.2437  0.2163  0.1619
 6097TIP3    H139782   1.087   1.683   4.473  0.1407  0.0377 -1.7409
 6097TIP3    H239783   1.032   1.816   4.427 -0.3863  0.7703  0.9268
 6098TIP3   OH239784   6.117   1.588   6.226  0.2608  0.4776 -0.6517
 6098TIP3    H139785   6.140   1.677   6.251  1.8447 -0.1228  0.1022
 6098TIP3    H239786   6.146   1.579   6.136 -0.4073  0.8828 -0.9153
 6099TIP3   OH239787   6.311   2.095  14.286 -0.4168  0.3165  0.6596
 6099TIP3    H139788   6.370   2.022  14.305  1.4475  0.8571 -2.6916
 6099TIP3    H239789   6.341   2.165  14.344  1.0805 -0.0109  0.3154
 6100TIP3   OH239790   3.335   1.566   2.899  0.4995 -0.4354 -0.6954
 6100TIP3    H139791   3.425   1.572   2.867  0.9592  0.1941  0.6413
 6100TIP3    H239792   3.281   1.587   2.823  1.5274  0.5571 -1.1749
 6101TIP3   OH239793   1.936   6.650  16.213  0.1179 -0.5255 -0.2807
 6101TIP3    H139794   1.843   6.628  16.210 -0.2024  0.7136  0.1147
 6101TIP3    H239795   1.950   6.681  16.302  0.0474  2.8226 -1.3407
 6102TIP3   OH239796   0.262   0.769  16.725  0.7636 -0.0648  0.1706
 6102TIP3    H139797   0.233   0.716  16.651  1.9280  0.3390 -0.5975
 6102TIP3    H239798   0.296   0.705  16.788 -1.3533 -0.4979  0.8919
 6103TIP3   OH239799   1.239   0.241   3.509 -0.1120  0.2482  0.3060
 6103TIP3    H139800   1.195   0.253   3.425  0.4531  0.4568  0.0381
 6103TIP3    H239801   1.168   0.228   3.572 -0.5283 -0.3683 -0.2760
 6104TIP3   OH239802   0.426   3.224   2.434  0.6746 -0.2262 -0.0913
 6104TIP3    H139803   0.438   3.155   2.369 -0.6816 -0.6863  0.1348
 6104TIP3    H239804   0.367   3.287   2.393 -1.1333 -1.0970  1.0902
 6105TIP3   OH239805   6.446   2.169  12.727  0.0838 -0.0379 -0.7602
 6105TIP3    H139806   6.367   2.117  12.743  0.1632  0.4356  1.2410
 6105TIP3    H239807   6.504   2.110  12.679 -0.2139 -1.4860  0.6160
 6106TIP3   OH239808   0.868   4.918   5.070 -0.3025 -0.6174 -0.1121
 6106TIP3    H139809   0.897   4.832   5.102 -0.6047 -1.8288 -2.8919
 6106TIP3    H239810   0.934   4.941   5.005 -1.5259  0.1187 -1.1034
 6107TIP3   OH239811   5.621   5.736  13.479 -0.7145 -0.0850 -0.3409
 6107TIP3    H139812   5.645   5.660  13.532 -4.0718  0.4578  2.1702
 6107TIP3    H239813   5.678   5.806  13.510  0.2492 -0.8090 -0.4613
 6108TIP3   OH239814   2.589   0.410  11.241  0.2965  0.0932 -0.0598
 6108TIP3    H139815   2.619   0.383  11.155 -0.1959 -0.4282 -0.0778
 6108TIP3    H239816   2.500   0.374  11.248 -0.9884  2.9938 -0.6872
 6109TIP3   OH239817   4.537   0.892  15.559 -0.0737 -0.1831  0.9204
 6109TIP3    H139818   4.542   0.971  15.505 -0.5491  0.0375  1.1922
 6109TIP3    H239819   4.512   0.823  15.498 -1.3137  0.2040  0.9749
 6110TIP3   OH239820   4.840   1.452   6.085  0.2686 -0.6055 -0.3782
 6110TIP3    H139821   4.830   1.364   6.121  2.4345 -0.4464  0.6914
 6110TIP3    H239822   4.859   1.438   5.993  0.3277 -1.2391 -0.2722
 6111TIP3   OH239823   4.181   1.084  15.400  0.0435 -0.0040  0.2803
 6111TIP3    H139824   4.247   1.146  15.430  0.3224 -0.0342 -0.2486
 6111TIP3    H239825   4.136   1.130  15.329  0.7260 -0.6518 -0.6032
 6112TIP3   OH239826   3.704   4.425   5.362  0.0945 -0.1204  0.1985
 6112TIP3    H139827   3.702   4.504   5.307  1.3830  0.1685  0.5473
 6112TIP3    H239828   3.636   4.439   5.427 -1.7054 -0.6242 -1.5232
 6113TIP3   OH239829   5.897   6.699   0.619 -0.0525  0.1769 -0.5044
 6113TIP3    H139830   5.919   6.650   0.540 -1.8017  0.3586 -1.1377
 6113TIP3    H239831   5.801   6.697   0.621 -0.0815  2.0809  0.4002
 6114TIP3   OH239832   4.785   6.607  17.149  0.3803  0.5271 -0.4396
 6114TIP3    H139833   4.781   6.666  17.224 -0.0471 -0.5054  0.3734
 6114TIP3    H239834   4.700   6.564  17.148  0.9386 -0.6043 -0.5523
 6115TIP3   OH239835   2.892   1.197   3.538 -0.3633  0.2105  0.1872
 6115TIP3    H139836   2.832   1.138   3.494 -0.7234  0.6561  0.0734
 6115TIP3    H239837   2.965   1.208   3.476  0.0307 -0.6488  0.4969
 6116TIP3   OH239838   4.208   6.216   0.311 -0.2313 -0.5304 -0.0337
 6116TIP3    H139839   4.123   6.199   0.350 -0.1941  0.8752  0.6943
 6116TIP3    H239840   4.207   6.309   0.290  0.4378 -0.8788 -1.7470
 6117TIP3   OH239841   3.714   1.855  12.130 -0.1987  0.5336  0.1768
 6117TIP3    H139842   3.677   1.784  12.078  1.0186  1.1008 -1.5219
 6117TIP3    H239843   3.704   1.933  12.074  1.3453  1.1198  0.6927
 6118TIP3   OH239844   1.848   5.226  14.734 -0.2656  0.5872  0.3418
 6118TIP3    H139845   1.767   5.257  14.693 -1.8705 -3.4912  0.2110
 6118TIP3    H239846   1.827   5.220  14.827 -0.9036 -2.4603  0.0638
 6119TIP3   OH239847   1.309   3.698  11.061 -0.3728 -0.3355 -0.2817
 6119TIP3    H139848   1.383   3.742  11.020 -0.3203  0.0244  0.2041
 6119TIP3    H239849   1.232   3.738  11.021 -0.3141 -0.4047 -0.4659
 6120TIP3   OH239850   0.239   2.939  16.201  0.1077  0.3590  0.3400
 6120TIP3    H139851   0.294   2.903  16.131 -0.9168 -1.6274  0.5223
 6120TIP3    H239852   0.289   3.013  16.235  1.3297  0.3846 -1.4458
 6121TIP3   OH239853   5.977   6.549  11.237 -0.0729  0.4249  0.0558
 6121TIP3    H139854   6.044   6.583  11.296  1.1018 -1.1947 -0.3128
 6121TIP3    H239855   5.911   6.618  11.233  1.1781  1.7041  1.0668
 6122TIP3   OH239856   2.160   6.352  11.802 -0.2170  0.7638 -0.0191
 6122TIP3    H139857   2.146   6.421  11.867 -1.3923  0.0275  0.5111
 6122TIP3    H239858   2.196   6.279  11.852 -0.5714  0.3990 -0.2985
 6123TIP3   OH239859   0.939   6.120  13.313  0.2997  0.2702 -0.2818
 6123TIP3    H139860   0.875   6.151  13.377 -1.8735 -0.2332 -2.1550
 6123TIP3    H239861   1.001   6.069  13.365 -0.9165  0.6088  1.5621
 6124TIP3   OH239862   4.240   2.004  11.578  0.1687 -0.2147 -0.3400
 6124TIP3    H139863   4.180   1.987  11.504  0.5838  0.1736 -0.7701
 6124TIP3    H239864   4.268   1.917  11.607  0.8514 -0.3431 -1.3416
 6125TIP3   OH239865   2.229   0.348   6.666 -0.7699 -0.4148  0.5750
 6125TIP3    H139866   2.293   0.419   6.670 -1.4645  0.2733 -0.2982
 6125TIP3    H239867   2.279   0.269   6.687  0.2791  0.1726  0.3087
 6126TIP3   OH239868   6.088   1.466   5.962 -0.2307 -0.4670  0.0726
 6126TIP3    H139869   6.100   1.414   5.882 -0.3863 -1.1133  0.4589
 6126TIP3    H239870   6.057   1.402   6.026 -2.3551  0.4856  0.0349
 6127TIP3   OH239871   6.621   1.199  16.926 -0.7305  0.5742  0.1011
 6127TIP3    H139872   6.605   1.269  16.862  0.6331  2.3076  1.5817
 6127TIP3    H239873   6.710   1.170  16.909 -0.2280  1.2916  1.3996
 6128TIP3   OH239874   1.529   0.408   3.056 -0.4690  0.2332  0.0295
 6128TIP3    H139875   1.458   0.421   2.994 -0.9098  0.3484  0.5530
 6128TIP3    H239876   1.504   0.461   3.132 -0.0153 -0.0357  0.3686
 6129TIP3   OH239877   6.418   3.355  13.717  0.0654 -0.1957  0.0432
 6129TIP3    H139878   6.384   3.284  13.663 -0.9296 -0.1463  0.6012
 6129TIP3    H239879   6.346   3.377  13.776  0.4606  1.0897  0.0555
 6130TIP3   OH239880   2.589   6.501  15.017 -0.4331  0.3140 -0.1911
 6130TIP3    H139881   2.539   6.442  14.960  2.1276 -0.7447 -1.4431
 6130TIP3    H239882   2.634   6.560  14.956 -0.6528  1.6736  0.9397
 6131TIP3   OH239883   1.770   3.375  15.039  0.5404 -0.6307  0.1714
 6131TIP3    H139884   1.809   3.436  15.102  0.2781 -0.2136 -0.0674
 6131TIP3    H239885   1.843   3.350  14.982  0.5325 -0.1231 -0.0611
 6132TIP3   OH239886   2.375   1.254  16.730  0.2108  0.2172  0.0947
 6132TIP3    H139887   2.425   1.315  16.784  1.2459  0.4919 -1.1567
 6132TIP3    H239888   2.441   1.204  16.683 -0.6587 -0.9358  0.0746
 6133TIP3   OH239889   3.953   6.351   3.931  0.5000  0.6505 -0.4761
 6133TIP3    H139890   4.043   6.327   3.951  0.0801 -0.4646  0.1514
 6133TIP3    H239891   3.958   6.442   3.900  1.6159  1.1647  1.1670
 6134TIP3   OH239892   6.498   4.660   1.610 -0.1532  0.1311  0.2812
 6134TIP3    H139893   6.572   4.650   1.669  1.9463  1.6299 -2.0255
 6134TIP3    H239894   6.460   4.572   1.604  1.1334 -0.5514  1.8564
 6135TIP3   OH239895   6.606   1.918   0.989 -0.8537 -0.0020 -0.2165
 6135TIP3    H139896   6.646   1.932   0.903 -0.6178 -0.4223 -0.1722
 6135TIP3    H239897   6.670   1.868   1.039 -1.9324 -1.8018 -0.5749
 6136TIP3   OH239898   5.784   4.214   4.073  0.1754 -0.1049 -0.2387
 6136TIP3    H139899   5.765   4.302   4.039  0.6200  0.6632  1.4114
 6136TIP3    H239900   5.709   4.193   4.128  0.5379 -0.3194  0.1789
 6137TIP3   OH239901   2.755   6.640  15.663  0.3949  0.3479 -0.6225
 6137TIP3    H139902   2.748   6.545  15.669 -0.3263  0.3808 -0.8801
 6137TIP3    H239903   2.796   6.666  15.746 -1.8981  0.0592  0.6251
 6138TIP3   OH239904   3.593   4.875   0.600  0.0983  0.6301  0.3657
 6138TIP3    H139905   3.517   4.839   0.645 -0.2879  2.0931  0.9055
 6138TIP3    H239906   3.651   4.904   0.670  1.0026 -0.1547 -0.0504
 6139TIP3   OH239907   5.990   4.810   5.543  0.2561  0.7075  0.4563
 6139TIP3    H139908   5.968   4.858   5.463 -0.5737  0.9996  0.8543
 6139TIP3    H239909   6.028   4.728   5.511  1.6178  1.5881 -0.2184
 6140TIP3   OH239910   3.181   3.436   1.728 -0.0791 -0.3106  0.3027
 6140TIP3    H139911   3.208   3.344   1.731 -0.5689 -0.5004 -0.9505
 6140TIP3    H239912   3.249   3.479   1.677 -0.6511 -0.2714 -0.4417
 6141TIP3   OH239913   6.740   4.157  15.196 -0.6865 -0.0532 -0.2993
 6141TIP3    H139914   6.684   4.146  15.273  1.5914 -1.3692  1.2142
 6141TIP3    H239915   6.804   4.223  15.221 -2.1105  2.2533 -2.4079
 6142TIP3   OH239916   4.090   6.431  16.216  0.0378  0.0374 -0.6503
 6142TIP3    H139917   4.045   6.348  16.235 -0.0193  0.6176  1.8928
 6142TIP3    H239918   4.130   6.416  16.130 -1.2833 -2.0620 -0.9610
 6143TIP3   OH239919   1.951   1.570   2.358 -0.3603  0.6470 -0.3943
 6143TIP3    H139920   1.946   1.627   2.434 -0.2310 -0.8105  0.7367
 6143TIP3    H239921   1.860   1.555   2.334 -0.4829 -0.5037  0.7299
 6144TIP3   OH239922   4.384   4.859  14.258 -0.2340  0.0036  0.5859
 6144TIP3    H139923   4.298   4.827  14.230  0.1329 -1.6381  1.2732
 6144TIP3    H239924   4.365   4.933  14.315 -1.1716 -0.1473  0.4822
 6145TIP3   OH239925   0.576   3.988   4.208  0.2452 -0.6743 -0.7753
 6145TIP3    H139926   0.485   4.017   4.199  0.0020 -1.4546 -0.8846
 6145TIP3    H239927   0.570   3.905   4.255  0.9551 -0.3721 -0.1427
 6146TIP3   OH239928   1.018   0.296  17.190 -0.0932 -0.3947 -0.2071
 6146TIP3    H139929   1.062   0.319  17.108 -1.9869  0.2187 -1.0710
 6146TIP3    H239930   0.984   0.208  17.175  1.1998 -1.0454  0.6175
 6147TIP3   OH239931   5.960   3.651  15.138 -0.5992 -0.4140  0.0593
 6147TIP3    H139932   5.989   3.722  15.080 -1.1011 -0.7505 -0.6084
 6147TIP3    H239933   6.040   3.621  15.180  0.1196 -1.6222 -2.0912
 6148TIP3   OH239934   2.560   5.698  15.899  0.0412 -0.6970 -0.5859
 6148TIP3    H139935   2.483   5.750  15.924 -0.0659 -0.9295 -0.4300
 6148TIP3    H239936   2.634   5.750  15.930 -0.0604 -0.5607 -0.5698
 6149TIP3   OH239937   1.118   3.026   5.469  0.4175 -0.0931 -0.3503
 6149TIP3    H139938   1.154   3.109   5.438 -1.2969  0.7452 -0.1720
 6149TIP3    H239939   1.117   3.034   5.564  0.2413 -0.3092 -0.3324
 6150TIP3   OH239940   0.486   2.644   2.735 -0.2920  0.3873  0.0835
 6150TIP3    H139941   0.488   2.654   2.830  0.6927  0.6687  0.0319
 6150TIP3    H239942   0.542   2.714   2.702  1.9492 -1.6465 -0.5507
 6151TIP3   OH239943   4.511   0.533  16.709 -0.0251  0.2008  0.3743
 6151TIP3    H139944   4.547   0.472  16.773  1.0779  0.0901 -0.3353
 6151TIP3    H239945   4.588   0.574  16.669 -0.6199 -1.0245 -2.1413
 6152TIP3   OH239946   1.553   0.833  12.113 -0.0173  0.1421  0.5181
 6152TIP3    H139947   1.628   0.773  12.117 -0.6081 -0.4706  2.8996
 6152TIP3    H239948   1.511   0.813  12.029  2.3719  0.4114 -0.8044
 6153TIP3   OH239949   6.264   1.834  14.567  0.0073  0.1063 -0.5954
 6153TIP3    H139950   6.263   1.859  14.660  0.1982 -0.4175 -0.4524
 6153TIP3    H239951   6.185   1.781  14.556 -0.2730  0.5679 -0.8437
 6154TIP3   OH239952   5.017   6.558   3.534  0.5122  0.3607  0.6590
 6154TIP3    H139953   5.035   6.531   3.444  2.0524  1.0351  0.7539
 6154TIP3    H239954   4.937   6.611   3.528  0.2886 -0.0725 -0.2207
 6155TIP3   OH239955   6.550   1.838  15.789 -0.2597  0.2735  0.3085
 6155TIP3    H139956   6.552   1.829  15.884  1.3244 -0.0977  0.2558
 6155TIP3    H239957   6.526   1.751  15.757  1.3905 -0.2009  0.3054
 6156TIP3   OH239958   2.452   5.399  13.143  0.3341  0.0027 -1.3011
 6156TIP3    H139959   2.519   5.332  13.154  0.6634  0.6582  0.7967
 6156TIP3    H239960   2.416   5.383  13.055  3.1744 -0.3808 -2.4423
 6157TIP3   OH239961   0.972   1.139  15.546  0.8685 -0.1420  0.3086
 6157TIP3    H139962   1.058   1.132  15.589  0.9889  3.8662  0.9552
 6157TIP3    H239963   0.992   1.170  15.458  0.1677 -1.2819 -0.2668
 6158TIP3   OH239964   5.465   6.668  14.439  0.4557 -0.5342 -0.3733
 6158TIP3    H139965   5.466   6.594  14.378 -1.0348 -1.5832  0.8366
 6158TIP3    H239966   5.541   6.654  14.496  1.2792 -0.0811 -1.3407
 6159TIP3   OH239967   4.314   3.429   3.572 -0.4122 -0.1914  0.4339
 6159TIP3    H139968   4.241   3.402   3.627 -1.2048  0.3193 -0.3546
 6159TIP3    H239969   4.329   3.354   3.514 -0.2999 -0.2999  0.6024
 6160TIP3   OH239970   6.687   0.593  14.730 -0.9240 -0.4011 -0.0707
 6160TIP3    H139971   6.654   0.593  14.640  1.1337  0.8659 -0.8520
 6160TIP3    H239972   6.610   0.610  14.784 -1.8872  0.4841 -1.6960
 6161TIP3   OH239973   3.320   5.745  11.955  0.2199  0.8430  0.2586
 6161TIP3    H139974   3.339   5.670  11.899  0.9683  1.2480 -0.0350
 6161TIP3    H239975   3.381   5.812  11.927  0.7954  0.9703  1.7561
 6162TIP3   OH239976   5.751   1.076  14.769  0.0574 -0.2824  0.0249
 6162TIP3    H139977   5.701   0.995  14.760 -1.2299  0.5473 -0.3946
 6162TIP3    H239978   5.704   1.140  14.715  0.0584  1.2022  1.7529
 6163TIP3   OH239979   4.258   3.365  12.203 -0.2415 -0.4734  0.4280
 6163TIP3    H139980   4.254   3.447  12.252  0.5456  0.3667 -0.8734
 6163TIP3    H239981   4.351   3.352  12.184 -0.2420 -2.2254  1.5205
 6164TIP3   OH239982   1.236   5.461   2.199 -0.1392 -0.4016 -0.2209
 6164TIP3    H139983   1.239   5.366   2.214 -1.5096 -0.3057  0.8158
 6164TIP3    H239984   1.291   5.498   2.267 -0.1409 -0.4254 -0.2062
 6165TIP3   OH239985   1.250   5.357   5.418  0.0132 -0.2961 -0.1580
 6165TIP3    H139986   1.174   5.318   5.461 -0.9044  0.4949 -1.0326
 6165TIP3    H239987   1.277   5.292   5.354  0.1244 -0.6087  0.2034
 6166TIP3   OH239988   4.986   5.803   0.100  0.7550 -0.3630 -0.2134
 6166TIP3    H139989   4.912   5.770   0.050  1.0404 -0.9990 -0.2269
 6166TIP3    H239990   5.023   5.872   0.045  1.2545 -1.2656 -1.0332
 6167TIP3   OH239991   3.621   4.865   4.562  0.0878 -0.3172  0.2099
 6167TIP3    H139992   3.547   4.841   4.508  0.3288 -0.6758  0.0377
 6167TIP3    H239993   3.687   4.897   4.500 -0.7029  2.0704  0.5220
 6168TIP3   OH239994   1.963   2.682  15.567  0.6041 -0.5189 -0.4170
 6168TIP3    H139995   1.882   2.654  15.610  1.0153  0.5511  1.0801
 6168TIP3    H239996   2.025   2.612  15.585  0.0623 -1.2698 -1.4373
 6169TIP3   OH239997   2.107   1.145   4.346  0.1961 -0.0446  0.3216
 6169TIP3    H139998   2.125   1.213   4.281  2.1096 -0.4888  0.3403
 6169TIP3    H239999   2.193   1.107   4.364 -0.8095 -2.2878  0.5039
 6170TIP3   OH240000   4.957   0.182  12.781 -0.3630 -0.1028  0.0719
 6170TIP3    H140001   5.015   0.203  12.708 -1.7102  1.5389 -0.5741
 6170TIP3    H240002   4.928   0.267  12.814 -0.3051 -0.8453  2.1029
 6171TIP3   OH240003   1.352   3.895   4.425 -0.0786 -0.0974  0.3409
 6171TIP3    H140004   1.293   3.821   4.436  1.2505 -1.5002 -1.7543
 6171TIP3    H240005   1.314   3.946   4.354 -0.5215  0.7734  1.1957
 6172TIP3   OH240006   4.508   3.588   0.956  0.1472  0.5727  0.0181
 6172TIP3    H140007   4.574   3.564   0.891 -0.5952 -2.0966  0.2068
 6172TIP3    H240008   4.431   3.613   0.905 -0.2159 -0.8780 -0.1626
 6173TIP3   OH240009   0.074   0.495   3.632 -0.0450 -0.2230  0.2453
 6173TIP3    H140010   0.164   0.523   3.619  0.5596 -1.4783  1.5248
 6173TIP3    H240011   0.029   0.573   3.664  0.4232  0.5761 -1.0049
 6174TIP3   OH240012   1.369   3.411  11.606 -0.2056 -0.5720  0.2079
 6174TIP3    H140013   1.311   3.488  11.612  1.2253  0.5528 -0.1086
 6174TIP3    H240014   1.328   3.356  11.539 -0.5495  0.5321 -0.5021
 6175TIP3   OH240015   5.474   5.128  14.112 -0.6530  0.4866  0.3190
 6175TIP3    H140016   5.554   5.076  14.105 -1.4601 -0.6586 -0.8444
 6175TIP3    H240017   5.442   5.112  14.200  0.1786  0.6088  0.6429
 6176TIP3   OH240018   0.674   3.489   5.741  0.3499 -1.0978  0.4692
 6176TIP3    H140019   0.641   3.536   5.817  0.1551  0.2217 -0.4082
 6176TIP3    H240020   0.600   3.436   5.712 -0.7706  1.1603 -0.9496
 6177TIP3   OH240021   0.279   3.993   5.377  0.1629  0.1783 -0.6932
 6177TIP3    H140022   0.316   4.038   5.300 -0.1960  0.3895 -0.7461
 6177TIP3    H240023   0.352   3.987   5.438  0.9719 -1.6994 -1.7922
 6178TIP3   OH240024   5.647   6.268   3.175 -0.1415 -0.2434  0.2425
 6178TIP3    H140025   5.683   6.334   3.234 -1.7592  0.3610  0.5927
 6178TIP3    H240026   5.683   6.290   3.089 -0.4661  0.9462  0.4042
 6179TIP3   OH240027   1.704   5.662   6.901 -0.0008  0.8100 -0.0866
 6179TIP3    H140028   1.608   5.665   6.893  0.0009  0.0095 -0.3973
 6179TIP3    H240029   1.723   5.571   6.924  0.6165  1.1773  0.8927
 6180TIP3   OH240030   2.392   2.604  16.510  0.4614  0.6477 -0.2523
 6180TIP3    H140031   2.342   2.646  16.439  0.9434 -1.7389 -2.0645
 6180TIP3    H240032   2.326   2.556  16.559  0.4709  0.3992 -0.4842
 6181TIP3   OH240033   1.620   5.289  14.221 -0.8247 -0.5643  0.0100
 6181TIP3    H140034   1.713   5.267  14.209 -0.0089  2.6329 -0.0254
 6181TIP3    H240035   1.588   5.307  14.133 -0.5050  1.7991  0.3442
 6182TIP3   OH240036   4.011   3.777   5.421  0.1392 -0.9680  0.3270
 6182TIP3    H140037   3.948   3.710   5.447 -1.5256  1.7583  3.8531
 6182TIP3    H240038   4.084   3.767   5.482 -0.8955  1.4081  2.0540
 6183TIP3   OH240039   6.059   0.397  15.453 -0.2766  0.2525 -0.0984
 6183TIP3    H140040   6.039   0.321  15.507  0.1901  0.4518  0.3597
 6183TIP3    H240041   6.153   0.390  15.435 -0.1846  0.8398  0.1414
 6184TIP3   OH240042   6.526   1.272  11.762 -0.0823 -0.5802 -0.1484
 6184TIP3    H140043   6.558   1.314  11.682 -0.5974  1.4785  0.6928
 6184TIP3    H240044   6.431   1.277  11.755 -0.1293 -0.3820  0.5768
 6185TIP3   OH240045   4.894   0.815   4.688 -0.3558 -0.0063 -0.5375
 6185TIP3    H140046   4.903   0.746   4.622  0.4348 -0.0374 -0.4044
 6185TIP3    H240047   4.871   0.768   4.768 -0.2809 -0.0707 -0.5531
 6186TIP3   OH240048   1.760   4.543  16.678  0.2012 -0.0684  0.2414
 6186TIP3    H140049   1.727   4.454  16.667 -3.7301  1.1797  1.1196
 6186TIP3    H240050   1.711   4.595  16.613  0.7489  1.8003  1.2788
 6187TIP3   OH240051   4.873   0.922  12.419  0.3564  0.4744 -0.0399
 6187TIP3    H140052   4.889   1.001  12.470  0.4341 -0.3408  1.1959
 6187TIP3    H240053   4.935   0.858  12.453 -1.7624 -1.0365  1.0323
 6188TIP3   OH240054   4.812   2.759  13.072 -0.3659  0.2252 -0.2907
 6188TIP3    H140055   4.765   2.842  13.074 -0.8545 -0.0562 -0.1684
 6188TIP3    H240056   4.794   2.722  12.986 -1.6622 -0.6293  0.3458
 6189TIP3   OH240057   1.576   0.798   5.433 -0.0561 -0.2289  0.2659
 6189TIP3    H140058   1.535   0.761   5.355  0.9594 -1.5709  0.3547
 6189TIP3    H240059   1.586   0.891   5.413 -0.0601 -0.5150 -1.0951
 6190TIP3   OH240060   5.081   3.320   5.584 -0.4377 -0.3198  0.4178
 6190TIP3    H140061   5.155   3.336   5.525 -1.5635  2.8974 -0.2468
 6190TIP3    H240062   5.122   3.306   5.669  1.0126 -0.2130 -0.2397
 6191TIP3   OH240063   4.284   1.631  14.807 -0.1331  0.5798  0.4329
 6191TIP3    H140064   4.226   1.586  14.746 -0.0747  0.7869  0.2235
 6191TIP3    H240065   4.290   1.721  14.773  2.4220 -0.1075 -1.0817
 6192TIP3   OH240066   4.522   3.053  12.983  0.4777  0.3247  0.3149
 6192TIP3    H140067   4.519   3.028  13.075  1.3533 -2.0922 -0.2832
 6192TIP3    H240068   4.434   3.031  12.950  0.6165 -0.1339  0.2479
 6193TIP3   OH240069   1.285   1.831   6.054 -0.3013 -0.5871 -0.2978
 6193TIP3    H140070   1.202   1.799   6.090  0.1743  0.3475  1.6985
 6193TIP3    H240071   1.334   1.863   6.130  0.8438  1.2562 -1.7521
 6194TIP3   OH240072   1.175   4.434  14.258 -0.9026 -0.6968 -0.0411
 6194TIP3    H140073   1.139   4.421  14.345  0.9429 -3.3670  0.3811
 6194TIP3    H240074   1.120   4.382  14.201  0.8491 -2.9898  0.2900
 6195TIP3   OH240075   0.021   1.698   3.975  0.0361 -0.0649 -0.6618
 6195TIP3    H140076  -0.036   1.712   3.900  1.8558  0.4151 -1.9698
 6195TIP3    H240077   0.070   1.619   3.953 -0.9271 -1.1582  0.9749
 6196TIP3   OH240078   3.541   3.871   2.416 -0.3559 -0.0739  0.0075
 6196TIP3    H140079   3.471   3.856   2.479 -0.8458  0.4913 -0.3954
 6196TIP3    H240080   3.522   3.957   2.379  2.0753  1.3130  1.8527
 6197TIP3   OH240081   6.711   0.151  12.275  0.1754  0.2162 -0.3450
 6197TIP3    H140082   6.754   0.070  12.246  0.9137  0.1035  1.0123
 6197TIP3    H240083   6.752   0.171  12.359  0.3223  2.2572 -0.8719
 6198TIP3   OH240084   5.193   6.530  13.241 -0.4217 -0.2127 -0.3012
 6198TIP3    H140085   5.111   6.566  13.208 -0.7390 -1.4405 -0.8880
 6198TIP3    H240086   5.189   6.437  13.217  0.7137 -0.4699  0.4999
 6199TIP3   OH240087   6.549   4.638   6.191 -0.4221  0.3483  0.6341
 6199TIP3    H140088   6.608   4.592   6.131  0.5142 -0.2499  1.9639
 6199TIP3    H240089   6.511   4.568   6.245  0.9337  1.1010  2.6112
 6200TIP3   OH240090   1.091   2.546   4.139  0.2690  0.3301 -0.0255
 6200TIP3    H140091   1.041   2.530   4.059  0.2306 -1.3493  0.3028
 6200TIP3    H240092   1.161   2.605   4.112  0.4235 -0.4402 -1.3764
 6201TIP3   OH240093   2.516   0.830  15.204  0.3730  0.4568 -0.1767
 6201TIP3    H140094   2.544   0.848  15.114  5.1173 -1.2129  0.8578
 6201TIP3    H240095   2.542   0.908  15.253  1.4487 -0.3166  0.4744
 6202TIP3   OH240096   6.368   1.734   3.258  0.1581  0.0157 -0.2324
 6202TIP3    H140097   6.460   1.752   3.238 -0.1938  1.5109 -0.4916
 6202TIP3    H240098   6.372   1.666   3.325  1.4206 -1.3660 -1.6450
 6203TIP3   OH240099   3.760   4.729  14.184  0.4574  0.2968  1.5550
 6203TIP3    H140100   3.780   4.686  14.267 -0.2214 -0.8443  1.1437
 6203TIP3    H240101   3.701   4.668  14.140 -0.0047  1.3734  0.6817
 6204TIP3   OH240102   4.453   6.116   0.207 -0.1146 -0.3555  0.5310
 6204TIP3    H140103   4.510   6.171   0.154  0.7159  0.6264  2.3899
 6204TIP3    H240104   4.383   6.175   0.235  0.5722 -0.3216  2.2187
 6205TIP3   OH240105   5.817   6.567   0.875 -0.2282  0.6354  0.5617
 6205TIP3    H140106   5.851   6.583   0.787  0.7210  2.9931  1.3137
 6205TIP3    H240107   5.728   6.601   0.873 -0.1359  0.8789  0.5613
 6206TIP3   OH240108   2.339   3.704   2.551 -0.0358 -0.3122  0.1033
 6206TIP3    H140109   2.324   3.771   2.618 -0.3909 -1.0004  0.7274
 6206TIP3    H240110   2.433   3.687   2.554 -0.0891 -0.5363  0.6343
 6207TIP3   OH240111   3.832   3.718  13.272  0.3187  0.2104 -0.5366
 6207TIP3    H140112   3.912   3.669  13.290  0.3952  0.7028  0.4884
 6207TIP3    H240113   3.761   3.658  13.294  0.3913 -0.3688 -1.8285
 6208TIP3   OH240114   3.911   3.037  16.988 -0.4679 -0.1276  0.3499
 6208TIP3    H140115   4.006   3.025  16.988 -0.5964 -1.2698 -2.3437
 6208TIP3    H240116   3.900   3.132  16.987  0.5945  0.0684  2.4053
 6209TIP3   OH240117   1.343   4.262  12.580  0.5639  0.4300 -0.0665
 6209TIP3    H140118   1.354   4.177  12.538 -0.2168 -0.5226  1.6045
 6209TIP3    H240119   1.288   4.311  12.520  2.4194  0.3748 -1.8557
 6210TIP3   OH240120   6.100   4.450   5.963 -0.1265  0.4797 -0.1398
 6210TIP3    H140121   6.095   4.371   5.909 -0.6436 -0.2295  0.9453
 6210TIP3    H240122   6.009   4.473   5.981  0.0539 -0.7636  2.5709
 6211TIP3   OH240123   3.332   2.168  16.447  0.0473  0.0378 -0.1220
 6211TIP3    H140124   3.397   2.175  16.376 -0.5894  2.1792 -0.5342
 6211TIP3    H240125   3.323   2.074  16.461  2.0507 -0.3603 -1.1634
 6212TIP3   OH240126   5.292   0.510   6.150 -0.6071  0.2950  0.0476
 6212TIP3    H140127   5.239   0.525   6.228  0.8352  0.0908  1.0871
 6212TIP3    H240128   5.357   0.580   6.151  0.7858 -0.9762  0.2278
 6213TIP3   OH240129   4.993   2.443  12.144 -0.2710  0.0260  0.2634
 6213TIP3    H140130   5.017   2.435  12.051 -1.6763  0.8320 -0.1846
 6213TIP3    H240131   4.904   2.479  12.143 -0.3779 -0.1462  1.9273
 6214TIP3   OH240132   0.827   2.562  15.405  0.4776 -0.0065 -0.0021
 6214TIP3    H140133   0.888   2.598  15.341 -0.1502  0.1450 -0.5126
 6214TIP3    H240134   0.856   2.599  15.489  2.3251 -1.5252  0.0655
 6215TIP3   OH240135   5.623   2.808  16.941 -0.2534  0.0905  0.2871
 6215TIP3    H140136   5.604   2.887  16.993  0.7984 -0.3403  1.3401
 6215TIP3    H240137   5.707   2.778  16.974 -0.4716 -1.2593 -0.3878
 6216TIP3   OH240138   2.751   2.179   1.433  0.1014 -0.2567 -0.0152
 6216TIP3    H140139   2.830   2.173   1.380 -0.5463  0.5742 -1.0739
 6216TIP3    H240140   2.679   2.188   1.370 -1.0001 -2.3518  0.8590
 6217TIP3   OH240141   6.548   1.644  11.430  0.2664  0.3912  0.6288
 6217TIP3    H140142   6.572   1.693  11.351 -0.1363  0.2551  0.4174
 6217TIP3    H240143   6.480   1.698  11.472  1.1148  0.9081  1.3615
 6218TIP3   OH240144   3.121   5.549   4.837  0.0901 -0.0515 -0.4869
 6218TIP3    H140145   3.047   5.492   4.858  0.3691 -0.1021  0.3801
 6218TIP3    H240146   3.195   5.489   4.826  0.1741  0.0648 -0.5550
 6219TIP3   OH240147   5.885   0.100  15.382 -0.0322  0.0927 -0.0572
 6219TIP3    H140148   5.829   0.164  15.337  0.2729 -0.2967 -0.9999
 6219TIP3    H240149   5.930   0.053  15.311 -1.1857 -2.0159  0.5596
 6220TIP3   OH240150   1.355   4.202  13.057  0.2184  0.1609 -0.0462
 6220TIP3    H140151   1.391   4.117  13.085  2.9121  0.7385 -1.6649
 6220TIP3    H240152   1.393   4.218  12.971  0.1060  3.2403  0.4162
 6221TIP3   OH240153   6.383   2.680  13.012 -0.0782  0.0996  0.3785
 6221TIP3    H140154   6.452   2.738  12.981 -0.3011 -0.2627 -0.8240
 6221TIP3    H240155   6.317   2.739  13.048  0.0469  0.5550 -0.1232
 6222TIP3   OH240156   0.248   0.943  17.027 -0.2191  0.1737  0.1576
 6222TIP3    H140157   0.243   0.879  16.956 -1.6583  0.7104 -0.2530
 6222TIP3    H240158   0.278   0.893  17.103  0.9885 -0.4786 -0.7286
 6223TIP3   OH240159   2.900   3.236   4.576 -0.0343  0.0724 -0.4223
 6223TIP3    H140160   2.958   3.270   4.644  0.9599  1.4299 -1.9033
 6223TIP3    H240161   2.812   3.260   4.604  0.2754 -0.2846  0.8741
 6224TIP3   OH240162   3.919   1.551   5.007  0.1716 -0.6486 -0.1878
 6224TIP3    H140163   3.914   1.566   5.101 -1.7219 -0.3647 -0.3091
 6224TIP3    H240164   3.853   1.483   4.990  0.8744 -1.0835 -1.2209
 6225TIP3   OH240165   1.233   0.201   3.989 -0.1812 -0.1400  0.2194
 6225TIP3    H140166   1.184   0.272   3.946  0.1388  1.8357  2.9731
 6225TIP3    H240167   1.324   0.216   3.963 -0.4253 -0.9881 -1.1295
 6226TIP3   OH240168   5.706   0.683   4.396 -0.2977 -0.2930 -0.1012
 6226TIP3    H140169   5.624   0.688   4.446 -0.0732  0.9281  0.1666
 6226TIP3    H240170   5.757   0.615   4.441 -0.3663  0.3352  0.9451
 6227TIP3   OH240171   3.824   2.145   2.038 -0.3144  0.1396 -0.7097
 6227TIP3    H140172   3.907   2.111   2.069 -1.1821 -0.6035  0.8463
 6227TIP3    H240173   3.812   2.227   2.085 -0.7666 -0.0720 -0.4524
 6228TIP3   OH240174   1.596   4.304  16.612 -0.5740  0.5779 -0.0418
 6228TIP3    H140175   1.568   4.275  16.525 -2.2603  2.4621 -0.1392
 6228TIP3    H240176   1.516   4.337  16.654  0.2243 -0.2218  2.2160
 6229TIP3   OH240177   5.295   1.605   2.703  0.2923 -0.0678  0.0110
 6229TIP3    H140178   5.219   1.638   2.751  1.8863  0.4341  2.2390
 6229TIP3    H240179   5.347   1.683   2.683  2.1268 -0.7714  1.8735
 6230TIP3   OH240180   1.787   3.086  15.079 -0.1426 -0.4279  0.3096
 6230TIP3    H140181   1.702   3.058  15.111  0.2707 -1.9193  0.1557
 6230TIP3    H240182   1.776   3.179  15.059 -2.2641 -0.9898 -1.4100
 6231TIP3   OH240183   3.340   1.084   1.435 -0.2269  0.1756  0.1134
 6231TIP3    H140184   3.421   1.048   1.399 -0.5801 -1.5223  1.0019
 6231TIP3    H240185   3.287   1.008   1.458 -0.1378  1.1596  3.9144
 6232TIP3   OH240186   3.147   1.631  12.576  0.3424  0.4491 -0.4232
 6232TIP3    H140187   3.209   1.558  12.578  0.4195  0.5265 -0.0094
 6232TIP3    H240188   3.105   1.629  12.661  0.1424  0.7170 -0.5160
 6233TIP3   OH240189   4.889   2.850   2.225 -0.5155  0.1642 -0.2913
 6233TIP3    H140190   4.928   2.937   2.219 -1.7781  0.7931  0.4657
 6233TIP3    H240191   4.907   2.823   2.315  2.2853 -1.5351 -1.2935
 6234TIP3   OH240192   1.226   3.673  11.630 -0.2498  0.5260  0.4502
 6234TIP3    H140193   1.280   3.720  11.567  1.0202 -1.1067  0.2936
 6234TIP3    H240194   1.226   3.729  11.708  2.5207  0.1052  0.8024
 6235TIP3   OH240195   6.541   4.807  14.219  0.1712  0.4628  0.9356
 6235TIP3    H140196   6.633   4.782  14.226  0.0173 -0.0412  1.1170
 6235TIP3    H240197   6.542   4.889  14.170  0.4750 -1.2328 -2.0090
 6236TIP3   OH240198   5.278   3.785   5.214  0.6841 -0.1831 -0.8257
 6236TIP3    H140199   5.212   3.723   5.246  0.0852  1.9404  2.2703
 6236TIP3    H240200   5.254   3.801   5.122 -1.6277 -1.3054 -0.4421
 6237TIP3   OH240201   2.462   5.978   2.375 -0.2470  0.9607 -0.3080
 6237TIP3    H140202   2.402   5.976   2.300 -0.5473 -2.1254 -0.0210
 6237TIP3    H240203   2.544   6.011   2.338 -0.7300  0.6171 -1.7247
 6238TIP3   OH240204   2.693   4.476   3.679 -0.3774 -0.2469  0.1968
 6238TIP3    H140205   2.676   4.383   3.695  0.6952 -0.9110 -2.2670
 6238TIP3    H240206   2.759   4.477   3.609 -1.7995  2.3638 -1.2028
 6239TIP3   OH240207   4.665   2.276  13.970 -0.3026 -0.3113  0.3605
 6239TIP3    H140208   4.607   2.246  14.040 -1.0142 -0.1468 -0.1599
 6239TIP3    H240209   4.641   2.223  13.894 -0.3881  0.3757 -0.0974
 6240TIP3   OH240210   4.838   3.758  11.574  0.4856  0.2678  0.5613
 6240TIP3    H140211   4.744   3.753  11.558  0.4661 -1.4881  1.0443
 6240TIP3    H240212   4.865   3.840  11.534 -0.9954  0.0875 -0.8906
 6241TIP3   OH240213   4.735   6.452   1.901  0.1390 -0.9602  0.3880
 6241TIP3    H140214   4.762   6.408   1.982  1.1760  0.4133  0.8152
 6241TIP3    H240215   4.658   6.503   1.927  0.6733 -0.2515  0.6085
 6242TIP3   OH240216   4.070   3.955  10.239  0.2098  0.3337  0.7147
 6242TIP3    H140217   4.100   3.924  10.154  0.2232  0.2661  0.7434
 6242TIP3    H240218   3.997   3.898  10.262  0.5640 -0.0083  1.0016
 6243TIP3   OH240219   0.975   1.316   4.821  0.1366  0.3128  0.0950
 6243TIP3    H140220   0.992   1.224   4.801  0.5292  0.6234 -1.0413
 6243TIP3    H240221   0.881   1.319   4.840 -0.0631 -0.1798 -0.7536
 6244TIP3   OH240222   3.277   1.812  12.040  0.1642  0.4442  0.2594
 6244TIP3    H140223   3.262   1.827  11.947  2.4366  1.4761  0.0423
 6244TIP3    H240224   3.277   1.716  12.049  0.3262  0.3397 -0.8499
 6245TIP3   OH240225   6.588   1.498   2.677  0.4041 -0.4077  0.1550
 6245TIP3    H140226   6.583   1.403   2.666  0.6589 -0.7140  2.5150
 6245TIP3    H240227   6.675   1.521   2.643  0.3140 -0.9919 -0.4898
 6246TIP3   OH240228   3.496   2.550  12.499  0.1675  0.3299  0.0074
 6246TIP3    H140229   3.545   2.496  12.437  0.5733 -0.6315  1.1599
 6246TIP3    H240230   3.531   2.638  12.487 -1.0107  0.5104 -2.4035
 6247TIP3   OH240231   0.139   4.899   1.439 -0.1920 -0.1411  0.2561
 6247TIP3    H140232   0.143   4.995   1.442  2.6828 -0.2622  2.6323
 6247TIP3    H240233   0.159   4.877   1.348  1.3499  1.4519  0.1890
 6248TIP3   OH240234   4.179   1.250   3.276 -0.1788 -0.0825 -0.5418
 6248TIP3    H140235   4.272   1.263   3.292 -0.2899  1.3093 -0.9894
 6248TIP3    H240236   4.163   1.291   3.191 -1.2715  0.0497 -0.2811
 6249TIP3   OH240237   3.304   1.195   1.699 -0.5917 -0.2967  0.2897
 6249TIP3    H140238   3.290   1.147   1.618 -1.4685  1.2161 -0.4929
 6249TIP3    H240239   3.348   1.133   1.757  0.9371 -1.0923 -1.6622
 6250TIP3   OH240240   0.880   3.789  16.085  0.6212  0.4090 -0.6427
 6250TIP3    H140241   0.797   3.828  16.113  1.7057  2.0628  0.3896
 6250TIP3    H240242   0.865   3.761  15.995 -1.1126  0.4836 -0.3939
 6251TIP3   OH240243   4.078   1.532  14.659  0.3513  0.0548  0.0449
 6251TIP3    H140244   4.106   1.552  14.569 -0.0902 -0.3278 -0.1781
 6251TIP3    H240245   4.107   1.442  14.673  0.2494  0.0509  0.2210
 6252TIP3   OH240246   1.614   0.195   6.306  0.1440 -0.4863  0.4082
 6252TIP3    H140247   1.585   0.106   6.321 -0.1545 -0.3439  0.6729
 6252TIP3    H240248   1.709   0.193   6.323  0.7191 -1.4534 -2.6983
 6253TIP3   OH240249   2.442   2.147  14.085  0.0411  0.0376  0.0754
 6253TIP3    H140250   2.533   2.162  14.111  0.0426 -0.7694  0.5666
 6253TIP3    H240251   2.424   2.214  14.019  1.0547  0.0687 -0.1791
 6254TIP3   OH240252   3.157   6.375  16.434  0.5012  0.4811  0.7679
 6254TIP3    H140253   3.074   6.377  16.386 -0.5317  1.3514  2.5211
 6254TIP3    H240254   3.161   6.460  16.478  2.8109  0.8425 -0.0579
 6255TIP3   OH240255   0.556   4.297   5.464 -0.2010  0.1071  0.3148
 6255TIP3    H140256   0.502   4.352   5.520 -0.0770  0.5980 -0.0366
 6255TIP3    H240257   0.496   4.265   5.397 -0.0596  0.6823 -0.0971
 6256TIP3   OH240258   0.010   6.804   5.336  0.2897 -0.6092  0.3041
 6256TIP3    H140259   0.023   6.709   5.333 -0.0674 -0.6380 -0.4637
 6256TIP3    H240260  -0.052   6.821   5.266  0.2600  0.1809  0.5258
 6257TIP3   OH240261   5.713   2.470  15.467 -0.7695  0.5779 -0.1126
 6257TIP3    H140262   5.732   2.557  15.432 -1.5879  0.8778  0.1615
 6257TIP3    H240263   5.721   2.411  15.392  0.4600  0.7870 -0.1595
 6258TIP3   OH240264   4.693   2.344  12.404  0.3388  0.1340  0.9766
 6258TIP3    H140265   4.602   2.317  12.416 -0.0691  0.6110 -0.9038
 6258TIP3    H240266   4.720   2.301  12.322  1.7547  0.1222  1.4349
 6259TIP3   OH240267   0.583   1.393   2.285  0.2994  0.1316  0.3220
 6259TIP3    H140268   0.535   1.452   2.227 -1.1729 -1.2240  0.1333
 6259TIP3    H240269   0.617   1.449   2.355 -1.2875  1.1620  0.2752
 6260TIP3   OH240270   4.806   5.675  17.197 -0.8964  0.0633  0.4632
 6260TIP3    H140271   4.793   5.593  17.245 -0.0751 -1.1239 -1.2501
 6260TIP3    H240272   4.721   5.694  17.158 -0.6884 -0.9342 -0.5249
 6261TIP3   OH240273   4.821   2.187   1.327 -0.5250 -0.1109  0.1205
 6261TIP3    H140274   4.790   2.242   1.256  0.1656  0.7790  0.4941
 6261TIP3    H240275   4.742   2.142   1.359 -0.9932  0.2198 -0.5574
 6262TIP3   OH240276   4.261   0.423   4.707  0.3097  0.2450  0.2605
 6262TIP3    H140277   4.183   0.369   4.694  0.3564  0.1325  0.4477
 6262TIP3    H240278   4.324   0.364   4.749  0.8999 -0.0073 -0.9297
 6263TIP3   OH240279   5.568   5.719   1.236  0.1860 -0.2344 -0.0134
 6263TIP3    H140280   5.643   5.712   1.177  0.6043 -1.7393  0.6716
 6263TIP3    H240281   5.605   5.748   1.319 -0.0807 -0.3870  0.1592
 6264TIP3   OH240282   2.873   2.436   4.063 -0.6295 -0.6844 -0.4242
 6264TIP3    H140283   2.799   2.413   4.008 -1.6672  0.6429  0.3964
 6264TIP3    H240284   2.847   2.517   4.106  2.1156  0.8982 -1.6354
 6265TIP3   OH240285   3.378   2.579   2.151 -0.1142  0.2415 -0.0770
 6265TIP3    H140286   3.371   2.484   2.139  0.7950  0.4306 -2.3444
 6265TIP3    H240287   3.349   2.616   2.067  2.7371  1.8294 -0.4229
 6266TIP3   OH240288   1.112   5.755   1.312  0.0523 -0.0525  0.5067
 6266TIP3    H140289   1.205   5.755   1.336  0.1183  1.7569  0.3240
 6266TIP3    H240290   1.097   5.669   1.274  1.8026 -0.1759  0.0631
 6267TIP3   OH240291   3.699   3.028   1.248 -0.0508 -0.4419  0.2678
 6267TIP3    H140292   3.768   2.997   1.307  1.0427  2.8104  0.8250
 6267TIP3    H240293   3.744   3.047   1.166 -0.5238  0.4131  0.2036
 6268TIP3   OH240294   5.936   4.119  16.848 -0.5364  0.0235  0.4290
 6268TIP3    H140295   5.841   4.119  16.841 -0.4864 -0.3767 -0.2620
 6268TIP3    H240296   5.954   4.064  16.925 -0.8558  0.0390  0.5162
 6269TIP3   OH240297   2.908   1.569   2.156  0.3281  0.0868  0.2140
 6269TIP3    H140298   2.950   1.616   2.084  0.3188 -0.8735 -0.4290
 6269TIP3    H240299   2.961   1.591   2.233 -0.8959  2.7933  0.3347
 6270TIP3   OH240300   2.773   2.443  15.324 -0.5677 -0.1822 -0.1053
 6270TIP3    H140301   2.808   2.510  15.266 -0.7370 -2.7827 -3.3386
 6270TIP3    H240302   2.848   2.416  15.378  0.1107  0.8232 -0.5377
 6271TIP3   OH240303   0.228   1.309  10.318 -0.5326 -0.0385 -0.2456
 6271TIP3    H140304   0.239   1.245  10.248 -1.4654 -0.0356 -0.4068
 6271TIP3    H240305   0.151   1.278  10.367  0.1346 -0.0684  0.8047
 6272TIP3   OH240306   0.904   3.276  16.677  0.4539 -0.1317 -0.1508
 6272TIP3    H140307   0.887   3.320  16.594  0.0013 -1.3188 -0.7002
 6272TIP3    H240308   0.986   3.228  16.662 -0.6881 -1.9866 -0.5946
 6273TIP3   OH240309   1.363   1.524   3.653  0.4387 -0.0153  0.1354
 6273TIP3    H140310   1.401   1.610   3.671  0.2523  0.1911 -0.4275
 6273TIP3    H240311   1.382   1.509   3.560  1.0288 -0.8702  0.3853
 6274TIP3   OH240312   0.744   5.717  16.006  0.0293  0.0979  0.7532
 6274TIP3    H140313   0.792   5.794  16.038  1.0345  0.1656 -0.8897
 6274TIP3    H240314   0.788   5.693  15.925 -2.1283 -0.4222 -0.3079
 6275TIP3   OH240315   2.617   1.101  15.854 -0.3632  0.1598  0.3222
 6275TIP3    H140316   2.523   1.082  15.862 -0.2911 -0.6406 -0.6696
 6275TIP3    H240317   2.628   1.127  15.762  0.3883  0.2269  0.4331
 6276TIP3   OH240318   3.111   3.931   1.985 -0.0014 -0.2270  0.8395
 6276TIP3    H140319   3.160   3.870   1.930 -0.1955 -0.4717  0.9404
 6276TIP3    H240320   3.021   3.927   1.953  0.1384  0.5891  0.3384
 6277TIP3   OH240321   6.820   6.439   2.196 -0.2084  0.0934  0.2951
 6277TIP3    H140322   6.731   6.406   2.212  0.9244 -3.2510 -0.0071
 6277TIP3    H240323   6.834   6.505   2.264 -1.8002 -1.5178  2.2374
 6278TIP3   OH240324   1.114   2.583   2.260  0.8074 -0.0580 -0.0831
 6278TIP3    H140325   1.189   2.544   2.216 -0.4191 -2.7540  0.1329
 6278TIP3    H240326   1.136   2.582   2.353  1.1052  0.5504 -0.1418
 6279TIP3   OH240327   1.702   4.469   2.996  0.2344  0.9882 -0.5413
 6279TIP3    H140328   1.694   4.544   3.055 -1.2276  1.6262 -1.5390
 6279TIP3    H240329   1.728   4.397   3.054  3.0654  2.5311  0.2166
 6280TIP3   OH240330   1.815   5.516  13.336  0.8030 -0.5848 -0.4706
 6280TIP3    H140331   1.800   5.610  13.334  0.3062 -0.6585 -0.2015
 6280TIP3    H240332   1.883   5.505  13.403 -0.3889 -0.5854  0.7499
 6281TIP3   OH240333   5.886   1.240   4.527 -0.1967  0.5015 -0.9137
 6281TIP3    H140334   5.831   1.309   4.489  0.6752  2.2775  0.9555
 6281TIP3    H240335   5.965   1.285   4.555 -0.0869 -1.0269  1.4201
 6282TIP3   OH240336   6.277   2.892  13.813 -0.2160 -0.2124  0.5001
 6282TIP3    H140337   6.207   2.934  13.864 -1.1638 -0.9263 -0.1951
 6282TIP3    H240338   6.284   2.804  13.850  0.2892 -0.1582  0.5378
 6283TIP3   OH240339   6.272   5.953   2.647 -0.0404 -0.4131  0.1489
 6283TIP3    H140340   6.348   5.969   2.702 -1.4913  0.8251  1.8520
 6283TIP3    H240341   6.307   5.910   2.569  2.5378  1.3350  0.3124
 6284TIP3   OH240342   0.692   6.755   4.302  0.3977  0.1419  0.4430
 6284TIP3    H140343   0.785   6.737   4.318  0.1523  0.3028  2.1413
 6284TIP3    H240344   0.646   6.679   4.338 -0.2276  0.9534  1.4010
 6285TIP3   OH240345   4.924   2.420  13.007 -0.4271  0.5793  0.5017
 6285TIP3    H140346   5.016   2.406  12.984 -0.6775 -0.7937  0.3161
 6285TIP3    H240347   4.894   2.485  12.943 -0.5596 -1.6976 -1.8032
 6286TIP3   OH240348   0.782   5.826   6.226  0.2272 -0.5382  0.8913
 6286TIP3    H140349   0.789   5.852   6.318  0.8120  1.1428  0.3815
 6286TIP3    H240350   0.733   5.896   6.184  2.5375  0.2203 -0.6699
 6287TIP3   OH240351   6.531   3.842  13.541 -1.1541 -0.2771  0.1164
 6287TIP3    H140352   6.495   3.894  13.469  0.0074  1.7889  0.9805
 6287TIP3    H240353   6.516   3.751  13.515 -1.7433  0.4594 -2.2208
 6288TIP3   OH240354   0.018   4.899   6.173  0.1885 -0.1750 -0.6792
 6288TIP3    H140355   0.028   4.816   6.127 -0.5528 -0.1022 -0.9878
 6288TIP3    H240356   0.082   4.896   6.244 -0.1240 -1.1873 -0.4432
 6289TIP3   OH240357   1.470   4.684   2.796 -0.2188 -0.1045 -0.0552
 6289TIP3    H140358   1.548   4.722   2.837 -1.1736  1.5823  0.2490
 6289TIP3    H240359   1.428   4.757   2.752 -1.6836 -0.9878 -0.1583
 6290TIP3   OH240360   0.037   1.966  16.570 -0.6538  0.3887 -0.7915
 6290TIP3    H140361   0.100   1.939  16.503  1.2387  0.1064  1.0551
 6290TIP3    H240362   0.080   2.040  16.614 -0.3610 -1.4862  2.2459
 6291TIP3   OH240363   6.546   0.177  11.722  0.1104  0.6560 -0.2273
 6291TIP3    H140364   6.530   0.271  11.710  0.3351  0.6182 -0.8266
 6291TIP3    H240365   6.535   0.163  11.816  0.0846  1.2849 -0.1325
 6292TIP3   OH240366   2.758   3.526  13.465 -0.0477 -0.0270  0.1597
 6292TIP3    H140367   2.835   3.473  13.444  1.1075  0.4877  2.8592
 6292TIP3    H240368   2.707   3.528  13.384  2.5923 -0.6911 -1.5692
 6293TIP3   OH240369   4.589   2.172  12.067  0.4720  0.8363  0.7302
 6293TIP3    H140370   4.503   2.138  12.090  0.8926 -1.6884 -1.1738
 6293TIP3    H240371   4.648   2.136  12.134  0.2811  1.4254  1.2253
 6294TIP3   OH240372   2.121   3.366   0.861  0.4900  0.9255 -0.2037
 6294TIP3    H140373   2.051   3.430   0.845 -1.0382 -0.5650  0.3905
 6294TIP3    H240374   2.076   3.290   0.898  2.3140 -0.4077 -0.6650
 6295TIP3   OH240375   5.082   0.421   1.463  0.5348 -0.3236 -0.1393
 6295TIP3    H140376   5.047   0.455   1.546  0.4446 -0.0137 -0.3019
 6295TIP3    H240377   5.172   0.454   1.461  0.8444 -1.1370  0.2881
 6296TIP3   OH240378   2.933   0.776   1.976 -0.2019  0.1543 -0.4236
 6296TIP3    H140379   2.960   0.741   1.891  0.1827  0.1692 -0.3072
 6296TIP3    H240380   2.896   0.701   2.022  0.1614  0.0089 -0.3659
 6297TIP3   OH240381   6.672   1.387   4.502  0.5992 -0.3822 -0.0927
 6297TIP3    H140382   6.734   1.412   4.571  1.2677  0.3219 -0.9406
 6297TIP3    H240383   6.715   1.313   4.458  0.4606 -0.4187 -0.1646
 6298TIP3   OH240384   0.953   0.128   1.723  0.5763 -0.0972  0.4236
 6298TIP3    H140385   0.968   0.092   1.810 -1.1821  0.1528  0.8494
 6298TIP3    H240386   0.859   0.146   1.720  0.7746  0.7966 -1.1817
 6299TIP3   OH240387   0.599   5.048   0.037  0.0235  0.2713 -0.4529
 6299TIP3    H140388   0.510   5.040   0.071 -0.6870  1.1221 -2.0161
 6299TIP3    H240389   0.647   4.974   0.075 -1.5456 -0.6119 -0.1536
 6300TIP3   OH240390   5.990   3.705  13.053 -0.0450 -0.0410  0.2382
 6300TIP3    H140391   6.080   3.729  13.035  0.2036 -1.2165 -0.1182
 6300TIP3    H240392   5.950   3.784  13.088  0.6679  0.9750 -1.2153
 6301TIP3   OH240393   2.528   6.816   1.704  0.5904 -0.0355  0.3843
 6301TIP3    H140394   2.590   6.747   1.678  1.8695  1.3686 -0.3686
 6301TIP3    H240395   2.540   6.825   1.798  0.0147 -1.2231  0.5788
 6302TIP3   OH240396   3.296   1.166  16.112  0.2350 -0.3256  0.7054
 6302TIP3    H140397   3.253   1.219  16.045 -0.8855  1.3743  2.7404
 6302TIP3    H240398   3.388   1.163  16.084  0.2838  2.5208  0.4151
 6303TIP3   OH240399   3.804   2.058  14.095  0.3084  0.4554 -0.1949
 6303TIP3    H140400   3.893   2.074  14.064  0.9028 -1.7231  0.3111
 6303TIP3    H240401   3.782   1.971  14.063 -1.1475  0.4399  0.7937
 6304TIP3   OH240402   3.839   4.706  12.263 -0.3738 -0.0182 -0.3716
 6304TIP3    H140403   3.915   4.715  12.205 -0.6200 -1.2454 -0.8838
 6304TIP3    H240404   3.857   4.627  12.314 -0.6184  0.5200  0.5525
 6305TIP3   OH240405   6.560   5.722   3.100 -0.1056 -0.1275  0.1839
 6305TIP3    H140406   6.618   5.797   3.109 -0.6674  0.0926  2.2906
 6305TIP3    H240407   6.615   5.652   3.065  0.6384  0.9905 -0.9112
 6306TIP3   OH240408   3.823   1.350  13.798 -0.5777  0.0701 -0.0424
 6306TIP3    H140409   3.800   1.276  13.854 -1.1600  1.2986  1.4015
 6306TIP3    H240410   3.865   1.413  13.857  0.2758  0.7307 -1.3182
 6307TIP3   OH240411   2.796   6.132   4.182 -0.3505 -0.4157 -0.1746
 6307TIP3    H140412   2.718   6.130   4.238  0.0010  0.7620  0.3527
 6307TIP3    H240413   2.866   6.096   4.236  0.3520  2.2177  0.7202
 6308TIP3   OH240414   0.033   4.029   2.897  0.5245 -0.0642  0.1940
 6308TIP3    H140415   0.108   4.080   2.869  1.1353 -2.1644 -2.1515
 6308TIP3    H240416   0.058   3.995   2.983  1.1196  1.4803  0.6369
 6309TIP3   OH240417   0.136   2.769  13.750  0.3579  0.0109  0.1909
 6309TIP3    H140418   0.092   2.699  13.701  0.6581  0.1726 -0.3101
 6309TIP3    H240419   0.173   2.826  13.683 -1.0630  1.4196  0.5694
 6310TIP3   OH240420   2.064   0.908   2.277  0.1163 -0.0375  0.0753
 6310TIP3    H140421   2.013   0.872   2.203  1.8521 -1.2978 -0.5395
 6310TIP3    H240422   2.072   1.001   2.257 -0.4215 -0.1521 -0.7230
 6311TIP3   OH240423   0.007   4.834  10.714 -0.6140 -0.0187 -0.4633
 6311TIP3    H140424   0.096   4.813  10.744 -2.2296 -2.6129  2.8431
 6311TIP3    H240425   0.001   4.793  10.628  0.8529 -1.3580  0.0386
 6312TIP3   OH240426   6.310   1.314  15.424  0.2518  0.4986 -0.4512
 6312TIP3    H140427   6.240   1.347  15.480  0.6071  0.2703  0.1335
 6312TIP3    H240428   6.368   1.389  15.411  0.8074  0.2355  0.4827
 6313TIP3   OH240429   4.314   1.824   4.967  0.0488 -0.2183 -0.2241
 6313TIP3    H140430   4.399   1.867   4.972  0.9052 -1.4593 -3.0818
 6313TIP3    H240431   4.334   1.730   4.976 -1.1486 -0.4348  0.2965
 6314TIP3   OH240432   4.179   0.946  14.329  0.2060 -0.4095 -0.6560
 6314TIP3    H140433   4.152   0.936  14.421  1.0245 -0.0777 -0.3756
 6314TIP3    H240434   4.211   1.036  14.323  2.4215 -1.1654 -0.6594
 6315TIP3   OH240435   6.643   0.621   5.173 -0.2610 -0.0439 -0.0723
 6315TIP3    H140436   6.703   0.580   5.111  0.0055  1.0773 -0.5501
 6315TIP3    H240437   6.690   0.697   5.206  0.3876 -1.6677  2.9703
 6316TIP3   OH240438   1.493   5.636  12.760  0.1619 -0.3470 -0.3605
 6316TIP3    H140439   1.519   5.726  12.742 -0.7082  0.0793  0.4940
 6316TIP3    H240440   1.399   5.640  12.774 -0.1030 -1.5974 -1.5947
 6317TIP3   OH240441   6.721   5.266   0.795 -0.1020 -0.4735 -0.7415
 6317TIP3    H140442   6.798   5.295   0.843 -1.2438  0.3691  0.6504
 6317TIP3    H240443   6.752   5.196   0.738  1.5159 -0.7374  0.4353
 6318TIP3   OH240444   1.203   0.895  14.706 -0.7000 -0.8195  0.3491
 6318TIP3    H140445   1.235   0.983  14.726 -1.8960 -0.6299  1.5329
 6318TIP3    H240446   1.237   0.841  14.778 -0.4468 -1.2194 -0.0694
 6319TIP3   OH240447   3.182   2.322   4.488  0.5420  0.7903 -0.2202
 6319TIP3    H140448   3.116   2.253   4.498  1.2393  0.1798  0.2004
 6319TIP3    H240449   3.240   2.289   4.419  2.0426  0.0384  1.3894
 6320TIP3   OH240450   4.475   1.220   5.428  0.0355 -0.3774 -0.5565
 6320TIP3    H140451   4.540   1.265   5.374 -0.2888 -0.1491 -0.7590
 6320TIP3    H240452   4.517   1.137   5.450 -0.3862 -1.1016 -2.3703
 6321TIP3   OH240453   0.177   3.907   3.476  0.1612 -0.4282  0.4203
 6321TIP3    H140454   0.143   3.857   3.550  1.4650 -1.6038  0.2653
 6321TIP3    H240455   0.172   3.846   3.402 -0.7392  0.5957 -0.3732
 6322TIP3   OH240456   5.159   1.527   2.316 -0.4879 -0.0479 -0.1795
 6322TIP3    H140457   5.118   1.601   2.361 -0.7688 -0.2754 -0.0603
 6322TIP3    H240458   5.234   1.504   2.371 -0.1309  0.4339 -0.4512
 6323TIP3   OH240459   5.605   3.802   2.351 -0.4158 -0.7878 -0.4073
 6323TIP3    H140460   5.591   3.853   2.431 -0.0323  0.5778 -1.1914
 6323TIP3    H240461   5.587   3.711   2.376 -0.1843 -0.3805  1.2438
 6324TIP3   OH240462   5.937   5.692  11.745  0.1887 -0.4237  0.4837
 6324TIP3    H140463   5.976   5.686  11.832  2.0211  0.2262 -0.2672
 6324TIP3    H240464   5.967   5.777  11.711 -0.3185 -0.7716 -0.8844
 6325TIP3   OH240465   1.627   3.754   4.236 -0.1054 -0.1564 -0.4782
 6325TIP3    H140466   1.652   3.695   4.164  0.6214 -0.9208  0.3926
 6325TIP3    H240467   1.623   3.840   4.195  1.7901 -0.3513 -1.1433
 6326TIP3   OH240468   0.336   1.160  11.094 -0.0870  0.3945  0.4490
 6326TIP3    H140469   0.306   1.074  11.124 -2.0334 -0.1307 -2.8045
 6326TIP3    H240470   0.409   1.140  11.035 -2.1821  0.7191 -2.3482
 6327TIP3   OH240471   4.994   2.098   3.431  0.0150 -0.1928 -0.5883
 6327TIP3    H140472   5.067   2.153   3.460 -0.2295 -0.2678  0.1644
 6327TIP3    H240473   4.953   2.067   3.512 -2.4621  1.9597 -0.9798
 6328TIP3   OH240474   2.768   1.948   0.576  0.0826 -0.2820  0.2591
 6328TIP3    H140475   2.851   1.986   0.547 -0.0430  0.6315  1.0566
 6328TIP3    H240476   2.791   1.901   0.657 -0.4563  1.3319  1.3736
 6329TIP3   OH240477   5.744   6.465   4.844  0.4098  0.2044 -0.2103
 6329TIP3    H140478   5.809   6.397   4.823  0.8538  0.4633  0.3165
 6329TIP3    H240479   5.721   6.502   4.759  0.4740 -0.3238 -0.4636
 6330TIP3   OH240480   1.356   5.579   5.618  0.2608 -0.2707  0.6758
 6330TIP3    H140481   1.434   5.617   5.578  0.4046 -0.0074  1.1991
 6330TIP3    H240482   1.333   5.505   5.561  0.2178  0.3427 -0.1092
 6331TIP3   OH240483   6.125   4.569  13.798 -0.0334 -0.1029  0.0543
 6331TIP3    H140484   6.173   4.627  13.739  1.3523  0.1610  1.4068
 6331TIP3    H240485   6.126   4.614  13.882 -0.4890 -1.2667  0.7003
 6332TIP3   OH240486   6.289   0.159  15.984  0.5025  0.9364 -0.0865
 6332TIP3    H140487   6.276   0.185  15.893 -0.9959 -2.7124 -1.0038
 6332TIP3    H240488   6.383   0.146  15.992  0.3058 -2.5755 -2.3433
 6333TIP3   OH240489   4.324   3.146  14.175 -0.2272 -0.3372  0.3716
 6333TIP3    H140490   4.309   3.160  14.082 -0.7058 -2.0012  0.1804
 6333TIP3    H240491   4.237   3.135  14.212  0.0579 -2.0398  0.6022
 6334TIP3   OH240492   0.849   4.399  12.397  0.2303  0.0531 -0.4373
 6334TIP3    H140493   0.895   4.317  12.379  0.5144 -0.1256  1.0261
 6334TIP3    H240494   0.914   4.455  12.438 -0.3923  0.4149  0.0769
 6335TIP3   OH240495   3.827   3.046  13.312  0.0268 -0.5933 -0.4490
 6335TIP3    H140496   3.790   3.007  13.232  0.5565 -0.4152 -0.7761
 6335TIP3    H240497   3.915   3.073  13.288  0.4967 -1.3174  0.4303
 6336TIP3   OH240498   0.579   5.050  14.031  0.3971  0.8422  0.3095
 6336TIP3    H140499   0.483   5.046  14.039  0.5863 -2.6095  1.5586
 6336TIP3    H240500   0.596   5.016  13.943  0.5301  0.2764  0.5527
 6337TIP3   OH240501   6.269   4.186  11.512 -0.0531 -0.4865  0.6978
 6337TIP3    H140502   6.197   4.194  11.575 -0.2196  1.3443  0.2949
 6337TIP3    H240503   6.339   4.145  11.562 -0.8816 -0.9670  1.4996
 6338TIP3   OH240504   2.924   2.730  16.668 -0.1590 -0.2424 -0.3478
 6338TIP3    H140505   2.894   2.657  16.615  0.4032 -0.6172 -0.1441
 6338TIP3    H240506   2.965   2.690  16.745  1.9165  0.2560 -1.1681
 6339TIP3   OH240507   1.090   6.015  15.731 -0.1576  0.2400 -0.4292
 6339TIP3    H140508   1.178   6.048  15.750  0.3151 -1.2722  0.1295
 6339TIP3    H240509   1.045   6.089  15.691  2.2682  0.1982 -3.4533
 6340TIP3   OH240510   1.870   0.227   1.581  0.3130  0.2995 -0.1084
 6340TIP3    H140511   1.804   0.296   1.589 -0.5443 -0.4322 -0.7407
 6340TIP3    H240512   1.827   0.158   1.531  1.5752 -0.1792 -0.5734
 6341TIP3   OH240513   3.944   0.042   3.248  0.1912 -0.0250  0.4589
 6341TIP3    H140514   3.986   0.115   3.294  1.2138  0.4885 -1.2163
 6341TIP3    H240515   4.006  -0.030   3.257  0.6781  0.2497 -0.5886
 6342TIP3   OH240516   0.906   6.593   4.832  0.2958  0.6387 -0.2823
 6342TIP3    H140517   1.000   6.574   4.831  0.7686  2.8614 -0.6531
 6342TIP3    H240518   0.871   6.541   4.904  2.1179  1.1421  0.9718
 6343TIP3   OH240519   6.638   4.705   4.952  0.0267  0.1724 -0.0079
 6343TIP3    H140520   6.559   4.657   4.976  0.5727 -1.2169 -0.8811
 6343TIP3    H240521   6.655   4.678   4.861  0.3146  2.0866 -0.5426
 6344TIP3   OH240522   5.373   5.906  10.865  0.1547  0.3252 -0.2005
 6344TIP3    H140523   5.357   5.989  10.820 -2.1431 -0.5044 -0.9420
 6344TIP3    H240524   5.417   5.851  10.799  3.2342  1.4664  0.8064
 6345TIP3   OH240525   3.721   6.209   3.261 -0.0620  0.6885  0.3728
 6345TIP3    H140526   3.777   6.167   3.327 -0.4101 -0.7846 -0.2429
 6345TIP3    H240527   3.780   6.228   3.189  0.0869  1.1897  0.6295
 6346TIP3   OH240528   5.351   4.450  15.932  0.2707 -0.1416  0.3636
 6346TIP3    H140529   5.292   4.396  15.880 -0.2045  1.9105 -1.2998
 6346TIP3    H240530   5.292   4.507  15.982  0.7647 -1.1543  2.1357
 6347TIP3   OH240531   1.217   3.533   5.346  0.1195  0.0847 -0.2075
 6347TIP3    H140532   1.131   3.574   5.353 -0.4024 -0.7138 -1.7966
 6347TIP3    H240533   1.254   3.567   5.265 -0.1874 -2.2560 -1.3896
 6348TIP3   OH240534   4.166   0.945  15.658 -0.0134 -0.5211  0.2370
 6348TIP3    H140535   4.147   1.013  15.593  2.4520  1.0821  1.1391
 6348TIP3    H240536   4.243   0.900  15.624  1.1015  0.1133  1.8581
 6349TIP3   OH240537   3.231   4.589   0.008  0.0567 -0.1546  0.2526
 6349TIP3    H140538   3.203   4.646   0.080 -0.2373  0.5628 -0.4134
 6349TIP3    H240539   3.154   4.535  -0.011  0.2176 -0.5209  0.6463
 6350TIP3   OH240540   1.947   4.935   6.416  0.0697  0.4160 -0.1731
 6350TIP3    H140541   1.881   5.001   6.439 -0.1863  0.4867 -1.0829
 6350TIP3    H240542   2.008   4.935   6.489 -1.6671 -0.5995  1.3450
 6351TIP3   OH240543   4.621   6.270   6.059  0.5585  0.2064 -0.0072
 6351TIP3    H140544   4.666   6.246   6.140 -0.2780  0.4554  0.5432
 6351TIP3    H240545   4.531   6.239   6.072  0.0455  1.5583 -0.2362
 6352TIP3   OH240546   0.262   0.032  11.803 -0.1052 -0.1716  0.0631
 6352TIP3    H140547   0.351   0.013  11.834  0.1505  0.6364 -0.1813
 6352TIP3    H240548   0.205  -0.003  11.871  0.4461  1.6775  1.4919
 6353TIP3   OH240549   3.994   0.762   2.771 -0.2328 -0.1512 -0.0636
 6353TIP3    H140550   3.899   0.764   2.765 -0.3229  1.2661  1.3372
 6353TIP3    H240551   4.019   0.853   2.791  1.5113 -0.2318 -1.6677
 6354TIP3   OH240552   3.723   0.032  17.117 -0.0593 -0.3904  0.6968
 6354TIP3    H140553   3.702   0.076  17.034 -1.3456 -3.0149 -0.4677
 6354TIP3    H240554   3.794  -0.028  17.094 -1.5969 -2.4141  0.9827
 6355TIP3   OH240555   4.084   4.453   5.861 -0.6715  0.4556 -0.2414
 6355TIP3    H140556   4.050   4.542   5.867 -1.2482  0.2389 -0.2123
 6355TIP3    H240557   4.179   4.463   5.860 -0.6978  0.9613  1.5991
 6356TIP3   OH240558   2.085   3.223  14.393 -0.1211 -0.6007 -0.3442
 6356TIP3    H140559   2.175   3.257  14.399  0.3443 -2.2421  3.3132
 6356TIP3    H240560   2.096   3.130  14.370 -0.8910 -0.7882  0.0246
 6357TIP3   OH240561   5.666   2.045  13.937  0.4358  0.3185 -0.2059
 6357TIP3    H140562   5.659   2.044  13.842  0.3679 -0.5386 -0.1951
 6357TIP3    H240563   5.580   2.018  13.969 -0.0954  2.3168  0.1444
 6358TIP3   OH240564   4.183   2.648  11.747 -0.2385  0.0626 -0.3974
 6358TIP3    H140565   4.138   2.643  11.663  0.8922  1.7080 -1.1205
 6358TIP3    H240566   4.246   2.576  11.745 -0.5225 -0.1792 -0.7632
 6359TIP3   OH240567   3.334   5.849   2.843  0.1591 -0.0999 -0.2357
 6359TIP3    H140568   3.346   5.806   2.928  1.6320 -1.8741 -1.3298
 6359TIP3    H240569   3.408   5.910   2.836  0.8248 -0.9883 -0.8821
 6360TIP3   OH240570   2.449   2.142  15.255 -0.4236 -0.2888 -0.4210
 6360TIP3    H140571   2.504   2.065  15.242  0.4569  0.2153  0.2331
 6360TIP3    H240572   2.510   2.216  15.247 -1.2293  0.3349 -0.9028
 6361TIP3   OH240573   0.081   6.586  17.137 -0.1019  0.2726 -0.0836
 6361TIP3    H140574  -0.008   6.555  17.124 -0.1258 -1.3124  3.3407
 6361TIP3    H240575   0.125   6.514  17.182  1.9064  2.3701  1.4224
 6362TIP3   OH240576   0.777   6.687  11.991 -0.4559 -0.1228  0.0313
 6362TIP3    H140577   0.785   6.630  11.914  1.4524  0.1098  0.0130
 6362TIP3    H240578   0.809   6.632  12.064 -0.9735  0.0982  0.4223
 6363TIP3   OH240579   0.766   5.153  13.226 -0.2353  0.0921  0.0594
 6363TIP3    H140580   0.795   5.217  13.291 -2.5934  0.0050  1.2291
 6363TIP3    H240581   0.830   5.082  13.233  0.7712  1.0297  0.7331
 6364TIP3   OH240582   2.650   3.137  15.360  0.2988 -0.0890  0.2636
 6364TIP3    H140583   2.700   3.202  15.408 -2.1135  0.7089  1.7977
 6364TIP3    H240584   2.574   3.185  15.326 -0.0388 -1.4830 -1.0408
 6365TIP3   OH240585   6.623   6.696   6.592 -0.4790 -0.0079  0.5038
 6365TIP3    H140586   6.646   6.709   6.684  0.9643  1.9335 -0.0892
 6365TIP3    H240587   6.551   6.757   6.576 -1.0935 -0.7336  0.4813
 6366TIP3   OH240588   6.171   5.763  17.190 -0.4549 -0.1235  0.0942
 6366TIP3    H140589   6.222   5.842  17.209 -1.3486  0.3749  0.4099
 6366TIP3    H240590   6.108   5.757  17.261 -0.2129 -1.2885  0.2315
 6367TIP3   OH240591   6.221   4.625  12.681 -0.5758  0.1185  0.1154
 6367TIP3    H140592   6.288   4.609  12.614 -1.8660  2.5088 -1.8303
 6367TIP3    H240593   6.267   4.674  12.749  0.3711 -0.9518  0.2643
 6368TIP3   OH240594   2.210   6.573  14.116 -0.3163 -0.0968  0.0914
 6368TIP3    H140595   2.164   6.626  14.051  1.7680  0.0446 -1.3221
 6368TIP3    H240596   2.207   6.484  14.081  0.7913 -0.0249 -0.2238
 6369TIP3   OH240597   2.042   4.173  14.598 -0.2989  0.0990  0.3011
 6369TIP3    H140598   2.014   4.236  14.665 -1.5961  0.7793 -0.8406
 6369TIP3    H240599   2.009   4.089  14.629 -0.2339  0.2855  0.8905
 6370TIP3   OH240600   5.813   4.754  11.125 -0.4498  0.0430  0.1415
 6370TIP3    H140601   5.776   4.825  11.074  0.7515  1.2218  0.8936
 6370TIP3    H240602   5.832   4.793  11.210  1.5393 -0.8045  0.1050
 6371TIP3   OH240603   5.695   4.217   0.858  0.2830  0.8474  0.4487
 6371TIP3    H140604   5.765   4.254   0.911  0.0874  0.4504  0.9898
 6371TIP3    H240605   5.615   4.234   0.908  0.1529  0.0506  0.5156
 6372TIP3   OH240606   4.413   4.037  14.645 -0.4688 -0.1483  0.4036
 6372TIP3    H140607   4.469   4.105  14.608  0.8869 -1.4280  0.0478
 6372TIP3    H240608   4.377   4.076  14.725 -0.0887  1.1426 -0.0414
 6373TIP3   OH240609   2.755   6.625  15.255 -0.9484 -0.3024  0.3436
 6373TIP3    H140610   2.783   6.554  15.313  0.7420  0.9068  1.0264
 6373TIP3    H240611   2.708   6.580  15.185 -1.0788 -1.9838  1.4692
 6374TIP3   OH240612   4.957   3.173  10.773 -0.8535  0.0072  0.8421
 6374TIP3    H140613   5.045   3.153  10.805  0.5780  0.4103 -2.6282
 6374TIP3    H240614   4.901   3.111  10.819  1.6043 -2.0414  1.2502
 6375TIP3   OH240615   5.262   4.032   0.143 -0.2590 -0.7182 -0.3861
 6375TIP3    H140616   5.344   3.990   0.117  0.1214 -0.1695 -0.0787
 6375TIP3    H240617   5.215   4.045   0.061 -0.0987 -1.1510 -0.5506
 6376TIP3   OH240618   5.597   4.902  15.827 -0.0280 -0.0057 -0.2151
 6376TIP3    H140619   5.572   4.993  15.810 -0.5801  0.3265  2.2699
 6376TIP3    H240620   5.514   4.857  15.842  0.3477 -0.6188  0.0175
 6377TIP3   OH240621   0.973   0.627   0.989  0.0597 -0.1081 -0.9046
 6377TIP3    H140622   1.044   0.692   0.990  0.0840 -0.1325 -1.0614
 6377TIP3    H240623   1.010   0.550   1.033  0.1153 -0.1052 -0.9467
 6378TIP3   OH240624   3.141   6.634  11.854  0.1324  0.4290 -0.1169
 6378TIP3    H140625   3.233   6.630  11.881  0.2070  1.1361 -0.2463
 6378TIP3    H240626   3.125   6.727  11.840 -0.8141  0.3735  0.6092
 6379TIP3   OH240627   1.681   5.602  11.696  0.0021 -0.1534  0.0869
 6379TIP3    H140628   1.667   5.511  11.670  1.6513 -0.5933  0.6689
 6379TIP3    H240629   1.652   5.653  11.621  0.8946 -1.2457 -1.0247
 6380TIP3   OH240630   5.413   5.017   2.524  0.1370 -0.3161 -0.9722
 6380TIP3    H140631   5.487   4.974   2.566 -0.6148 -0.0885  0.6082
 6380TIP3    H240632   5.436   5.110   2.525 -0.5053 -0.1677  0.2052
 6381TIP3   OH240633   6.600   2.859  14.152 -0.0269  0.6964  0.7513
 6381TIP3    H140634   6.614   2.938  14.204  1.3572  0.3521  0.9157
 6381TIP3    H240635   6.685   2.815  14.151 -0.7642 -0.7706  0.6209
 6382TIP3   OH240636   5.641   5.714  13.926 -0.0634 -0.1196  0.0229
 6382TIP3    H140637   5.701   5.662  13.873 -0.3835 -1.1444  0.6561
 6382TIP3    H240638   5.583   5.756  13.863 -0.6268 -1.5544 -0.4361
 6383TIP3   OH240639   6.350   0.101   2.957 -0.3038  0.3095  0.0417
 6383TIP3    H140640   6.285   0.116   3.026 -0.2180 -0.3403  0.2673
 6383TIP3    H240641   6.308   0.040   2.896  0.0086  0.0616  0.0718
 6384TIP3   OH240642   1.060   4.158  12.562  0.5922 -0.0891  0.2134
 6384TIP3    H140643   1.052   4.252  12.572 -1.8711 -0.2985  0.6176
 6384TIP3    H240644   1.027   4.139  12.474  1.2742 -0.5452  0.0504
 6385TIP3   OH240645   4.136   1.852   3.171 -0.1899  0.5031 -0.2293
 6385TIP3    H140646   4.114   1.895   3.253 -0.7228  0.8830 -0.5684
 6385TIP3    H240647   4.151   1.923   3.109  0.3545  0.2206 -0.4264
 6386TIP3   OH240648   3.438   5.300   4.258 -0.3660 -0.0268  0.6248
 6386TIP3    H140649   3.361   5.245   4.274 -1.6377  0.9221 -1.9211
 6386TIP3    H240650   3.402   5.388   4.247  0.5699 -0.1749 -4.6490
 6387TIP3   OH240651   1.000   1.706  17.218 -0.0650  0.3133  0.2764
 6387TIP3    H140652   1.066   1.637  17.224 -0.1918 -0.3135 -4.0616
 6387TIP3    H240653   0.925   1.672  17.267  1.2169 -0.9421  1.4069
 6388TIP3   OH240654   5.541   5.157  14.838 -0.3464 -0.1785  0.1426
 6388TIP3    H140655   5.528   5.114  14.754 -0.1329 -0.0213  0.0299
 6388TIP3    H240656   5.596   5.096  14.888 -0.1297 -0.0846  0.0188
 6389TIP3   OH240657   4.550   2.257   0.936  0.7660  0.2652  0.4856
 6389TIP3    H140658   4.487   2.189   0.962  1.8578 -1.5054 -1.2860
 6389TIP3    H240659   4.536   2.267   0.842  2.5051  0.4818  0.2337
 6390TIP3   OH240660   3.789   1.529   0.224  0.8383  0.1445 -0.1469
 6390TIP3    H140661   3.798   1.467   0.152 -0.5807  1.2540 -1.3264
 6390TIP3    H240662   3.877   1.562   0.239  1.2886 -0.7359 -0.7991
 6391TIP3   OH240663   4.293   5.364   3.967  0.3654 -0.2733  0.0854
 6391TIP3    H140664   4.204   5.396   3.954  1.0024  1.0492 -1.1535
 6391TIP3    H240665   4.284   5.293   4.030 -1.3136  1.1796  1.5332
 6392TIP3   OH240666   0.854   2.277   3.071  0.4086  0.2071  0.2984
 6392TIP3    H140667   0.822   2.251   3.157  1.1556 -1.6522  0.0568
 6392TIP3    H240668   0.940   2.316   3.088 -0.1100  1.2674  0.5304
 6393TIP3   OH240669   1.889   6.218   0.949  0.0773  0.7380  0.3780
 6393TIP3    H140670   1.911   6.297   0.900 -0.2501  0.5578 -0.0598
 6393TIP3    H240671   1.928   6.232   1.036 -0.1176  1.4470  0.3537
 6394TIP3   OH240672   0.694   4.042  14.903 -0.6584 -0.2756  0.7945
 6394TIP3    H140673   0.778   4.085  14.922 -0.4991  0.1782 -0.8958
 6394TIP3    H240674   0.683   3.979  14.975  1.5706 -0.9651  0.5647
 6395TIP3   OH240675   4.270   2.224  10.892 -0.6291  0.3454 -0.9301
 6395TIP3    H140676   4.238   2.241  10.980 -2.0947 -1.7383 -1.0549
 6395TIP3    H240677   4.362   2.252  10.895 -1.3061  2.6051  0.5281
 6396TIP3   OH240678   0.333   5.826   1.674  0.0662 -0.0092 -0.0633
 6396TIP3    H140679   0.329   5.904   1.618  1.3054  1.0032  1.2379
 6396TIP3    H240680   0.391   5.851   1.746 -0.4670 -1.7461  0.9873
 6397TIP3   OH240681   2.036   0.197   0.262 -0.1661 -0.0821  0.3394
 6397TIP3    H140682   2.046   0.287   0.232  3.1493 -0.0699  1.2245
 6397TIP3    H240683   1.980   0.202   0.339  1.3498  1.4787  1.3683
 6398TIP3   OH240684   6.277   1.761  15.532 -0.7667  0.0043 -0.1469
 6398TIP3    H140685   6.319   1.716  15.606 -1.1144 -0.0142  0.0391
 6398TIP3    H240686   6.202   1.805  15.570 -0.9924 -0.0692 -0.5041
 6399TIP3   OH240687   4.517   0.933  12.417 -0.6465 -0.1398  0.0781
 6399TIP3    H140688   4.424   0.941  12.439 -0.4979  0.8894  0.3640
 6399TIP3    H240689   4.563   0.937  12.501 -0.3105 -0.0240 -0.1080
 6400TIP3   OH240690   1.516   3.827   0.317 -0.5127 -0.1185 -0.3132
 6400TIP3    H140691   1.467   3.842   0.398 -0.1103 -0.2933 -0.0352
 6400TIP3    H240692   1.524   3.732   0.312  0.3255 -0.0653 -0.0390
 6401TIP3   OH240693   4.646   2.291  15.231 -0.1662 -0.0140  0.2452
 6401TIP3    H140694   4.642   2.264  15.323 -1.0925 -1.8234 -0.3162
 6401TIP3    H240695   4.556   2.314  15.209 -0.2094 -1.0508 -0.6573
 6402TIP3   OH240696   1.257   2.152  13.525  0.3722 -0.0185 -0.0333
 6402TIP3    H140697   1.205   2.129  13.602 -1.3769  1.2176 -0.8170
 6402TIP3    H240698   1.311   2.075  13.508  1.6305  0.1090  3.1115
 6403TIP3   OH240699   4.469   2.305  14.855 -0.1355  0.7654  0.4004
 6403TIP3    H140700   4.547   2.315  14.802 -1.6336 -0.8980 -2.2255
 6403TIP3    H240701   4.403   2.361  14.813 -1.1154  0.0518  0.9522
 6404TIP3   OH240702   5.317   2.074   0.514 -0.5307 -0.0454 -0.5826
 6404TIP3    H140703   5.305   1.988   0.475  0.1839 -0.3555 -0.1175
 6404TIP3    H240704   5.404   2.071   0.553 -0.0238  1.2648 -1.5737
 6405TIP3   OH240705   5.577   0.267  13.098 -0.2268 -0.0224  0.1798
 6405TIP3    H140706   5.606   0.224  13.178  0.1414 -2.3271 -1.1324
 6405TIP3    H240707   5.487   0.238  13.085 -0.3783  0.5581 -0.0884
 6406TIP3   OH240708   3.307   3.132  14.272 -0.4274 -0.4931  0.2212
 6406TIP3    H140709   3.339   3.084  14.195 -0.8312 -0.2474 -0.1050
 6406TIP3    H240710   3.213   3.115  14.273 -0.8529  1.5491 -0.8282
 6407TIP3   OH240711   6.417   2.945  10.480 -0.1038  0.2057 -0.6784
 6407TIP3    H140712   6.379   2.879  10.538 -0.3571  1.0690  0.1425
 6407TIP3    H240713   6.495   2.902  10.443  0.4827 -0.0906  0.8647
 6408TIP3   OH240714   0.660   3.253  14.847  0.6107  0.8458 -0.0163
 6408TIP3    H140715   0.565   3.244  14.853  0.5619  1.3566 -0.0333
 6408TIP3    H240716   0.682   3.222  14.759  0.5658 -0.1075  0.2942
 6409TIP3   OH240717   5.232   0.943   4.450 -0.6788 -0.0811  0.2385
 6409TIP3    H140718   5.148   0.988   4.461 -0.4417  0.4315 -0.0747
 6409TIP3    H240719   5.244   0.896   4.533  0.5019  2.7939  1.7490
 6410TIP3   OH240720   1.562   4.765  11.570 -0.5060  0.3904 -0.1353
 6410TIP3    H140721   1.641   4.816  11.588 -0.5662  0.0587  1.1010
 6410TIP3    H240722   1.588   4.674  11.587 -1.3844  0.3656  1.0763
 6411TIP3   OH240723   3.435   5.354  12.229 -0.1176 -0.1250 -0.3917
 6411TIP3    H140724   3.516   5.320  12.265  0.0592  0.3479 -0.3328
 6411TIP3    H240725   3.461   5.433  12.182 -0.3242 -0.7987 -1.6671
 6412TIP3   OH240726   3.441   4.432  12.638  0.3581 -0.4902  0.1395
 6412TIP3    H140727   3.454   4.525  12.620  0.2629 -0.1739  1.6298
 6412TIP3    H240728   3.346   4.423  12.648  0.4730 -0.5052  1.2521
 6413TIP3   OH240729   2.898   0.190   4.315  0.1918  0.3239 -0.2050
 6413TIP3    H140730   2.815   0.218   4.277  1.1682  0.3120 -2.4298
 6413TIP3    H240731   2.875   0.153   4.400 -1.9201  1.4522 -0.2654
 6414TIP3   OH240732   4.261   5.328  15.874  0.4739  0.4442  0.2595
 6414TIP3    H140733   4.318   5.350  15.948  3.3027 -2.5908 -0.9313
 6414TIP3    H240734   4.283   5.393  15.807 -0.2628  1.6034  1.1060
 6415TIP3   OH240735   0.130   3.946   4.068 -0.2632 -0.2738 -0.4954
 6415TIP3    H140736   0.177   3.882   4.121 -0.0476 -0.6761 -1.1646
 6415TIP3    H240737   0.060   3.978   4.124  0.7905  0.3006  0.4985
 6416TIP3   OH240738   4.022   1.284  11.477 -0.5599 -0.0032  0.4914
 6416TIP3    H140739   4.073   1.344  11.423  0.3262 -1.2160 -0.0412
 6416TIP3    H240740   3.961   1.341  11.525 -0.5195  1.1886 -0.8522
 6417TIP3   OH240741   4.264   5.852  16.807 -0.0361  0.1219  0.0194
 6417TIP3    H140742   4.316   5.799  16.867 -0.8072  0.7574  1.2608
 6417TIP3    H240743   4.193   5.793  16.779  0.5150 -0.2801 -0.5354
 6418TIP3   OH240744   1.227   2.575   2.530 -0.1398  0.4058 -0.0987
 6418TIP3    H140745   1.302   2.568   2.589  0.5893 -1.7303 -1.1994
 6418TIP3    H240746   1.163   2.514   2.565  0.0742 -0.4481 -1.1602
 6419TIP3   OH240747   0.994   3.473  12.934 -0.3154 -0.1054 -0.4673
 6419TIP3    H140748   1.013   3.428  12.851 -1.5549 -2.0857  0.2787
 6419TIP3    H240749   0.899   3.486  12.933 -0.2481  0.4697  0.3395
 6420TIP3   OH240750   4.421   2.526   1.517 -0.1234  0.3594  0.3284
 6420TIP3    H140751   4.438   2.432   1.515 -0.7370  0.2644 -1.1561
 6420TIP3    H240752   4.506   2.566   1.535  0.4103 -0.4093 -0.4634
 6421TIP3   OH240753   4.284   4.435   2.635  0.1492 -0.0063  0.1997
 6421TIP3    H140754   4.239   4.454   2.717  1.7295  0.2169  1.0314
 6421TIP3    H240755   4.214   4.420   2.572 -1.1411  2.6203  0.9326
 6422TIP3   OH240756   3.333   0.965  15.631 -0.1709 -0.4078 -0.6776
 6422TIP3    H140757   3.355   0.890  15.686 -1.6064 -1.1807 -1.1275
 6422TIP3    H240758   3.258   1.006  15.675  0.4483  0.6216 -0.5668
 6423TIP3   OH240759   3.616   3.198  13.471 -0.0613  0.6233  0.2483
 6423TIP3    H140760   3.562   3.195  13.550 -0.6233  1.6034 -0.0854
 6423TIP3    H240761   3.603   3.112  13.430 -0.2413  0.3333  0.9122
 6424TIP3   OH240762   2.493   1.351  10.876 -0.3061 -0.0399  0.5466
 6424TIP3    H140763   2.433   1.426  10.871 -1.4973 -0.9754  0.6123
 6424TIP3    H240764   2.451   1.283  10.824  1.7193 -0.0467 -1.1327
 6425TIP3   OH240765   6.778   1.597  15.847  0.9812  0.5354 -0.1369
 6425TIP3    H140766   6.800   1.622  15.758  0.9880  2.0565  0.2753
 6425TIP3    H240767   6.684   1.616  15.854  0.5855 -1.2408 -0.3537
 6426TIP3   OH240768   4.431   2.022  15.585  0.4883  0.1804  0.4145
 6426TIP3    H140769   4.362   1.956  15.595  0.8496 -0.0998  1.1129
 6426TIP3    H240770   4.388   2.105  15.603  0.1656  0.0776  0.1225
 6427TIP3   OH240771   0.908   5.474   6.369  0.6915  0.4161  0.0999
 6427TIP3    H140772   0.893   5.553   6.421  0.2593  1.0306 -0.9313
 6427TIP3    H240773   0.962   5.418   6.425 -1.5417  0.1463  2.0472
 6428TIP3   OH240774   5.110   3.240   2.010  0.1522  0.4455  0.6209
 6428TIP3    H140775   5.019   3.214   2.026  0.0945  0.2389 -0.0345
 6428TIP3    H240776   5.121   3.231   1.915  0.7388  0.8527  0.6493
 6429TIP3   OH240777   3.379   1.350   4.400  0.2411 -0.3393 -0.3111
 6429TIP3    H140778   3.386   1.443   4.421  2.4573 -0.9818  2.0317
 6429TIP3    H240779   3.344   1.310   4.479  0.8278 -1.7153 -0.7353
 6430TIP3   OH240780   0.729   1.122  15.378  0.3500  0.2913  0.2280
 6430TIP3    H140781   0.800   1.141  15.440  1.4643  2.1533 -1.5237
 6430TIP3    H240782   0.773   1.080  15.304 -0.7887 -0.9200  0.2377
 6431TIP3   OH240783   6.807   0.860   5.224  0.2574 -0.0082 -0.5537
 6431TIP3    H140784   6.809   0.955   5.236 -2.7005  0.1495 -0.9441
 6431TIP3    H240785   6.825   0.824   5.311 -3.4473  0.9811  0.6774
 6432TIP3   OH240786   5.277   0.745  15.899  0.2535  0.1849  0.3202
 6432TIP3    H140787   5.268   0.659  15.859 -1.3515  1.0443 -1.2684
 6432TIP3    H240788   5.370   0.753  15.920  0.6785 -1.2884 -0.9501
 6433TIP3   OH240789   3.207   4.974   4.472 -0.4562 -0.4671 -0.1604
 6433TIP3    H140790   3.210   4.880   4.459  1.4510 -0.6617  1.4163
 6433TIP3    H240791   3.298   5.000   4.487 -1.0204  1.5147  0.1083
 6434TIP3   OH240792   1.925   3.288  13.045  0.2108 -0.0151 -0.3558
 6434TIP3    H140793   1.934   3.341  13.124 -1.8734 -0.0803 -0.0527
 6434TIP3    H240794   1.891   3.348  12.979  0.8043 -0.2476 -0.8811
 6435TIP3   OH240795   5.232   5.295   3.230 -0.0450  0.3036 -0.2755
 6435TIP3    H140796   5.286   5.371   3.210 -1.4756  1.4588  0.1861
 6435TIP3    H240797   5.211   5.257   3.144  1.3163 -0.0338 -0.4617
 6436TIP3   OH240798   1.158   2.388   4.337 -0.2942  0.6468  0.3647
 6436TIP3    H140799   1.247   2.405   4.368 -0.1296 -0.4996  0.5428
 6436TIP3    H240800   1.139   2.460   4.278  0.8946  0.6911  0.0249
 6437TIP3   OH240801   2.096   1.411   5.979  0.4784  0.6674 -0.1717
 6437TIP3    H140802   2.094   1.413   5.883  0.7646  1.3492 -0.1599
 6437TIP3    H240803   2.022   1.466   6.005  0.4552  0.5529  0.0015
 6438TIP3   OH240804   6.456   2.981  11.903 -0.5970 -0.2385  0.4192
 6438TIP3    H140805   6.448   2.888  11.922 -1.4346  0.2234  2.4665
 6438TIP3    H240806   6.516   2.985  11.829 -1.2158 -2.4483 -0.2307
 6439TIP3   OH240807   4.051   2.600  14.457  0.3625 -0.1088  0.4235
 6439TIP3    H140808   4.079   2.547  14.532 -1.8399 -2.8334 -0.6252
 6439TIP3    H240809   3.961   2.574  14.441  0.5803  0.8845 -2.8167
 6440TIP3   OH240810   5.921   3.085   3.772  0.4546 -0.4168 -0.3532
 6440TIP3    H140811   5.980   3.157   3.752 -2.1997  3.3195  4.2329
 6440TIP3    H240812   5.847   3.097   3.711  0.9681 -0.5570 -1.0083
 6441TIP3   OH240813   5.604   5.577  15.720 -0.0054  0.3539 -0.3678
 6441TIP3    H140814   5.524   5.537  15.686 -0.3857  1.3056 -0.6296
 6441TIP3    H240815   5.573   5.654  15.768  0.4990 -1.1598  2.4587
 6442TIP3   OH240816   5.300   2.428  15.345  0.2324 -0.6440 -0.1094
 6442TIP3    H140817   5.319   2.508  15.394 -1.7491  0.1541 -0.5856
 6442TIP3    H240818   5.211   2.405  15.370  0.9799 -3.0681  0.4714
 6443TIP3   OH240819   5.796   1.987   5.194 -0.2849  0.0806  0.2050
 6443TIP3    H140820   5.742   1.966   5.118 -0.4191  0.7707  0.1017
 6443TIP3    H240821   5.881   2.013   5.157 -0.0799 -0.4015  0.3344
 6444TIP3   OH240822   4.694   6.143  10.308 -0.0129  0.2244 -0.2034
 6444TIP3    H140823   4.655   6.174  10.390 -0.8770 -2.0442  0.3071
 6444TIP3    H240824   4.633   6.075  10.277  1.2903 -0.2856 -1.7062
 6445TIP3   OH240825   4.156   1.254  16.042 -0.4399 -0.3774  0.4357
 6445TIP3    H140826   4.158   1.160  16.057  0.2586 -0.6920 -1.4454
 6445TIP3    H240827   4.092   1.266  15.971 -0.3407  0.5287  0.4914
 6446TIP3   OH240828   1.668   5.219   0.546  0.0273  0.1301  0.0254
 6446TIP3    H140829   1.658   5.188   0.636 -0.8841 -0.1003 -0.1548
 6446TIP3    H240830   1.762   5.213   0.529 -0.0254 -1.8078  0.2647
 6447TIP3   OH240831   1.194   3.691   4.308  0.3340 -0.3693 -0.3751
 6447TIP3    H140832   1.162   3.605   4.336 -1.2465  0.6219  0.8849
 6447TIP3    H240833   1.117   3.736   4.274  0.6434  1.5303  1.3700
 6448TIP3   OH240834   1.925   3.011   0.693  0.0639  0.0327 -0.5671
 6448TIP3    H140835   1.973   3.023   0.776 -1.1911  0.6126  0.0908
 6448TIP3    H240836   1.855   3.077   0.696 -1.8032 -1.8736 -0.7355
 6449TIP3   OH240837   5.340   1.094  13.126  0.3219  0.2653  0.5910
 6449TIP3    H140838   5.245   1.086  13.117  0.3016  1.2471 -0.2223
 6449TIP3    H240839   5.352   1.173  13.180  0.7079  2.1582 -2.1242
 6450TIP3   OH240840   3.515   0.611   2.679  0.4257 -1.2434  0.4169
 6450TIP3    H140841   3.570   0.678   2.721  0.1377 -0.0982 -0.9883
 6450TIP3    H240842   3.428   0.650   2.677  0.6577 -0.8005 -2.2584
 6451TIP3   OH240843   6.651   0.530  14.199  0.0396 -0.0293 -0.0781
 6451TIP3    H140844   6.716   0.489  14.142 -0.3675  1.5438 -1.7458
 6451TIP3    H240845   6.582   0.463  14.207  0.6478 -0.7183 -0.4782
 6452TIP3   OH240846   1.879   1.244   2.534 -0.1835 -0.2545  0.2667
 6452TIP3    H140847   1.952   1.279   2.483 -1.4411  0.5286 -1.0240
 6452TIP3    H240848   1.843   1.175   2.480 -0.9299 -0.0622  0.5160
 6453TIP3   OH240849   1.851   4.725   2.220 -0.1830 -0.4684  0.1215
 6453TIP3    H140850   1.923   4.695   2.274 -1.0333 -1.9300  0.4726
 6453TIP3    H240851   1.774   4.722   2.277 -0.7505 -0.1284 -0.6013
 6454TIP3   OH240852   4.546   4.617  13.069 -0.4567  0.4509  0.1237
 6454TIP3    H140853   4.641   4.625  13.055 -0.4607 -0.3063 -0.4083
 6454TIP3    H240854   4.510   4.700  13.039  0.0034  0.5969 -0.0331
 6455TIP3   OH240855   2.213   4.404   4.781  0.4527 -0.5170 -0.7767
 6455TIP3    H140856   2.168   4.398   4.696 -0.0588  0.7357 -0.6072
 6455TIP3    H240857   2.143   4.424   4.843  1.0742  0.2819 -0.3236
 6456TIP3   OH240858   5.284   0.264   0.477 -0.5118 -0.6801  0.2454
 6456TIP3    H140859   5.315   0.174   0.488 -2.4328 -1.6536 -1.8103
 6456TIP3    H240860   5.221   0.258   0.405  0.2691  2.5286 -0.7744
 6457TIP3   OH240861   4.265   5.726   5.692  0.5128 -0.4061 -0.4281
 6457TIP3    H140862   4.356   5.751   5.704 -0.0529  0.7057  1.6497
 6457TIP3    H240863   4.244   5.755   5.603  1.4810  1.6072 -0.0347
 6458TIP3   OH240864   6.281   3.742  13.316  0.3456 -0.7483  0.4760
 6458TIP3    H140865   6.313   3.654  13.295  0.8209 -0.8329  1.5291
 6458TIP3    H240866   6.235   3.732  13.399  1.8986  0.3124  1.4928
 6459TIP3   OH240867   2.605   5.070  12.017  0.2132  0.2693  0.3639
 6459TIP3    H140868   2.558   4.994  12.051  1.0159 -0.5222 -0.2537
 6459TIP3    H240869   2.538   5.136  12.003 -0.4512 -0.2224  1.2235
 6460TIP3   OH240870   0.605   5.657   1.494  0.3997  0.0614  0.0399
 6460TIP3    H140871   0.673   5.653   1.561  0.0227 -0.0270  0.4197
 6460TIP3    H240872   0.534   5.603   1.528 -0.1233  0.6806 -0.0538
 6461TIP3   OH240873   6.404   3.491   4.253 -0.3693 -0.0118  0.0342
 6461TIP3    H140874   6.493   3.464   4.278 -0.3440 -0.6677 -0.7386
 6461TIP3    H240875   6.406   3.494   4.158 -0.7896  1.3574  0.0658
 6462TIP3   OH240876   0.750   6.709   6.941  0.2599 -0.5093 -0.6110
 6462TIP3    H140877   0.664   6.668   6.949  0.2608 -0.1489  1.5522
 6462TIP3    H240878   0.731   6.802   6.934  0.3973 -0.5911 -2.1184
 6463TIP3   OH240879   3.380   2.602  14.443 -0.2084 -0.1377 -0.0521
 6463TIP3    H140880   3.305   2.661  14.440  0.1795  0.3079 -1.1459
 6463TIP3    H240881   3.454   2.658  14.467  0.1403 -0.1957 -0.9706
 6464TIP3   OH240882   0.225   1.027  15.413  0.7766 -0.2341  0.5131
 6464TIP3    H140883   0.199   1.118  15.426 -1.6240 -0.9830  1.2553
 6464TIP3    H240884   0.285   1.029  15.338 -0.5250  1.7556 -0.5150
 6465TIP3   OH240885   0.001   3.000  12.462 -0.5447 -0.7285  0.1950
 6465TIP3    H140886   0.052   3.043  12.531 -2.3410 -0.4981  1.4071
 6465TIP3    H240887   0.051   3.016  12.382  1.5547 -0.9890  1.4298
 6466TIP3   OH240888   0.444   4.694  12.775 -0.0609 -0.1942 -0.5006
 6466TIP3    H140889   0.395   4.659  12.701  0.7296 -3.1963  0.3659
 6466TIP3    H240890   0.536   4.691  12.748  0.2814 -1.8228  0.7843
 6467TIP3   OH240891   1.485   3.276  16.382  0.2643 -0.1966 -0.1551
 6467TIP3    H140892   1.412   3.226  16.347 -0.0283 -0.0220  0.2016
 6467TIP3    H240893   1.457   3.367  16.378  0.4744 -0.1262 -0.0504
 6468TIP3   OH240894   0.609   0.204   0.289  0.3778 -0.5229 -0.3351
 6468TIP3    H140895   0.697   0.215   0.254 -0.0751 -1.4539 -1.8259
 6468TIP3    H240896   0.566   0.289   0.272  1.0516  0.0176  0.6306
 6469TIP3   OH240897   4.749   1.135  13.846  0.3874  0.3690  0.4359
 6469TIP3    H140898   4.674   1.108  13.900  0.8987  0.3691  1.1515
 6469TIP3    H240899   4.800   1.193  13.903  2.3884 -1.8029  0.9200
 6470TIP3   OH240900   6.060   4.233   5.792  0.0096  0.2843 -0.6401
 6470TIP3    H140901   6.121   4.210   5.721  0.3851  0.5950 -0.4253
 6470TIP3    H240902   5.977   4.194   5.766  0.4349 -0.6242 -0.6636
 6471TIP3   OH240903   1.176   2.479   1.017 -0.5916  0.7204  0.4885
 6471TIP3    H140904   1.244   2.453   1.080 -1.6465  1.1150  1.8086
 6471TIP3    H240905   1.213   2.554   0.971  0.5898 -0.1877 -0.0860
 6472TIP3   OH240906   3.153   3.563   5.033  0.1290  0.3876 -0.1625
 6472TIP3    H140907   3.200   3.637   4.995 -0.3245 -0.2799 -2.0632
 6472TIP3    H240908   3.199   3.545   5.116  2.0716  0.9099 -1.1122
 6473TIP3   OH240909   5.037   0.702  13.782 -0.0012  0.2189  0.5991
 6473TIP3    H140910   5.004   0.687  13.694 -0.8920 -0.3291  1.0179
 6473TIP3    H240911   4.963   0.684  13.839 -0.3578  3.4985  1.3164
 6474TIP3   OH240912   4.994   2.077  12.089 -0.5002 -0.0861  0.1585
 6474TIP3    H140913   4.939   2.127  12.150 -0.6252 -0.2993  0.2231
 6474TIP3    H240914   5.027   2.004  12.142  0.2060  0.2900  0.2396
 6475TIP3   OH240915   5.395   1.980   1.532  0.9613 -0.0863 -0.4109
 6475TIP3    H140916   5.376   1.886   1.532  0.2575  0.0516 -0.0286
 6475TIP3    H240917   5.378   2.008   1.442  0.2927 -0.1582 -0.3134
 6476TIP3   OH240918   6.123   0.897  15.359 -0.5760 -0.1933 -0.4034
 6476TIP3    H140919   6.087   0.962  15.299  0.3325  0.8117  0.1293
 6476TIP3    H240920   6.184   0.946  15.414  0.2651 -1.5336 -0.1185
 6477TIP3   OH240921   1.986   3.777   0.688 -0.4180 -0.3418 -0.0530
 6477TIP3    H140922   1.902   3.792   0.645 -0.8667  0.8698  1.2357
 6477TIP3    H240923   2.006   3.859   0.733 -0.4703 -1.9111  2.9727
 6478TIP3   OH240924   0.205   5.998   6.810  0.7041 -0.1067 -0.1010
 6478TIP3    H140925   0.246   5.958   6.887 -0.3477 -0.8217  0.0945
 6478TIP3    H240926   0.209   5.929   6.743 -0.5518 -0.3256  0.0485
 6479TIP3   OH240927   4.359   0.681   5.439 -0.5108  0.1982  0.0884
 6479TIP3    H140928   4.408   0.742   5.383  1.2033 -2.7326 -1.7014
 6479TIP3    H240929   4.292   0.644   5.382 -1.4260  0.2357  1.1174
 6480TIP3   OH240930   1.196   3.323  12.798 -0.3526  0.1547 -0.4775
 6480TIP3    H140931   1.225   3.297  12.886 -0.8089  1.5206  0.0987
 6480TIP3    H240932   1.223   3.415  12.791  1.0638 -0.3782 -2.3757
 6481TIP3   OH240933   5.849   5.745   4.504  0.0186  0.0125 -0.3209
 6481TIP3    H140934   5.820   5.822   4.456 -0.8228 -0.8586 -1.2519
 6481TIP3    H240935   5.772   5.717   4.554  0.1245 -0.5903 -0.4866
 6482TIP3   OH240936   4.184   0.758  13.645 -0.2454  0.0106 -0.1330
 6482TIP3    H140937   4.225   0.775  13.730  1.1900 -0.7374 -0.6726
 6482TIP3    H240938   4.185   0.662  13.637 -0.2661  0.0892 -1.0565
 6483TIP3   OH240939   2.104   6.635  16.943  0.1805  0.4347  0.2087
 6483TIP3    H140940   2.111   6.685  16.862  1.2221  0.8608  0.5516
 6483TIP3    H240941   2.019   6.661  16.979  0.0144  0.7563 -0.4075
 6484TIP3   OH240942   2.594   3.875  11.574 -0.5336 -0.6853  0.3384
 6484TIP3    H140943   2.611   3.807  11.509 -1.8083 -0.8392  0.1548
 6484TIP3    H240944   2.548   3.944  11.526 -0.4024 -0.2699  0.8060
 6485TIP3   OH240945   6.204   3.970  12.123 -0.2241 -0.2737  0.4732
 6485TIP3    H140946   6.260   3.923  12.184  0.0260 -0.1537  0.3383
 6485TIP3    H240947   6.264   4.028  12.075 -0.1708 -1.4915 -0.9713
 6486TIP3   OH240948   5.644   6.112  13.820  0.0755  0.3655 -0.6609
 6486TIP3    H140949   5.574   6.153  13.769 -0.3091  0.2699 -0.2167
 6486TIP3    H240950   5.598   6.048  13.875  0.7139 -1.0508 -1.7331
 6487TIP3   OH240951   6.476   4.422   3.315 -0.6647 -0.0747  0.6382
 6487TIP3    H140952   6.491   4.329   3.328 -0.7535  0.0737  1.9089
 6487TIP3    H240953   6.391   4.428   3.272  0.3357 -0.6683 -1.4939
 6488TIP3   OH240954   1.961   4.986  12.347 -0.1937 -0.9428 -0.2691
 6488TIP3    H140955   1.908   4.955  12.274 -0.8414  0.8782 -0.6054
 6488TIP3    H240956   1.980   5.077  12.326 -1.0226 -0.1693  2.1673
 6489TIP3   OH240957   5.434   0.299   5.406  0.1304  0.1419  0.3661
 6489TIP3    H140958   5.431   0.262   5.494 -0.5254 -0.0481  0.2677
 6489TIP3    H240959   5.525   0.325   5.393  0.1231  0.6372  1.2949
 6490TIP3   OH240960   3.136   3.771  15.812 -0.3905  0.5300 -0.6972
 6490TIP3    H140961   3.158   3.678  15.802 -1.1934  0.2966 -0.4029
 6490TIP3    H240962   3.220   3.816  15.816 -0.0039 -0.0418 -2.1791
 6491TIP3   OH240963   1.056   0.066  16.178  0.1988  0.4250  0.1732
 6491TIP3    H140964   1.081   0.108  16.260  2.2023  2.5033 -1.4454
 6491TIP3    H240965   1.128   0.007  16.158 -1.0846 -1.3933  0.7452
 6492TIP3   OH240966   3.084   5.200  14.683  0.0820  0.4197  0.6396
 6492TIP3    H140967   3.139   5.196  14.605  0.1922 -2.3132  0.8197
 6492TIP3    H240968   3.146   5.196  14.756 -0.2314 -0.7156  0.8505
 6493TIP3   OH240969   3.109   2.364  12.404 -0.4886  0.0958  0.2511
 6493TIP3    H140970   3.171   2.304  12.446  0.1782  0.2678 -0.4816
 6493TIP3    H240971   3.108   2.338  12.312 -1.2726  0.2922  0.2030
 6494TIP3   OH240972   4.187   5.210   3.169 -0.0904 -0.0937 -0.5099
 6494TIP3    H140973   4.171   5.182   3.260 -1.7913 -0.5873 -0.9568
 6494TIP3    H240974   4.246   5.284   3.178  1.3297 -1.3339  0.9148
 6495TIP3   OH240975   0.862   3.502   2.921 -0.0783 -0.6305 -0.0083
 6495TIP3    H140976   0.805   3.426   2.912  0.1843 -0.7127 -1.0391
 6495TIP3    H240977   0.948   3.471   2.894  0.8828 -0.9974  3.3022
 6496TIP3   OH240978   1.575   3.164   0.600 -0.2028  0.2319 -0.7520
 6496TIP3    H140979   1.514   3.117   0.543  1.1017 -0.1255 -1.8760
 6496TIP3    H240980   1.528   3.172   0.684 -1.9440  0.3521 -1.7230
 6497TIP3   OH240981   2.938   3.355  14.720  0.1907 -0.0707  0.9645
 6497TIP3    H140982   2.851   3.315  14.720  0.5403 -0.8251  0.8736
 6497TIP3    H240983   2.920   3.449  14.722 -0.6403 -0.1992  0.2009
 6498TIP3   OH240984   1.191   3.718  13.609  0.1569 -0.0691 -0.2518
 6498TIP3    H140985   1.199   3.801  13.656 -0.0726  0.0492 -0.4287
 6498TIP3    H240986   1.281   3.699  13.580  0.5239 -0.7298  1.2502
 6499TIP3   OH240987   2.783   6.662   5.737  0.1082 -0.0937  0.7920
 6499TIP3    H140988   2.734   6.594   5.690  0.8712  0.9468 -1.6038
 6499TIP3    H240989   2.815   6.619   5.816 -3.3404 -1.2263  1.6684
 6500TIP3   OH240990   1.756   1.598  16.345  0.6275  0.3808 -0.2030
 6500TIP3    H140991   1.693   1.585  16.274  1.0853  0.0184 -0.5452
 6500TIP3    H240992   1.787   1.510  16.365  1.4437  0.6152 -0.4209
 6501TIP3   OH240993   6.297   6.541   1.311 -0.1765  0.2564 -0.0783
 6501TIP3    H140994   6.246   6.512   1.235 -0.2942 -0.6356  0.3309
 6501TIP3    H240995   6.309   6.635   1.298 -1.3994  0.3608 -0.4932
 6502TIP3   OH240996   0.295   4.295  14.766  0.5186 -0.2326 -0.3262
 6502TIP3    H140997   0.353   4.296  14.689  1.4418  2.0615  0.3723
 6502TIP3    H240998   0.351   4.267  14.838 -0.4776 -2.9327 -0.5227
 6503TIP3   OH240999   6.747   1.240   6.256  0.2506 -0.3644 -0.2591
 6503TIP3    H141000   6.797   1.252   6.175 -0.2443  0.4767 -0.4443
 6503TIP3    H241001   6.719   1.328   6.280 -0.9612 -0.8141 -0.0302
 6504TIP3   OH241002   3.704   0.973  14.453  0.3513 -0.4926  0.1957
 6504TIP3    H141003   3.680   1.061  14.482  0.3262 -0.5174  0.2497
 6504TIP3    H241004   3.673   0.915  14.523 -1.3561 -0.7203 -0.7134
 6505TIP3   OH241005   1.826   3.644   2.283 -0.7990  0.1295  0.6097
 6505TIP3    H141006   1.777   3.658   2.364 -0.7054  1.3049  0.4705
 6505TIP3    H241007   1.913   3.678   2.302 -0.8685  0.6954 -0.0848
 6506TIP3   OH241008   1.166   2.756   5.432 -0.4772  0.3019 -0.3146
 6506TIP3    H141009   1.124   2.840   5.451 -1.0411 -0.0837  0.1372
 6506TIP3    H241010   1.094   2.696   5.416 -0.1196 -0.4102  0.6720
 6507TIP3   OH241011   1.479   2.683   3.026  0.0451  0.1751 -0.3168
 6507TIP3    H141012   1.437   2.680   3.113  0.9170  0.1991  0.1130
 6507TIP3    H241013   1.429   2.750   2.978 -0.7321 -0.1620  0.0109
 6508TIP3   OH241014   1.735   4.428  13.587  0.4046  0.0824 -0.8815
 6508TIP3    H141015   1.742   4.523  13.598 -4.8341  0.7098 -1.8234
 6508TIP3    H241016   1.745   4.414  13.492 -1.0211 -0.0324 -1.0226
 6509TIP3   OH241017   1.475   4.583  13.768  0.0386  0.5546 -0.1202
 6509TIP3    H141018   1.380   4.593  13.770  0.0639  0.8563 -0.3203
 6509TIP3    H241019   1.502   4.625  13.686  0.4215  1.1641  0.3184
 6510TIP3   OH241020   5.656   3.116   5.891 -0.4986  0.6328 -0.8169
 6510TIP3    H141021   5.622   3.163   5.815  0.4734  2.1483 -0.3252
 6510TIP3    H241022   5.673   3.184   5.956 -4.2174 -0.8630  1.9439
 6511TIP3   OH241023   0.299   3.862  15.652 -0.0350 -0.0747  0.1229
 6511TIP3    H141024   0.247   3.805  15.709  0.1766  0.0485  0.4436
 6511TIP3    H241025   0.314   3.941  15.704  0.4232 -0.0848  0.0169
 6512TIP3   OH241026   1.854   0.566   3.268  0.4730  0.1410 -0.4784
 6512TIP3    H141027   1.864   0.527   3.181  0.1226 -0.0009 -0.4548
 6512TIP3    H241028   1.817   0.496   3.322  2.5886 -0.4279  0.3070
 6513TIP3   OH241029   6.507   5.090   1.360 -0.3763 -1.3559 -0.5280
 6513TIP3    H141030   6.557   5.109   1.281 -0.1180 -0.1639 -0.0936
 6513TIP3    H241031   6.497   5.175   1.402  0.5935 -2.1439  1.3695
 6514TIP3   OH241032   4.624   4.752  15.132  0.3692 -1.1475  0.6018
 6514TIP3    H141033   4.597   4.812  15.062  0.2464 -0.1732  1.4668
 6514TIP3    H241034   4.699   4.795  15.172 -0.0365 -1.3204  1.5607
 6515TIP3   OH241035   4.738   1.869  12.525 -0.4355 -0.4851  0.0349
 6515TIP3    H141036   4.791   1.809  12.577 -1.1743 -1.9814 -0.8843
 6515TIP3    H241037   4.651   1.863  12.564 -0.5155 -0.0311 -0.0771
 6516TIP3   OH241038   6.811   6.389  12.263 -0.3329  0.0225 -0.2275
 6516TIP3    H141039   6.903   6.367  12.257  0.0893  0.9392  2.3169
 6516TIP3    H241040   6.777   6.334  12.334 -1.1456  1.4958  0.5549
 6517TIP3   OH241041   5.696   1.828  15.366 -0.2076  0.3856 -0.2978
 6517TIP3    H141042   5.740   1.775  15.433 -0.8074 -0.4059 -0.5246
 6517TIP3    H241043   5.767   1.873  15.321  0.4006 -1.1232 -0.8715
 6518TIP3   OH241044   4.256   0.809  15.389  0.0361 -0.1383 -0.0825
 6518TIP3    H141045   4.228   0.896  15.360 -0.8211  0.2768  1.9446
 6518TIP3    H241046   4.328   0.787  15.330 -0.2914  1.5680 -1.1747
 6519TIP3   OH241047   1.702   5.832   2.376  0.8903 -0.3771 -0.6247
 6519TIP3    H141048   1.768   5.765   2.397  1.7575  0.1723 -1.5905
 6519TIP3    H241049   1.738   5.879   2.301 -0.6075 -0.0690 -1.1604
 6520TIP3   OH241050   6.453   0.055  14.189  0.7817 -0.5433  0.1057
 6520TIP3    H141051   6.524   0.095  14.139  0.9531 -0.3016  0.5433
 6520TIP3    H241052   6.457  -0.038  14.166 -1.6694  0.1242 -3.4628
 6521TIP3   OH241053   3.811   3.056   3.938  0.3124  0.1826 -0.2329
 6521TIP3    H141054   3.794   3.096   3.853  1.1302  1.2207  0.0831
 6521TIP3    H241055   3.751   3.101   3.998  2.6468  2.4514  0.5108
 6522TIP3   OH241056   5.477   5.609  11.088 -0.1793  0.3312 -0.4721
 6522TIP3    H141057   5.540   5.681  11.083  2.4910 -1.7384  1.3969
 6522TIP3    H241058   5.481   5.566  11.003  2.2801 -0.7596  0.1347
 6523TIP3   OH241059   2.767   6.389   6.652 -0.2913  0.5494  0.4464
 6523TIP3    H141060   2.706   6.454   6.616  0.3969  0.5880 -0.6773
 6523TIP3    H241061   2.852   6.433   6.649 -0.1013  0.2581  1.4104
 6524TIP3   OH241062   4.315   0.853  14.935  0.0099  0.2766 -0.7514
 6524TIP3    H141063   4.303   0.762  14.909  1.8915 -0.1662 -0.1568
 6524TIP3    H241064   4.247   0.869  15.000 -1.0536 -0.3551 -1.6957
 6525TIP3   OH241065   6.707   1.602  13.363 -0.6144 -0.3632  0.3007
 6525TIP3    H141066   6.613   1.593  13.376 -0.6166 -0.1328  0.4481
 6525TIP3    H241067   6.739   1.512  13.359 -0.5469 -0.4619  2.4403
 6526TIP3   OH241068   1.226   1.845   2.233  0.5224  0.2843  0.5512
 6526TIP3    H141069   1.316   1.874   2.218 -0.1560  1.6106 -1.0420
 6526TIP3    H241070   1.198   1.809   2.149  0.0335 -1.4643  1.4431
 6527TIP3   OH241071   0.085   0.867  13.528  0.0294  0.6900  0.2504
 6527TIP3    H141072   0.058   0.776  13.534  0.3390  0.5469 -0.4760
 6527TIP3    H241073   0.044   0.899  13.448 -0.7126  1.4069  0.9123
 6528TIP3   OH241074   0.062   2.394   0.305  0.5236  0.5796 -0.2492
 6528TIP3    H141075   0.145   2.422   0.345  1.4346 -1.3477 -0.7026
 6528TIP3    H241076   0.087   2.369   0.216 -0.2092 -1.6231  0.1370
 6529TIP3   OH241077   3.401   5.152   5.601 -0.3630  0.3687 -0.0980
 6529TIP3    H141078   3.389   5.247   5.600  0.7645  0.5086 -0.9035
 6529TIP3    H241079   3.327   5.118   5.551 -0.0930  0.9069 -0.8627
 6530TIP3   OH241080   2.438   5.619   3.893 -0.4343  0.0202 -0.1579
 6530TIP3    H141081   2.470   5.707   3.874  1.4062 -0.4049  0.8153
 6530TIP3    H241082   2.487   5.562   3.834  0.6262 -0.6377  1.3098
 6531TIP3   OH241083   6.584   4.277  15.690  0.1297  0.8309 -0.1271
 6531TIP3    H141084   6.583   4.372  15.681  3.1391  0.9962  0.6674
 6531TIP3    H241085   6.617   4.245  15.606 -0.6079  0.4935 -0.2933
 6532TIP3   OH241086   5.158   5.134   2.952  0.0600 -0.5571  0.0767
 6532TIP3    H141087   5.107   5.062   2.991 -1.2698 -0.0364 -0.7083
 6532TIP3    H241088   5.217   5.090   2.890 -0.9900 -0.9394 -0.6591
 6533TIP3   OH241089   4.806   0.267  12.005  0.0661  0.3765 -0.6899
 6533TIP3    H141090   4.758   0.301  12.080  1.1039  1.1626 -0.3702
 6533TIP3    H241091   4.897   0.293  12.021  0.5160 -0.6365 -1.5395
 6534TIP3   OH241092   3.459   5.222   3.399 -0.1717 -0.8827  0.0676
 6534TIP3    H141093   3.514   5.216   3.321  0.0755 -1.9387  0.3188
 6534TIP3    H241094   3.513   5.268   3.463 -0.0557 -0.7861 -0.0999
 6535TIP3   OH241095   4.032   4.992  12.079 -0.2526 -0.3144  0.1577
 6535TIP3    H141096   4.032   5.070  12.135  0.5177  0.4449 -0.8752
 6535TIP3    H241097   3.942   4.987  12.045 -0.8596 -1.0656  1.8376
 6536TIP3   OH241098   2.127   3.565  13.206  0.9694  0.3804 -0.1351
 6536TIP3    H141099   2.088   3.512  13.275  0.1858 -0.3994 -1.1660
 6536TIP3    H241100   2.170   3.503  13.148 -0.9017  0.7309 -1.9599
 6537TIP3   OH241101   3.395   3.300   1.218  0.4319 -0.4767  0.3115
 6537TIP3    H141102   3.463   3.300   1.152  0.3245  0.2853  0.1967
 6537TIP3    H241103   3.439   3.326   1.299  0.3241 -0.1751  0.2768
 6538TIP3   OH241104   6.411   2.888  15.260 -0.2912 -0.2181 -0.2223
 6538TIP3    H141105   6.356   2.853  15.330 -0.9855 -3.4840 -2.2804
 6538TIP3    H241106   6.493   2.839  15.269  0.1527  0.4302 -0.7654
 6539TIP3   OH241107   5.379   2.989  14.638  0.5095 -0.3832 -0.5406
 6539TIP3    H141108   5.318   2.968  14.567 -2.0070 -0.3433  1.5641
 6539TIP3    H241109   5.433   2.910  14.647 -1.1252 -1.5177 -0.5275
 6540TIP3   OH241110   1.424   0.105  11.396 -0.1136 -0.4419 -0.0250
 6540TIP3    H141111   1.343   0.155  11.403 -0.5959 -0.9401 -1.8201
 6540TIP3    H241112   1.396   0.013  11.394  0.6226 -0.6994  1.2210
 6541TIP3   OH241113   2.190   1.815  16.185  0.1682 -0.0012  0.0996
 6541TIP3    H141114   2.099   1.805  16.156 -0.1357 -0.4302  1.1614
 6541TIP3    H241115   2.230   1.872  16.120 -1.1091  0.9470  0.1274
 6542TIP3   OH241116   3.596   1.342  13.503 -0.0573 -0.4470  0.2252
 6542TIP3    H141117   3.530   1.300  13.558 -0.3252 -1.1948 -0.6417
 6542TIP3    H241118   3.619   1.275  13.439  0.7677  0.1697 -0.1283
 6543TIP3   OH241119   4.070   2.154  14.703  0.3301  0.2334  0.1210
 6543TIP3    H141120   4.157   2.146  14.664 -0.2798 -1.1666 -0.9685
 6543TIP3    H241121   4.016   2.193  14.634 -0.3148 -0.4792  0.2233
 6544TIP3   OH241122   4.822   0.973  16.088 -0.6106  0.8816  0.1111
 6544TIP3    H141123   4.766   0.997  16.161  0.6413 -0.5816  1.5769
 6544TIP3    H241124   4.910   1.001  16.114 -0.7108  4.2816 -2.6692
 6545TIP3   OH241125   2.864   5.850   1.290 -0.1040  0.2989  0.3985
 6545TIP3    H141126   2.886   5.777   1.347  1.6437 -0.7813 -1.6025
 6545TIP3    H241127   2.768   5.848   1.284 -0.0008 -3.0540 -1.1587
 6546TIP3   OH241128   6.053   5.503   0.762 -0.0313  0.1279  0.2453
 6546TIP3    H141129   6.043   5.412   0.790  0.3792  0.2273  0.7218
 6546TIP3    H241130   6.041   5.501   0.667  0.0473 -0.4326  0.2499
 6547TIP3   OH241131   5.203   4.400  11.078 -0.2766  0.3045 -0.0460
 6547TIP3    H141132   5.142   4.450  11.132 -2.0403 -0.5440 -1.2178
 6547TIP3    H241133   5.220   4.320  11.128 -2.0016 -0.5329 -0.7574
 6548TIP3   OH241134   5.203   2.446   5.831  0.3029  0.2015  0.6003
 6548TIP3    H141135   5.186   2.357   5.863  2.1736  0.9053  3.7572
 6548TIP3    H241136   5.184   2.502   5.905  1.4855  2.2576 -0.6089
 6549TIP3   OH241137   4.100   1.887   6.206  0.0496 -0.1000 -0.3928
 6549TIP3    H141138   4.171   1.927   6.256 -1.5692 -0.9562  2.6646
 6549TIP3    H241139   4.067   1.817   6.261 -1.8857 -1.0185 -2.6251
 6550TIP3   OH241140   1.817   6.510   4.821 -0.2124  0.2214 -0.1064
 6550TIP3    H141141   1.803   6.605   4.825  1.2097  0.5875 -3.0029
 6550TIP3    H241142   1.756   6.479   4.755 -0.7204 -0.9152  0.8766
 6551TIP3   OH241143   3.557   0.532  11.616 -0.4097  0.3252 -0.5811
 6551TIP3    H141144   3.537   0.593  11.688  0.5274  0.9683 -0.8476
 6551TIP3    H241145   3.479   0.478  11.608 -0.5758  0.3275  0.8440
 6552TIP3   OH241146   5.230   1.281  15.768  0.5621 -0.1379 -0.1858
 6552TIP3    H141147   5.257   1.195  15.734 -0.1163 -0.1935 -0.5865
 6552TIP3    H241148   5.243   1.341  15.694 -0.0204 -0.0901 -0.2464
 6553TIP3   OH241149   5.561   0.764  16.924 -0.1382 -0.2947 -0.1481
 6553TIP3    H141150   5.605   0.848  16.917  1.3681 -1.2984 -3.4707
 6553TIP3    H241151   5.493   0.766  16.856 -0.3770 -1.5683  0.0335
 6554TIP3   OH241152   4.287   2.105   4.198 -0.0963 -0.5609 -0.1225
 6554TIP3    H141153   4.311   2.013   4.186 -0.1369 -0.6384  0.3789
 6554TIP3    H241154   4.360   2.154   4.161  0.2246 -0.7952  0.2033
 6555TIP3   OH241155   0.969   5.916   2.506 -0.0663  0.0856  0.3155
 6555TIP3    H141156   0.906   5.973   2.462 -0.4615 -0.8014 -0.2766
 6555TIP3    H241157   1.011   5.973   2.571 -0.1011  1.1865 -0.5917
 6556TIP3   OH241158   5.448   0.119  14.322 -0.3625  0.1188  0.2540
 6556TIP3    H141159   5.414   0.035  14.355  0.0435 -0.2437 -0.2321
 6556TIP3    H241160   5.527   0.135  14.373  0.6572 -0.7962 -0.9956
 6557TIP3   OH241161   0.427   4.492   6.077 -0.1934  0.4180  0.2236
 6557TIP3    H141162   0.431   4.569   6.133  0.4028  0.6095 -0.0803
 6557TIP3    H241163   0.456   4.420   6.132 -0.7028  0.4180  0.4930
 6558TIP3   OH241164   5.331   0.012   2.883 -0.2755  0.3234 -0.2850
 6558TIP3    H141165   5.308  -0.075   2.916 -0.7520  1.1958  1.7614
 6558TIP3    H241166   5.426   0.013   2.881 -0.2815 -0.6897 -1.5689
 6559TIP3   OH241167   3.675   5.175  11.594 -0.1432  0.2732  0.4465
 6559TIP3    H141168   3.748   5.230  11.625 -1.1928  1.5789  0.6405
 6559TIP3    H241169   3.710   5.131  11.517  0.3396  2.1573 -0.4365
 6560TIP3   OH241170   2.256   2.645  13.218  0.2329 -0.2663  0.2293
 6560TIP3    H141171   2.185   2.677  13.162  1.0529  0.2003 -0.5678
 6560TIP3    H241172   2.310   2.722  13.234  1.7969 -1.0670 -1.0470
 6561TIP3   OH241173   2.433   5.827  14.242  0.0034 -0.0450 -0.0717
 6561TIP3    H141174   2.454   5.784  14.159 -1.0697  2.2976 -1.6127
 6561TIP3    H241175   2.425   5.755  14.305 -1.4162 -2.0698 -2.4778
 6562TIP3   OH241176   5.259   5.615  17.038 -0.3675  0.1864  0.1516
 6562TIP3    H141177   5.222   5.530  17.059  1.5057 -1.4731 -2.9869
 6562TIP3    H241178   5.195   5.656  16.980 -1.4371  1.1726  1.9391
 6563TIP3   OH241179   2.042   1.699   3.329  0.6674 -0.1741 -0.0355
 6563TIP3    H141180   2.101   1.753   3.277  2.0816 -2.1084 -0.5049
 6563TIP3    H241181   2.059   1.726   3.420  3.4410 -1.7267 -0.0186
 6564TIP3   OH241182   5.030   4.209  12.348  0.4253 -0.1627  0.4221
 6564TIP3    H141183   5.074   4.289  12.377  0.9512 -0.4632  0.4533
 6564TIP3    H241184   4.967   4.239  12.283 -0.8886  0.5312  1.9971
 6565TIP3   OH241185   0.201   6.596   1.832  0.3036  0.1773 -0.1763
 6565TIP3    H141186   0.184   6.690   1.838 -1.4082 -0.1929  0.8736
 6565TIP3    H241187   0.234   6.584   1.743 -0.1763  1.6595 -0.5734
 6566TIP3   OH241188   5.168   6.446   6.123  0.1221  0.4611 -0.1099
 6566TIP3    H141189   5.104   6.509   6.155  0.7940  0.6819  0.8571
 6566TIP3    H241190   5.204   6.406   6.203  1.2917  0.4636 -0.6164
 6567TIP3   OH241191   3.856   2.698   5.301 -0.3728  0.5211  0.2702
 6567TIP3    H141192   3.829   2.648   5.378  0.5690  1.0974  0.9870
 6567TIP3    H241193   3.808   2.658   5.228 -1.2074 -0.0817  1.1377
 6568TIP3   OH241194   4.110   0.712   1.524  0.3124  0.5218 -0.4461
 6568TIP3    H141195   4.114   0.799   1.562 -4.0009  0.6504 -0.1198
 6568TIP3    H241196   4.145   0.723   1.436 -0.2245  2.5927 -0.4264
 6569TIP3   OH241197   1.783   1.508   0.693 -0.6099  0.3205 -0.0852
 6569TIP3    H141198   1.809   1.598   0.713  0.2972  0.1949 -0.7075
 6569TIP3    H241199   1.783   1.504   0.597  0.5389 -0.6974 -0.0400
 6570TIP3   OH241200   0.889   2.030   1.440 -0.4260 -0.5269  0.1463
 6570TIP3    H141201   0.815   2.009   1.383 -0.7393  1.3754 -0.1943
 6570TIP3    H241202   0.899   2.125   1.432 -0.2315 -0.2645  2.9926
 6571TIP3   OH241203   3.170   3.916   3.844  0.0421 -0.2801  0.4126
 6571TIP3    H141204   3.112   3.959   3.781  0.0826 -0.5668  0.1771
 6571TIP3    H241205   3.250   3.898   3.794  0.7559  1.1149  1.0396
 6572TIP3   OH241206   3.420   3.778  10.732 -0.2523  0.1474  0.7530
 6572TIP3    H141207   3.343   3.809  10.684  0.6378 -0.7009 -1.2709
 6572TIP3    H241208   3.472   3.733  10.667  1.2773 -0.5605  2.4291
 6573TIP3   OH241209   1.503   1.502   1.944 -0.5825 -0.4976 -0.1928
 6573TIP3    H141210   1.575   1.507   2.007  0.9729 -2.0806 -1.7803
 6573TIP3    H241211   1.520   1.573   1.882 -1.6083  0.4840  0.6258
 6574TIP3   OH241212   0.190   2.122  11.763 -0.6059  1.1924 -0.0052
 6574TIP3    H141213   0.235   2.173  11.695 -0.9826  1.8220  0.2192
 6574TIP3    H241214   0.110   2.170  11.780 -0.9429  0.5445  0.2446
 6575TIP3   OH241215   4.256   2.158   1.427  0.1082  0.0415 -0.6449
 6575TIP3    H141216   4.217   2.104   1.495 -2.6098  0.5950 -1.6796
 6575TIP3    H241217   4.222   2.122   1.345  0.3437  1.6951 -1.4962
 6576TIP3   OH241218   3.691   5.249   0.549  0.0202 -0.8431 -0.1667
 6576TIP3    H141219   3.599   5.244   0.576 -0.3495 -1.7325 -1.5664
 6576TIP3    H241220   3.703   5.341   0.525 -0.5060 -0.7309 -0.0227
 6577TIP3   OH241221   1.082   5.007   0.827 -0.0803  0.2998  0.2253
 6577TIP3    H141222   1.035   4.937   0.872  0.4801  0.8573  1.7361
 6577TIP3    H241223   1.172   4.998   0.859  0.4344  0.4514 -1.1390
 6578TIP3   OH241224   3.350   1.264  13.640  0.0330  0.8578  0.2735
 6578TIP3    H141225   3.299   1.336  13.676 -1.8023  0.8251 -2.1670
 6578TIP3    H241226   3.357   1.201  13.712 -0.0655  2.5579  1.7982
 6579TIP3   OH241227   4.473   1.200  14.392  0.1077  0.1481 -0.2972
 6579TIP3    H141228   4.396   1.184  14.336 -1.8945  0.0774  2.3625
 6579TIP3    H241229   4.477   1.295  14.400  0.1141  0.1407 -0.2109
 6580TIP3   OH241230   6.481   3.960   0.112 -0.4145 -0.0885  0.1999
 6580TIP3    H141231   6.532   3.930   0.036 -0.9073 -2.2228  0.6830
 6580TIP3    H241232   6.392   3.968   0.079 -0.8347 -2.0693  0.7834
 6581TIP3   OH241233   6.179   1.108  14.564  0.3026  0.1544 -0.0369
 6581TIP3    H141234   6.217   1.195  14.576  2.3856 -0.6762 -0.2552
 6581TIP3    H241235   6.228   1.052  14.625 -0.7105 -0.9293 -0.2015
 6582TIP3   OH241236   5.595   0.532   5.601 -0.5444  0.2139 -0.4501
 6582TIP3    H141237   5.662   0.465   5.619 -0.7171 -0.0451 -0.7780
 6582TIP3    H241238   5.571   0.519   5.510 -0.3108  0.9686 -0.6266
 6583TIP3   OH241239   1.472   5.869   5.980  0.2505  0.3117 -0.0359
 6583TIP3    H141240   1.565   5.849   5.969  0.0132 -0.2380 -1.0706
 6583TIP3    H241241   1.426   5.798   5.934 -0.6427  2.0378 -1.8457
 6584TIP3   OH241242   5.778   4.162  16.545  0.0847  0.0824  0.1324
 6584TIP3    H141243   5.775   4.078  16.590 -1.1101  1.1474  2.1401
 6584TIP3    H241244   5.871   4.183  16.537  0.4145 -1.7700 -1.0764
 6585TIP3   OH241245   2.871   2.245   2.573  0.0247  0.0300  0.1588
 6585TIP3    H141246   2.819   2.167   2.553  0.6652  0.0609 -1.7439
 6585TIP3    H241247   2.956   2.211   2.601  0.5359  0.0468 -1.3553
 6586TIP3   OH241248   4.487   2.441  10.582 -0.3468  0.0890 -0.0862
 6586TIP3    H141249   4.571   2.404  10.609 -0.7938  0.4184  1.8121
 6586TIP3    H241250   4.480   2.420  10.489  1.7505 -0.0973 -0.2149
 6587TIP3   OH241251   6.450   4.191  12.271 -0.1243  0.4863 -0.0604
 6587TIP3    H141252   6.395   4.269  12.272 -0.9412 -0.0679 -0.5888
 6587TIP3    H241253   6.421   4.143  12.194  0.1939 -0.4540  0.3972
 6588TIP3   OH241254   5.612   3.734   3.232 -0.1826  0.2942  0.2591
 6588TIP3    H141255   5.527   3.765   3.265 -1.4628 -1.3437 -1.3704
 6588TIP3    H241256   5.599   3.640   3.218  1.5766  0.2196 -1.0220
 6589TIP3   OH241257   0.726   1.584  15.536  0.2617 -0.1107  0.5210
 6589TIP3    H141258   0.803   1.527  15.543  0.1502 -0.1745  1.2781
 6589TIP3    H241259   0.757   1.660  15.486  0.7528 -0.2537  0.6073
 6590TIP3   OH241260   2.891   5.856  12.427 -0.0268 -0.5738  0.0831
 6590TIP3    H141261   2.953   5.818  12.490  0.3144  1.8278  1.2812
 6590TIP3    H241262   2.824   5.789  12.417 -0.3310 -0.8910  3.4064
 6591TIP3   OH241263   0.518   2.330  14.619  0.2302 -0.0098 -0.3403
 6591TIP3    H141264   0.453   2.267  14.649  0.9450 -0.0134  1.2332
 6591TIP3    H241265   0.484   2.415  14.645  0.6019  0.0257  0.0470
 6592TIP3   OH241266   5.581   3.641   5.837 -0.3474  0.0479  0.1966
 6592TIP3    H141267   5.550   3.685   5.916  1.4058  1.2249  0.2476
 6592TIP3    H241268   5.648   3.699   5.801  0.0852 -1.2883 -1.2375
 6593TIP3   OH241269   0.629   0.834  12.720 -0.2397 -0.5902 -0.1828
 6593TIP3    H141270   0.591   0.921  12.709  0.6491 -0.3010 -0.9879
 6593TIP3    H241271   0.671   0.836  12.806  0.5771  0.0652 -0.6029
 6594TIP3   OH241272   2.991   0.636   4.711 -0.0744  0.2419 -0.3749
 6594TIP3    H141273   2.916   0.694   4.725 -0.6625 -0.5451 -0.1734
 6594TIP3    H241274   3.056   0.665   4.774 -1.5935 -1.3958  2.0522
 6595TIP3   OH241275   1.135   4.594  11.452  0.0874 -0.3959 -0.2818
 6595TIP3    H141276   1.165   4.641  11.374  1.3043 -2.7681 -1.2961
 6595TIP3    H241277   1.118   4.663  11.516  1.2922  1.4599 -1.8881
 6596TIP3   OH241278   2.301   6.596   4.540  0.2243 -0.1063  0.4828
 6596TIP3    H141279   2.291   6.625   4.449  2.5209  0.8747  0.5037
 6596TIP3    H241280   2.224   6.542   4.557  0.9082 -2.1830 -2.7542
 6597TIP3   OH241281   3.516   0.509   4.916  0.1027  0.2938 -0.3150
 6597TIP3    H141282   3.583   0.577   4.914  0.3333  0.1244  1.0560
 6597TIP3    H241283   3.468   0.525   4.996 -1.3525  0.2564 -1.1674
 6598TIP3   OH241284   2.210   1.322   4.156  0.2006 -0.3732  0.0750
 6598TIP3    H141285   2.250   1.310   4.069 -1.5140  0.4501 -0.8432
 6598TIP3    H241286   2.253   1.400   4.191 -1.0495  0.8929 -1.1812
 6599TIP3   OH241287   4.214   0.367   4.394 -0.4682 -0.7319  0.6443
 6599TIP3    H141288   4.126   0.335   4.380  0.4430 -2.8800 -0.3767
 6599TIP3    H241289   4.218   0.384   4.489 -1.4589 -2.2009  0.9659
 6600TIP3   OH241290   0.491   4.256  13.782 -0.1486  0.4909  1.2090
 6600TIP3    H141291   0.449   4.245  13.697  2.2975  0.1321  0.0130
 6600TIP3    H241292   0.451   4.336  13.818 -3.5287 -1.1020  1.2111
 6601TIP3   OH241293   3.060   3.512   3.621  0.3342  0.0930  0.3563
 6601TIP3    H141294   3.042   3.499   3.528 -1.9909  2.4269  0.3923
 6601TIP3    H241295   3.061   3.607   3.631 -1.8785 -0.1078  3.1011
 6602TIP3   OH241296   3.272   1.622   2.621  0.2554  0.4240 -0.3708
 6602TIP3    H141297   3.348   1.603   2.566 -0.5375 -0.3084 -1.2342
 6602TIP3    H241298   3.205   1.652   2.560 -1.5782 -3.1245 -0.2700
 6603TIP3   OH241299   0.199   0.548  12.378 -0.2661 -0.3544 -0.2940
 6603TIP3    H141300   0.271   0.574  12.320 -0.1994 -1.3424 -0.6624
 6603TIP3    H241301   0.230   0.571  12.465  0.2365 -0.1874 -0.5114
 6604TIP3   OH241302   2.413   3.431   3.205  0.0518  0.1720  0.4392
 6604TIP3    H141303   2.457   3.390   3.279  0.4974  0.1014  0.1369
 6604TIP3    H241304   2.390   3.519   3.236 -0.8737 -0.2931  1.0735
 6605TIP3   OH241305   2.535   5.484   4.121 -0.2265  0.7948  0.6189
 6605TIP3    H141306   2.486   5.503   4.041 -1.1871 -0.0747  0.9818
 6605TIP3    H241307   2.624   5.512   4.102  0.1613 -1.7247 -1.7043
 6606TIP3   OH241308   4.221   0.300  12.251  0.2671  0.0970 -0.7058
 6606TIP3    H141309   4.140   0.345  12.224  0.5220  1.6979  1.0333
 6606TIP3    H241310   4.236   0.332  12.340  1.8879 -1.5204 -0.3908
 6607TIP3   OH241311   0.768   1.694   3.729  0.4510 -0.1097  0.1709
 6607TIP3    H141312   0.816   1.615   3.755 -2.3060 -2.4849 -1.6491
 6607TIP3    H241313   0.709   1.711   3.803 -0.3201 -0.9254 -0.2487
 6608TIP3   OH241314   1.655   5.395   5.758 -0.3602  0.1229 -0.4363
 6608TIP3    H141315   1.580   5.394   5.817 -0.2642  2.1949 -0.2543
 6608TIP3    H241316   1.699   5.311   5.775 -1.8399 -0.5028  0.4481
 6609TIP3   OH241317   5.767   6.577   2.791 -0.4647 -0.1979  0.0808
 6609TIP3    H141318   5.773   6.575   2.695 -1.3234  1.1443 -0.0027
 6609TIP3    H241319   5.814   6.498   2.819 -1.4206 -1.3748 -1.5088
 6610TIP3   OH241320   1.734   6.233  16.529  0.3684  0.0814 -0.1286
 6610TIP3    H141321   1.709   6.260  16.617  2.0926 -1.5711  0.9117
 6610TIP3    H241322   1.662   6.177  16.499 -0.5405  1.1934 -0.0685
 6611TIP3   OH241323   3.093   2.094  13.643 -0.1322  0.3062 -0.2793
 6611TIP3    H141324   3.144   2.025  13.600  0.8269  0.3866  0.7108
 6611TIP3    H241325   3.008   2.054  13.661 -0.3424  0.0901 -1.7172
 6612TIP3   OH241326   3.603   6.130  14.502 -0.2643 -0.1985 -0.4371
 6612TIP3    H141327   3.584   6.107  14.592  1.0178  0.6813  0.0824
 6612TIP3    H241328   3.553   6.210  14.486  0.1803  0.1193 -0.2340
 6613TIP3   OH241329   4.498   2.098  11.579 -0.3153  0.1043 -0.7388
 6613TIP3    H141330   4.415   2.056  11.558 -0.1251  0.5388 -2.5196
 6613TIP3    H241331   4.564   2.043  11.537  0.0207  1.4972 -2.1162
 6614TIP3   OH241332   5.193   3.143  15.141  0.8137 -0.0703 -0.1778
 6614TIP3    H141333   5.155   3.071  15.091 -0.2285  0.0970  0.3554
 6614TIP3    H241334   5.234   3.199  15.075 -1.1695  0.5287 -0.9380
 6615TIP3   OH241335   3.161   5.623   2.395  0.2136  0.2031  0.4370
 6615TIP3    H141336   3.146   5.543   2.445  1.2739  0.1874  0.7471
 6615TIP3    H241337   3.150   5.693   2.459  1.9949  0.1631  0.8167
 6616TIP3   OH241338   5.807   0.665   3.137  0.4260 -0.5490 -0.2707
 6616TIP3    H141339   5.750   0.726   3.183  0.9695  0.0102 -0.3439
 6616TIP3    H241340   5.768   0.579   3.153 -0.4451 -0.1652 -0.3359
 6617TIP3   OH241341   3.987   2.224  13.130 -0.2173 -0.5949 -0.2367
 6617TIP3    H141342   3.904   2.215  13.178 -0.5922  0.3771 -0.6963
 6617TIP3    H241343   3.997   2.140  13.085 -1.8528 -0.1070 -1.5806
 6618TIP3   OH241344   1.115   1.170  15.931 -0.0713  0.7831 -0.0073
 6618TIP3    H141345   1.165   1.092  15.952  0.9931  1.7251  1.0322
 6618TIP3    H241346   1.033   1.161  15.980  1.0551  1.4480  2.0240
 6619TIP3   OH241347   2.212   1.823   5.980 -0.1733  0.5706  0.5211
 6619TIP3    H141348   2.130   1.812   5.931 -0.1004 -0.6070  0.6532
 6619TIP3    H241349   2.198   1.903   6.032 -1.0004  0.7200  0.0816
 6620TIP3   OH241350   4.805   3.061  14.513 -0.0422 -0.3090  0.5113
 6620TIP3    H141351   4.855   3.083  14.592 -0.3992 -4.0815  1.8887
 6620TIP3    H241352   4.762   3.143  14.488  0.8690  1.2058  3.6589
 6621TIP3   OH241353   1.837   5.360   4.716  0.2619 -0.0812  0.5212
 6621TIP3    H141354   1.822   5.381   4.624 -0.1279 -0.1126  0.5784
 6621TIP3    H241355   1.932   5.352   4.723  0.3134  0.2051  0.1813
 6622TIP3   OH241356   1.778   3.644   3.460 -0.1685  0.5287 -0.4077
 6622TIP3    H141357   1.701   3.587   3.453  0.9380 -0.8447 -2.0012
 6622TIP3    H241358   1.747   3.722   3.505 -2.0961 -0.7106  0.4585
 6623TIP3   OH241359   3.281   2.810  16.146  0.1115 -0.3523  1.1670
 6623TIP3    H141360   3.204   2.807  16.090  1.6459  0.7463 -1.0656
 6623TIP3    H241361   3.246   2.824  16.234 -2.2225  0.0278  0.2158
 6624TIP3   OH241362   0.385   6.081   2.174  0.1044  0.2738  0.6029
 6624TIP3    H141363   0.477   6.056   2.179 -0.1549 -0.2678  3.2079
 6624TIP3    H241364   0.369   6.131   2.254 -1.1391  2.9440 -1.2042
 6625TIP3   OH241365   4.511   5.856  14.096 -0.0786 -0.5058 -0.2363
 6625TIP3    H141366   4.571   5.787  14.069  0.0176 -1.0319  1.2775
 6625TIP3    H241367   4.425   5.815  14.092  0.1563 -1.3362  2.5399
 6626TIP3   OH241368   5.212   0.033  11.057 -0.1944  0.4016  0.5419
 6626TIP3    H141369   5.125  -0.007  11.058 -0.7083  1.5007  0.5558
 6626TIP3    H241370   5.208   0.102  11.123  1.2917 -0.7609  1.9078
 6627TIP3   OH241371   2.032   3.746  11.708  0.0240  0.2419 -0.1948
 6627TIP3    H141372   2.081   3.744  11.790  0.7029  0.8552 -0.5782
 6627TIP3    H241373   2.092   3.705  11.644  0.4046  1.7907 -0.8560
 6628TIP3   OH241374   4.229   3.669  16.695 -0.3687  0.4499 -0.3395
 6628TIP3    H141375   4.169   3.629  16.632 -1.0964  1.5369 -0.3448
 6628TIP3    H241376   4.305   3.694  16.643  0.0743 -0.8897 -0.3387
 6629TIP3   OH241377   1.428   6.701  14.565  0.0980  0.1531 -0.0210
 6629TIP3    H141378   1.371   6.625  14.572 -1.5850  1.2994 -0.8371
 6629TIP3    H241379   1.393   6.751  14.490  0.8652  1.9625  0.7864
 6630TIP3   OH241380   5.723   1.069  10.858 -0.4874 -0.3445  0.7708
 6630TIP3    H141381   5.813   1.099  10.843 -1.0375  0.8771 -0.2675
 6630TIP3    H241382   5.690   1.048  10.770 -1.0358 -1.3205  1.2077
 6631TIP3   OH241383   1.594   0.141  14.258 -0.0877  0.3644  0.1642
 6631TIP3    H141384   1.532   0.189  14.313 -0.5978 -0.9116  0.7348
 6631TIP3    H241385   1.569   0.163  14.168 -0.6563  0.7502  0.4153
 6632TIP3   OH241386   5.595   2.271   0.043 -0.7359 -0.5433  0.8491
 6632TIP3    H141387   5.644   2.213   0.101  2.9044  2.0306  0.4966
 6632TIP3    H241388   5.616   2.239  -0.045 -3.0584 -1.9625  0.7708
 6633TIP3   OH241389   0.073   4.367   5.156  0.1513 -0.2262 -0.3067
 6633TIP3    H141390   0.094   4.388   5.065 -2.6092 -0.6457 -1.0829
 6633TIP3    H241391   0.050   4.451   5.195  0.0021 -0.2361 -0.3732
 6634TIP3   OH241392   5.974   0.045   2.233  0.0354 -0.1605  0.0638
 6634TIP3    H141393   6.005   0.052   2.323 -0.4589 -0.3517  0.2505
 6634TIP3    H241394   5.919  -0.034   2.232  0.2767 -0.3297 -0.4740
 6635TIP3   OH241395   1.473   6.687  17.015  0.2906  1.0164 -0.5107
 6635TIP3    H141396   1.550   6.671  17.070  1.1104  1.8333 -1.4023
 6635TIP3    H241397   1.508   6.695  16.927 -0.8486  1.2709 -0.9407
 6636TIP3   OH241398   6.026   0.876  12.903 -0.1425 -0.0435  0.0080
 6636TIP3    H141399   6.012   0.782  12.910  0.5943 -0.0943  0.8404
 6636TIP3    H241400   5.978   0.913  12.977  0.9929  0.0873  0.6847
 6637TIP3   OH241401   3.100   2.798  11.716 -0.1914  0.2863  0.0728
 6637TIP3    H141402   3.015   2.756  11.705  0.9107 -1.2974 -3.2355
 6637TIP3    H241403   3.134   2.762  11.798 -2.1941  0.0502  0.8236
 6638TIP3   OH241404   4.598   5.022  14.102  0.2037  0.2880  0.0763
 6638TIP3    H141405   4.532   4.960  14.131 -0.4310  0.6748 -0.5283
 6638TIP3    H241406   4.647   4.974  14.035  1.1859 -0.3411  1.2209
 6639TIP3   OH241407   0.635   1.696   0.408 -0.2098 -0.0791 -0.1764
 6639TIP3    H141408   0.685   1.634   0.462 -1.5655 -0.1941  0.9764
 6639TIP3    H241409   0.659   1.782   0.442 -1.3277 -0.1646  0.8890
 6640TIP3   OH241410   2.669   5.096   1.418  0.9539 -0.3334 -0.8439
 6640TIP3    H141411   2.675   5.150   1.497 -0.6176 -1.7571  0.2691
 6640TIP3    H241412   2.709   5.012   1.443 -2.2750 -1.8653 -0.5626
 6641TIP3   OH241413   3.863   6.281  17.089  0.4101 -0.0184  0.1670
 6641TIP3    H141414   3.869   6.307  16.997  1.9326 -2.0759 -0.3664
 6641TIP3    H241415   3.916   6.345  17.136  0.1758  0.6527 -0.4832
 6642TIP3   OH241416   4.423   3.914   1.865 -0.8975  0.6957 -0.2673
 6642TIP3    H141417   4.447   4.006   1.864  0.9630  0.2923  2.2680
 6642TIP3    H241418   4.497   3.870   1.822 -0.9079  0.2135  0.2079
 6643TIP3   OH241419   5.336   2.019  12.587  0.5410  0.4698 -0.0577
 6643TIP3    H141420   5.393   2.084  12.629  0.3239  1.2737 -1.0188
 6643TIP3    H241421   5.264   2.008  12.649  0.2362  1.6397 -0.1891
 6644TIP3   OH241422   5.524   5.673   4.993  0.0524 -0.6468  0.0263
 6644TIP3    H141423   5.602   5.693   5.044  0.2172 -0.3301 -0.3402
 6644TIP3    H241424   5.477   5.756   4.988 -0.2952 -0.8329  0.2275
 6645TIP3   OH241425   0.490   1.197   0.422  0.3415 -0.4258 -0.2401
 6645TIP3    H141426   0.449   1.125   0.469  1.1097 -0.7692 -0.0819
 6645TIP3    H241427   0.432   1.272   0.436 -0.0867 -0.8381  0.1934
 6646TIP3   OH241428   1.340   1.650   6.527  0.1783 -0.1581  0.3276
 6646TIP3    H141429   1.257   1.650   6.575 -0.6681  1.0400 -1.0900
 6646TIP3    H241430   1.315   1.653   6.435  1.7931 -1.6296 -0.1978
 6647TIP3   OH241431   1.732   2.871  11.405  0.0408 -0.0711  0.0608
 6647TIP3    H141432   1.769   2.958  11.422 -0.6867  0.5887 -1.6272
 6647TIP3    H241433   1.664   2.886  11.339 -0.2531 -1.8901 -0.0822
 6648TIP3   OH241434   2.791   2.914  15.224 -0.2892 -0.2868  0.1715
 6648TIP3    H141435   2.829   2.951  15.144  1.2673 -0.6307  0.7232
 6648TIP3    H241436   2.728   2.979  15.254  1.0777  1.0939  0.1132
 6649TIP3   OH241437   5.609   0.941  11.390  0.6248 -0.3729 -0.1157
 6649TIP3    H141438   5.534   1.000  11.404  0.0040 -1.4720  1.3910
 6649TIP3    H241439   5.571   0.862  11.352  1.0478 -0.8172  0.3642
 6650TIP3   OH241440   4.438   4.745  11.729 -0.0722 -0.2535 -0.3838
 6650TIP3    H141441   4.527   4.711  11.721 -0.3267 -0.9285 -0.3668
 6650TIP3    H241442   4.382   4.668  11.717 -0.6275 -0.0261  0.7489
 6651TIP3   OH241443   2.030   0.906   4.154 -0.0475 -0.3873 -0.6603
 6651TIP3    H141444   2.077   0.981   4.191  0.0634 -1.0139  0.4749
 6651TIP3    H241445   2.091   0.833   4.162 -0.8695 -1.0154  0.0082
 6652TIP3   OH241446   6.705   2.377   1.044  0.5724 -0.7403  0.4168
 6652TIP3    H141447   6.627   2.350   0.996 -0.1428 -0.2993  1.3293
 6652TIP3    H241448   6.775   2.377   0.978  0.1030 -2.4959 -0.1099
 6653TIP3   OH241449   0.312   5.645   3.360  0.1998 -0.6077 -0.0436
 6653TIP3    H141450   0.326   5.666   3.452 -0.8556  0.0995 -0.0406
 6653TIP3    H241451   0.223   5.673   3.342  0.5517 -0.3222 -1.4090
 6654TIP3   OH241452   1.576   1.875   5.978 -0.3824 -0.2526  0.5947
 6654TIP3    H141453   1.535   1.789   5.978 -1.9494  0.3886 -2.6530
 6654TIP3    H241454   1.504   1.936   5.965  1.0337  1.2682 -0.4152
 6655TIP3   OH241455   5.497   4.325  12.975 -0.1040  0.5964  0.2125
 6655TIP3    H141456   5.483   4.420  12.979  0.9661  0.7599  0.1382
 6655TIP3    H241457   5.499   4.306  12.881  0.6290  0.6460  0.2157
 6656TIP3   OH241458   0.544   3.692   6.790 -0.0839  0.4014 -0.1842
 6656TIP3    H141459   0.513   3.612   6.832  1.7008 -0.9265 -1.3299
 6656TIP3    H241460   0.493   3.699   6.709  0.2947 -0.0004 -0.4592
 6657TIP3   OH241461   5.144   4.830  16.860  0.3613  0.1214  0.1741
 6657TIP3    H141462   5.207   4.849  16.791 -0.2030 -0.4387 -0.5029
 6657TIP3    H241463   5.062   4.813  16.813 -0.2690  0.7203  1.0299
 6658TIP3   OH241464   2.560   0.199   5.587 -0.5823  0.5746 -0.1520
 6658TIP3    H141465   2.637   0.245   5.555  0.7619 -1.4247  0.0977
 6658TIP3    H241466   2.587   0.164   5.672 -1.7857 -0.0915 -0.0332
 6659TIP3   OH241467   0.557   3.912   0.317  0.4478 -0.9139 -0.5837
 6659TIP3    H141468   0.562   3.837   0.259 -3.3669 -2.2795  0.6600
 6659TIP3    H241469   0.576   3.877   0.404  0.2134 -0.1235 -0.2041
 6660TIP3   OH241470   4.002   2.545  11.038 -0.2471 -0.2049  0.4338
 6660TIP3    H141471   3.996   2.456  11.072  0.1459 -0.6880 -0.7601
 6660TIP3    H241472   4.089   2.575  11.067 -0.0261 -0.5153  0.0941
 6661TIP3   OH241473   1.080   0.455  14.043  0.1924 -0.2005 -0.2946
 6661TIP3    H141474   1.136   0.415  14.109  0.7692 -1.3761 -1.4748
 6661TIP3    H241475   1.040   0.530  14.087  2.1113  0.2092  0.7853
 6662TIP3   OH241476   5.798   0.983   4.583  0.0048  0.0216 -0.4095
 6662TIP3    H141477   5.841   1.069   4.578  0.5566 -0.1611  1.0769
 6662TIP3    H241478   5.707   1.001   4.560  0.0316  1.0721  0.2704
 6663TIP3   OH241479   3.040   4.446   1.797  0.1706  0.3624  0.6787
 6663TIP3    H141480   3.058   4.488   1.881  2.8581  0.6538 -0.0087
 6663TIP3    H241481   3.039   4.353   1.816  1.3468  0.3996  0.9302
 6664TIP3   OH241482   4.821   0.654  15.468 -0.1697 -0.9723  0.2999
 6664TIP3    H141483   4.793   0.723  15.408 -1.3954 -2.9303 -1.4728
 6664TIP3    H241484   4.916   0.651  15.459  0.0028  1.1167  1.1475
 6665TIP3   OH241485   2.037   0.947   2.807  0.1123  0.2688 -0.2764
 6665TIP3    H141486   1.982   0.927   2.883 -0.3031  1.2064 -0.3239
 6665TIP3    H241487   2.055   1.041   2.815 -1.1583  0.6894 -2.1375
 6666TIP3   OH241488   3.592   1.795  16.206 -0.0425 -0.4180  0.4677
 6666TIP3    H141489   3.588   1.795  16.110 -0.0961  0.5578  0.4680
 6666TIP3    H241490   3.530   1.726  16.232 -0.8259  0.0406 -0.1633
 6667TIP3   OH241491   1.150   5.829  15.162  0.4747 -0.5099  0.0292
 6667TIP3    H141492   1.153   5.734  15.168 -2.1368 -0.6527 -0.3304
 6667TIP3    H241493   1.121   5.859  15.248 -0.5402 -0.1813 -0.4127
 6668TIP3   OH241494   2.193   3.401   0.597 -0.4837  0.7035  0.0462
 6668TIP3    H141495   2.161   3.360   0.677  0.2110  0.2001  0.0728
 6668TIP3    H241496   2.136   3.366   0.528  1.4711 -2.0491 -0.2380
 6669TIP3   OH241497   5.512   1.689  13.688 -0.4676 -0.1514 -0.1653
 6669TIP3    H141498   5.546   1.752  13.624 -0.9029 -0.3399 -0.5889
 6669TIP3    H241499   5.537   1.603  13.652  2.0260 -0.1895  1.4871
 6670TIP3   OH241500   4.975   6.332   5.177 -0.2636  0.1955 -0.1606
 6670TIP3    H141501   4.986   6.238   5.164  1.1258  0.3478 -0.1474
 6670TIP3    H241502   4.987   6.370   5.090 -2.4932  0.2310 -0.4735
 6671TIP3   OH241503   2.658   4.943  13.577 -0.3944 -0.3231  0.1627
 6671TIP3    H141504   2.624   5.029  13.555  1.0658  0.5743  1.3574
 6671TIP3    H241505   2.621   4.885  13.511  0.0857  1.5126 -1.7571
 6672TIP3   OH241506   3.905   1.124   5.080  0.1311  0.0281 -0.6621
 6672TIP3    H141507   3.813   1.126   5.108  0.1414 -3.5556 -0.1205
 6672TIP3    H241508   3.950   1.181   5.142 -1.7812  2.2097 -1.2335
 6673TIP3   OH241509   0.604   1.515  13.610 -0.0112  0.4758  0.2741
 6673TIP3    H141510   0.637   1.431  13.579 -1.0425 -0.0862  0.6599
 6673TIP3    H241511   0.510   1.512  13.590 -0.1524  1.2991  0.8078
 6674TIP3   OH241512   6.678   0.908  14.018 -0.3129 -0.4956 -0.8841
 6674TIP3    H141513   6.664   1.000  13.994  1.8936  0.0187 -0.2582
 6674TIP3    H241514   6.703   0.866  13.935  1.3517  0.0465 -0.6781
 6675TIP3   OH241515   3.992   5.838  11.455  0.3250 -0.6828  0.0948
 6675TIP3    H141516   4.060   5.858  11.390 -0.3636  0.4672 -0.2766
 6675TIP3    H241517   3.916   5.887  11.426 -0.2823 -0.9343  1.2458
 6676TIP3   OH241518   3.207   0.995  16.976 -0.1457 -0.1773  0.3508
 6676TIP3    H141519   3.225   0.974  17.068 -0.5456  1.2027  0.7553
 6676TIP3    H241520   3.130   1.052  16.979 -0.5008 -0.5622 -0.8891
 6677TIP3   OH241521   3.644   5.217   3.179 -0.1209  0.7506  0.3776
 6677TIP3    H141522   3.692   5.217   3.096 -0.4351 -1.6580  0.1482
 6677TIP3    H241523   3.712   5.208   3.246 -0.1796 -2.8821  0.0405
 6678TIP3   OH241524   2.148   5.171   4.414 -0.5871  0.4369  0.0720
 6678TIP3    H141525   2.133   5.264   4.396 -1.6424 -0.1482 -2.2167
 6678TIP3    H241526   2.244   5.163   4.418 -0.4682  1.4889 -0.4871
 6679TIP3   OH241527   5.714   3.856  11.151 -0.1659  0.4504  0.5068
 6679TIP3    H141528   5.637   3.818  11.107  0.0712 -1.1896  1.4699
 6679TIP3    H241529   5.751   3.784  11.201  1.2591  1.5698  1.0985
 6680TIP3   OH241530   5.150   0.790  14.027 -0.3513  0.0207 -0.6845
 6680TIP3    H141531   5.070   0.817  14.073 -0.8515  3.0592 -3.1655
 6680TIP3    H241532   5.120   0.766  13.939  1.2742 -0.0743 -1.2341
 6681TIP3   OH241533   2.570   2.213  16.043  0.2851  0.3080  0.3843
 6681TIP3    H141534   2.536   2.275  16.107  0.5339 -0.5079  1.3236
 6681TIP3    H241535   2.616   2.147  16.095 -0.8489 -1.2300 -0.4776
 6682TIP3   OH241536   2.552   1.891  17.108  0.1007 -0.2444  0.3787
 6682TIP3    H141537   2.464   1.904  17.072 -0.3190 -1.2123  1.0174
 6682TIP3    H241538   2.573   1.800  17.089  0.9313 -0.0482  0.3234
 6683TIP3   OH241539   2.912   0.731  11.573 -0.2796  0.3994  0.3060
 6683TIP3    H141540   2.943   0.712  11.484 -1.8023  1.8323 -0.5700
 6683TIP3    H241541   2.937   0.654  11.624 -0.2942 -0.9124 -1.5942
 6684TIP3   OH241542   5.477   4.757   0.222 -0.2876 -0.1952  0.5689
 6684TIP3    H141543   5.451   4.717   0.139 -1.9686  0.1105  0.9254
 6684TIP3    H241544   5.520   4.687   0.270  1.3100 -0.1895 -0.8195
 6685TIP3   OH241545   0.669   1.772   0.884  0.0340 -0.0858  0.6597
 6685TIP3    H141546   0.740   1.752   0.823  1.1141  1.1071  1.5130
 6685TIP3    H241547   0.713   1.792   0.966 -1.3401 -0.0812  1.4061
 6686TIP3   OH241548   0.457   4.001   0.050 -0.1797  0.0290 -0.0097
 6686TIP3    H141549   0.466   4.095   0.065 -1.8691  0.4922 -1.7321
 6686TIP3    H241550   0.413   3.969   0.130  0.0495  0.7650  0.4160
 6687TIP3   OH241551   4.564   6.748  12.453  0.3231 -0.1000  0.4272
 6687TIP3    H141552   4.624   6.721  12.522 -1.8270  1.2410  2.9199
 6687TIP3    H241553   4.600   6.831  12.421  1.5247 -0.9089 -0.3278
 6688TIP3   OH241554   0.473   2.328  14.307 -0.1550 -0.6742 -0.6851
 6688TIP3    H141555   0.550   2.365  14.263  0.6647 -1.0816  0.3828
 6688TIP3    H241556   0.452   2.393  14.375  0.3908 -1.4501  0.2341
 6689TIP3   OH241557   1.176   3.845   3.932 -0.1447  0.6016  0.6193
 6689TIP3    H141558   1.128   3.813   3.855  0.6101  0.2754  0.2759
 6689TIP3    H241559   1.179   3.940   3.920 -0.8411  0.6410  0.7279
 6690TIP3   OH241560   1.000   6.693   4.461 -0.7046 -0.7223 -0.0153
 6690TIP3    H141561   1.070   6.696   4.396 -0.9593 -0.4179 -0.2769
 6690TIP3    H241562   1.042   6.719   4.543 -0.8918  1.1800 -0.5036
 6691TIP3   OH241563   5.376   2.289   5.544 -0.1559  0.3522 -0.1651
 6691TIP3    H141564   5.287   2.256   5.558  0.4057 -0.7463  0.8700
 6691TIP3    H241565   5.381   2.304   5.450 -1.4922  0.5792 -0.2143
 6692TIP3   OH241566   1.105   6.139  11.986 -0.1887  0.0134  0.6227
 6692TIP3    H141567   1.041   6.072  12.009 -1.3707  0.5963 -0.8961
 6692TIP3    H241568   1.140   6.111  11.902 -3.0951  2.9024 -1.7015
 6693TIP3   OH241569   0.263   4.588   0.801 -0.3187 -0.0616  0.1982
 6693TIP3    H141570   0.201   4.532   0.849  0.7274 -1.4193 -0.0085
 6693TIP3    H241571   0.300   4.531   0.734 -1.5460  1.7423 -2.0653
 6694TIP3   OH241572   1.246   0.873  13.052  0.1988  0.1948 -0.3575
 6694TIP3    H141573   1.241   0.778  13.042  2.4624 -0.0789  0.7078
 6694TIP3    H241574   1.168   0.896  13.101 -1.2028 -0.8960 -2.0226
 6695TIP3   OH241575   0.031   3.181  16.430 -0.4263 -0.6869 -0.4051
 6695TIP3    H141576   0.068   3.122  16.365  1.0910  0.2646 -0.4235
 6695TIP3    H241577   0.091   3.255  16.433 -1.5100  0.1808  0.6870
 6696TIP3   OH241578   5.500   1.578  10.759  0.0264  0.0564  0.8805
 6696TIP3    H141579   5.419   1.615  10.724 -0.1572 -0.7846  0.3827
 6696TIP3    H241580   5.506   1.491  10.717  0.6181 -0.3261  1.7516
 6697TIP3   OH241581   5.969   0.309   1.402 -0.2237 -0.5057 -0.0449
 6697TIP3    H141582   5.895   0.261   1.439  0.4053 -1.1082  0.4434
 6697TIP3    H241583   6.037   0.306   1.469  1.2491 -2.3913 -1.5429
 6698TIP3   OH241584   5.461   5.146  15.700 -0.4360  0.0836 -0.2758
 6698TIP3    H141585   5.530   5.188  15.649 -0.2609 -1.3926 -1.2767
 6698TIP3    H241586   5.426   5.216  15.756  1.3193  1.0220 -0.3290
 6699TIP3   OH241587   2.501   4.413   6.209  0.3478 -0.1438  0.1693
 6699TIP3    H141588   2.411   4.379   6.207 -0.1980  1.2712 -1.0881
 6699TIP3    H241589   2.516   4.435   6.301 -1.2180  1.1461  0.1421
 6700TIP3   OH241590   3.438   3.834  10.253  0.2105  0.3858  0.2767
 6700TIP3    H141591   3.398   3.839  10.166 -2.0588 -1.9188  1.1324
 6700TIP3    H241592   3.401   3.909  10.300 -2.3328 -1.0860  0.7061
 6701TIP3   OH241593   4.450   2.049   1.762 -0.5002  0.1529  0.1788
 6701TIP3    H141594   4.363   2.083   1.781  0.3689  2.1814  0.6057
 6701TIP3    H241595   4.469   1.989   1.834 -1.0894  0.5298  0.6480
 6702TIP3   OH241596   2.229   2.335  13.782  0.5247  0.1958  0.4637
 6702TIP3    H141597   2.248   2.402  13.847 -1.1355 -0.4485  1.6503
 6702TIP3    H241598   2.167   2.375  13.723  1.1889  0.4108 -0.0977
 6703TIP3   OH241599   3.964   3.156   6.559 -0.1113  0.4390  0.3283
 6703TIP3    H141600   3.963   3.077   6.614  0.0879  0.6246  0.6039
 6703TIP3    H241601   3.935   3.226   6.618 -1.6007  0.3447 -0.2769
 6704TIP3   OH241602   5.759   6.254  15.485  0.1638  0.0029 -0.4726
 6704TIP3    H141603   5.817   6.188  15.448  1.0329 -0.0131  0.8799
 6704TIP3    H241604   5.737   6.311  15.412  1.8453 -0.0409 -1.0153
 6705TIP3   OH241605   0.682   1.713   1.750 -0.8080 -0.3285 -0.3021
 6705TIP3    H141606   0.645   1.703   1.662 -0.6010 -4.6710 -0.0235
 6705TIP3    H241607   0.777   1.712   1.737 -0.7437  1.8671 -0.2192
 6706TIP3   OH241608   0.632   2.755   6.172  0.3781 -0.3480  0.2533
 6706TIP3    H141609   0.619   2.766   6.078 -0.0171 -3.3012 -0.1010
 6706TIP3    H241610   0.556   2.796   6.212  0.3129  0.5060 -0.7246
 6707TIP3   OH241611   1.582   2.840   5.112 -0.2488  0.1341 -0.4908
 6707TIP3    H141612   1.635   2.866   5.187 -0.1035  1.6110 -1.1092
 6707TIP3    H241613   1.499   2.812   5.151 -0.3476  1.3579  0.1897
 6708TIP3   OH241614   2.625   0.312   2.188  0.5362  0.1617 -0.1435
 6708TIP3    H141615   2.650   0.342   2.275 -0.3271  2.0757 -0.5197
 6708TIP3    H241616   2.573   0.384   2.152  1.2581 -0.4118 -2.4195
 6709TIP3   OH241617   6.368   2.113  11.685  0.8183 -0.1440  0.6234
 6709TIP3    H141618   6.410   2.142  11.604  0.5339 -0.3478  0.4034
 6709TIP3    H241619   6.275   2.131  11.672  1.0956  2.5174  2.0552
 6710TIP3   OH241620   0.022   5.378  15.637 -0.5527  0.4703  0.1882
 6710TIP3    H141621  -0.001   5.325  15.561 -0.5467  0.1432  0.4129
 6710TIP3    H241622  -0.039   5.451  15.636 -2.1702 -0.8387  1.2757
 6711TIP3   OH241623   6.260   4.710   4.159 -0.0241  0.2344 -0.6195
 6711TIP3    H141624   6.339   4.753   4.126 -0.2016  0.5903 -0.5765
 6711TIP3    H241625   6.194   4.727   4.092 -0.1637  0.2526 -0.4776
 6712TIP3   OH241626   1.436   5.620  14.575 -0.0648 -0.5871  0.2874
 6712TIP3    H141627   1.515   5.640  14.525  0.9275 -0.1864  1.9559
 6712TIP3    H241628   1.367   5.670  14.532  1.2601  1.8325  0.8467
 6713TIP3   OH241629   3.863   2.344  14.843 -0.0982  1.1035  0.2296
 6713TIP3    H141630   3.850   2.249  14.849  0.4294  1.0173  0.0682
 6713TIP3    H241631   3.806   2.380  14.911 -2.4904  0.8695 -1.5945
 6714TIP3   OH241632   3.107   2.317  15.086 -0.1218  0.1671 -0.4863
 6714TIP3    H141633   3.073   2.370  15.159  1.1761  0.5822 -0.1605
 6714TIP3    H241634   3.093   2.372  15.009 -0.7314  0.0857 -0.4342
 6715TIP3   OH241635   4.904   2.425   5.888 -0.1581  0.0967  0.5060
 6715TIP3    H141636   4.862   2.405   5.804 -0.5122 -1.8539  1.1238
 6715TIP3    H241637   4.928   2.340   5.924  2.2038  1.0230  1.2747
 6716TIP3   OH241638   4.053   4.887   5.096 -0.4059 -0.0201  0.5429
 6716TIP3    H141639   3.964   4.916   5.118 -0.0080  0.5913  1.4171
 6716TIP3    H241640   4.109   4.941   5.152  0.4265 -1.5762  1.2418
 6717TIP3   OH241641   4.560   3.288   1.994 -0.2240 -0.5945  0.0686
 6717TIP3    H141642   4.517   3.308   2.077 -0.3735 -0.5799 -0.0129
 6717TIP3    H241643   4.502   3.324   1.927  1.6619  2.7225  0.0715
 6718TIP3   OH241644   2.663   4.248  15.251  0.0066  0.1170 -0.3015
 6718TIP3    H141645   2.643   4.162  15.216 -0.3172 -0.1247  0.4722
 6718TIP3    H241646   2.741   4.276  15.203  1.1597 -1.3574  0.6737
 6719TIP3   OH241647   2.115   4.039   4.278  0.2435  0.5895  0.1196
 6719TIP3    H141648   2.146   3.950   4.266  1.3020  0.9400  0.1150
 6719TIP3    H241649   2.102   4.073   4.190  1.6862  1.0421  0.0579
 6720TIP3   OH241650   5.014   2.871   0.558  0.5308  0.3676  0.1869
 6720TIP3    H141651   4.937   2.923   0.577 -0.1635 -0.6939  0.3094
 6720TIP3    H241652   5.058   2.861   0.642 -1.0043 -1.8778  0.7531
 6721TIP3   OH241653   6.292   5.728  11.748 -0.4296  0.4751  0.1181
 6721TIP3    H141654   6.367   5.770  11.706  0.9055 -1.9511 -0.0262
 6721TIP3    H241655   6.257   5.669  11.681 -0.2094 -1.1118  1.3606
 6722TIP3   OH241656   0.937   4.832   0.357  0.3221  0.0376 -0.4587
 6722TIP3    H141657   0.964   4.924   0.349 -0.1025  0.1910 -0.1478
 6722TIP3    H241658   1.016   4.782   0.337  0.2940  0.4595 -1.6546
 6723TIP3   OH241659   2.172   1.982  16.381 -0.1811  0.1350 -0.1117
 6723TIP3    H141660   2.255   2.030  16.390 -0.7028  0.9892  0.2267
 6723TIP3    H241661   2.189   1.918  16.313  0.6400  0.5783 -0.3365
 6724TIP3   OH241662   0.708   2.885   2.754  0.0473 -0.3379  0.5590
 6724TIP3    H141663   0.681   2.910   2.665  0.9484 -3.1706 -0.5423
 6724TIP3    H241664   0.732   2.968   2.795  0.7224  0.9142 -2.2126
 6725TIP3   OH241665   1.961   1.182  12.433  0.6655 -0.4644  0.1194
 6725TIP3    H141666   2.014   1.133  12.370  0.2963 -0.2610 -0.3464
 6725TIP3    H241667   1.877   1.137  12.435  0.7369 -0.5878  0.6181
 6726TIP3   OH241668   6.338   4.260  12.517  0.9300  0.4665 -0.3846
 6726TIP3    H141669   6.352   4.226  12.428 -1.0878 -4.8073  1.0941
 6726TIP3    H241670   6.421   4.244  12.561  0.6616 -0.7433 -0.2833
 6727TIP3   OH241671   0.881   6.527   6.242 -0.2639  0.3056  0.2781
 6727TIP3    H141672   0.937   6.491   6.173  1.6042  0.4387  1.6815
 6727TIP3    H241673   0.862   6.616   6.213  0.3895  0.3157 -0.1501
 6728TIP3   OH241674   3.476   3.026  11.907 -0.1790 -0.2613 -0.3161
 6728TIP3    H141675   3.415   2.992  11.843  0.6739  0.6819 -1.6712
 6728TIP3    H241676   3.533   3.086  11.857  2.9236 -2.3698  0.5154
 6729TIP3   OH241677   6.758   2.265  14.529 -0.5832  0.1470  0.9095
 6729TIP3    H141678   6.703   2.270  14.451  0.6727  1.7896  0.0711
 6729TIP3    H241679   6.818   2.192  14.512 -1.6823 -0.8500  1.2815
 6730TIP3   OH241680   4.847   6.179   3.852  0.2795  0.4263  0.4640
 6730TIP3    H141681   4.895   6.135   3.781  0.2764  0.6981  0.2940
 6730TIP3    H241682   4.846   6.115   3.923  0.9045  0.4185  0.4688
 6731TIP3   OH241683   1.117   0.677   2.953  0.2113  0.5860  0.3028
 6731TIP3    H141684   1.194   0.722   2.988  0.2788 -0.3418  1.4129
 6731TIP3    H241685   1.053   0.683   3.024 -0.5405  0.8840 -0.4079
 6732TIP3   OH241686   2.470   1.697  11.707 -0.0961  0.0296 -0.2393
 6732TIP3    H141687   2.487   1.626  11.769 -0.0884 -1.0869 -1.4912
 6732TIP3    H241688   2.493   1.777  11.754 -0.7476 -0.7564  1.4188
 6733TIP3   OH241689   3.582   3.122  11.617 -0.0773  0.2905 -0.2673
 6733TIP3    H141690   3.489   3.102  11.610 -0.1892  0.4835  0.6187
 6733TIP3    H241691   3.606   3.155  11.530 -0.9806  0.8390 -0.3141
 6734TIP3   OH241692   2.919   5.881  16.355  0.4247  0.3322 -0.1896
 6734TIP3    H141693   2.973   5.896  16.278 -0.1609  0.1582 -0.6397
 6734TIP3    H241694   2.909   5.967  16.395  1.4471  0.2851  0.1784
 6735TIP3   OH241695   0.586   0.700  13.564 -0.0393 -0.8571 -0.3147
 6735TIP3    H141696   0.654   0.731  13.504 -0.5670  1.4411  0.2266
 6735TIP3    H241697   0.568   0.611  13.535  1.7371 -0.7938 -1.7626
 6736TIP3   OH241698   4.018   1.027  13.387  0.4249 -0.4167 -0.0760
 6736TIP3    H141699   3.994   1.006  13.477 -0.9065  0.4430 -0.2199
 6736TIP3    H241700   4.105   0.989  13.376  0.6323 -0.4609  1.5895
 6737TIP3   OH241701   0.196   3.284   2.770  0.1831 -0.1963  0.3195
 6737TIP3    H141702   0.248   3.204   2.772  1.4603  0.5729 -0.7920
 6737TIP3    H241703   0.247   3.347   2.822 -1.6332 -0.5660  2.5793
 6738TIP3   OH241704   2.228   4.523  15.504 -0.3341  0.5886 -0.1107
 6738TIP3    H141705   2.281   4.494  15.579 -3.2321 -2.0898  1.0459
 6738TIP3    H241706   2.155   4.570  15.544  0.0946  2.5385 -1.5591
 6739TIP3   OH241707   5.942   1.386   3.022 -0.2796  0.2226  0.3081
 6739TIP3    H141708   5.975   1.472   3.049 -0.1029 -0.8211  3.5913
 6739TIP3    H241709   5.991   1.324   3.076 -1.8890 -1.8305 -0.5426
 6740TIP3   OH241710   5.475   4.808  12.411  0.0414  0.5761  0.2923
 6740TIP3    H141711   5.508   4.799  12.321 -1.5166  2.8737 -0.5231
 6740TIP3    H241712   5.407   4.741  12.418  1.1228 -0.5681  0.2646
 6741TIP3   OH241713   1.686   1.525   3.255  0.9058 -0.2575 -0.3605
 6741TIP3    H141714   1.675   1.583   3.330 -2.9187 -1.7994  0.4251
 6741TIP3    H241715   1.648   1.573   3.182 -0.3979 -0.9041 -0.1281
 6742TIP3   OH241716   2.455   3.126   3.087  0.1627 -0.1498  0.0078
 6742TIP3    H141717   2.424   3.178   3.161 -0.4891 -1.2663  0.5318
 6742TIP3    H241718   2.454   3.036   3.119  0.0321 -0.6276 -1.3075
 6743TIP3   OH241719   5.598   3.202   0.417 -0.1707  0.1240  0.0349
 6743TIP3    H141720   5.654   3.278   0.434  0.2422 -0.2958  0.5172
 6743TIP3    H241721   5.540   3.232   0.346  2.2434 -0.2346 -2.1534
 6744TIP3   OH241722   0.019   6.666   0.246 -0.2930 -0.6715 -0.1642
 6744TIP3    H141723   0.104   6.628   0.269 -0.5433 -1.7236 -0.9860
 6744TIP3    H241724   0.031   6.701   0.158 -0.4964 -0.1393  0.0150
 6745TIP3   OH241725   0.224   3.728   2.575  0.3248 -0.2732  0.5739
 6745TIP3    H141726   0.296   3.738   2.638  1.2430 -1.3685 -0.2717
 6745TIP3    H241727   0.209   3.816   2.541  1.8780 -0.1745  0.1138
 6746TIP3   OH241728   0.061   5.193   4.390  0.4651 -0.2310  0.0201
 6746TIP3    H141729   0.006   5.271   4.397  0.2429 -0.2652 -1.2582
 6746TIP3    H241730   0.041   5.157   4.303  1.0766 -1.3197  0.3186
 6747TIP3   OH241731   2.282   5.290  14.574  0.0166 -0.0999 -0.7122
 6747TIP3    H141732   2.326   5.362  14.620  1.0648 -0.9538 -0.3534
 6747TIP3    H241733   2.314   5.297  14.483 -0.3047  0.2214 -0.7995
 6748TIP3   OH241734   4.379   6.155  17.031  0.3806 -0.1629 -0.1570
 6748TIP3    H141735   4.471   6.132  17.046  1.2583  2.5824 -0.9311
 6748TIP3    H241736   4.381   6.208  16.952 -1.9276 -0.2211 -0.2795
 6749TIP3   OH241737   4.923   5.515  12.274 -0.0350  0.3875 -0.4273
 6749TIP3    H141738   5.002   5.545  12.318 -0.3471 -0.0297  0.4359
 6749TIP3    H241739   4.911   5.425  12.304 -0.8370  0.4475 -0.5398
 6750TIP3   OH241740   2.770   6.350  15.726 -0.0910 -0.6321  0.8513
 6750TIP3    H141741   2.753   6.256  15.725  0.2444 -0.6875  0.1119
 6750TIP3    H241742   2.862   6.357  15.749 -0.4284 -0.4321  2.1696
 6751TIP3   OH241743   1.309   2.844   3.741  0.3557  0.3557  0.0982
 6751TIP3    H141744   1.399   2.861   3.769  0.2162  0.8021  0.2770
 6751TIP3    H241745   1.315   2.764   3.688  1.4420  2.3442 -2.9456
 6752TIP3   OH241746   2.864   4.320  15.060  0.2800 -0.0159 -0.1713
 6752TIP3    H141747   2.942   4.316  15.005  0.8973 -2.6418  0.8236
 6752TIP3    H241748   2.794   4.282  15.006 -0.5415  3.0318 -1.3433
 6753TIP3   OH241749   0.233   3.693   0.979 -0.6423  0.3532 -0.1991
 6753TIP3    H141750   0.212   3.749   1.053 -1.1667 -0.4187  0.2395
 6753TIP3    H241751   0.195   3.737   0.903  1.7525  2.2543 -0.3517
 6754TIP3   OH241752   4.773   4.401  14.800  0.2152 -0.5731 -0.1777
 6754TIP3    H141753   4.766   4.475  14.861 -2.9773 -0.1918 -0.9513
 6754TIP3    H241754   4.782   4.443  14.714  2.4686 -1.1286 -0.2614
 6755TIP3   OH241755   0.023   5.950  14.303  0.2072 -0.9667  0.7091
 6755TIP3    H141756  -0.058   5.929  14.350  0.5937  0.3419  2.0236
 6755TIP3    H241757   0.091   5.944  14.370  1.0512 -1.0373 -0.1478
 6756TIP3   OH241758   4.819   4.320   2.019  0.2013  0.4048  0.6069
 6756TIP3    H141759   4.797   4.256   2.087 -0.1706 -0.0979  0.0122
 6756TIP3    H241760   4.809   4.273   1.937  0.3273  1.1124  0.1810
 6757TIP3   OH241761   5.786   0.984  14.443  0.3551 -0.6061 -0.2125
 6757TIP3    H141762   5.782   0.947  14.531  0.1411 -0.8555 -0.3241
 6757TIP3    H241763   5.844   1.059  14.451  0.5493 -0.7849  0.0852
 6758TIP3   OH241764   2.406   3.438   6.185  0.4813 -0.3387  0.3482
 6758TIP3    H141765   2.326   3.489   6.197  0.5906  0.3491 -1.6405
 6758TIP3    H241766   2.376   3.348   6.180 -0.2653 -0.0409 -0.9280
 6759TIP3   OH241767   4.077   3.595   1.350 -0.0651 -0.2008 -0.6122
 6759TIP3    H141768   4.054   3.659   1.283  0.0987  0.2899 -0.2021
 6759TIP3    H241769   4.101   3.516   1.301  0.2548  0.2208 -1.1365
 6760TIP3   OH241770   0.605   4.119  15.910  0.6336 -0.6996 -0.5367
 6760TIP3    H141771   0.620   4.025  15.919  1.4662 -0.4156  1.3349
 6760TIP3    H241772   0.692   4.158  15.918 -0.0898  0.4569  2.3958
 6761TIP3   OH241773   6.140   2.794  16.710 -0.1693  0.5318 -0.4546
 6761TIP3    H141774   6.049   2.804  16.681 -0.8527 -0.8049  1.1048
 6761TIP3    H241775   6.151   2.699  16.721  1.5556  0.6530 -1.0415
 6762TIP3   OH241776   2.392   1.236  12.347 -0.1083 -0.4972  0.1668
 6762TIP3    H141777   2.301   1.239  12.377 -0.0322 -2.4711  0.6119
 6762TIP3    H241778   2.438   1.187  12.415  1.2910  0.4488 -0.0798
 6763TIP3   OH241779   0.821   0.069  16.321  0.0225 -0.3201 -0.2620
 6763TIP3    H141780   0.856   0.035  16.403  1.4180  2.5288  0.3868
 6763TIP3    H241781   0.894   0.061  16.259 -0.9877 -2.3499 -1.2271
 6764TIP3   OH241782   6.697   5.890  13.771 -0.0942 -0.3356 -0.2933
 6764TIP3    H141783   6.604   5.886  13.792 -0.4277 -2.7356 -1.9945
 6764TIP3    H241784   6.738   5.829  13.833  0.4058  0.9547  0.6637
 6765TIP3   OH241785   2.602   3.638   4.448  0.3421 -0.6162 -0.2762
 6765TIP3    H141786   2.506   3.631   4.444  0.3751 -1.0523 -0.3735
 6765TIP3    H241787   2.619   3.731   4.463 -0.1695 -0.9005  2.1820
 6766TIP3   OH241788   4.274   5.128   6.246  0.0996 -0.2255 -0.0470
 6766TIP3    H141789   4.296   5.180   6.323 -2.2289 -3.6019  3.0375
 6766TIP3    H241790   4.358   5.104   6.208  1.3559  0.0471  2.4548
 6767TIP3   OH241791   0.881   0.056   0.560  0.5428 -0.2295  0.4927
 6767TIP3    H141792   0.923   0.049   0.474 -0.0601 -2.8445  0.3521
 6767TIP3    H241793   0.857   0.148   0.568  2.6290  0.5144 -1.1623
 6768TIP3   OH241794   3.285   5.712   4.646  0.4698 -0.8431 -0.0490
 6768TIP3    H141795   3.364   5.679   4.688  1.0462 -1.6044 -1.7033
 6768TIP3    H241796   3.317   5.771   4.578 -0.4465  0.2594  0.4675
 6769TIP3   OH241797   1.687   1.635  12.281 -0.0639 -0.8542 -0.4734
 6769TIP3    H141798   1.624   1.608  12.348  1.5352  0.2338  1.5158
 6769TIP3    H241799   1.731   1.554  12.256 -0.0267 -1.1445  0.4898
 6770TIP3   OH241800   1.316   1.503  14.012 -0.4151 -0.3305  0.3184
 6770TIP3    H141801   1.283   1.420  14.046 -0.3549 -0.1502  0.8289
 6770TIP3    H241802   1.238   1.556  13.999 -0.4962 -0.6477 -0.5042
 6771TIP3   OH241803   5.002   0.737  12.637 -0.4407 -0.5584 -0.2778
 6771TIP3    H141804   4.961   0.708  12.718  1.5922  0.0169  1.0099
 6771TIP3    H241805   4.982   0.669  12.573 -0.6572 -1.8586  1.1637
 6772TIP3   OH241806   1.259   1.423  11.774 -0.2154 -0.0557  0.7200
 6772TIP3    H141807   1.231   1.333  11.791  1.4628 -0.2385  2.6222
 6772TIP3    H241808   1.263   1.465  11.860  1.1481  1.1974  0.0794
 6773TIP3   OH241809   5.860   1.038  11.391 -0.2572  0.5673 -0.3753
 6773TIP3    H141810   5.775   0.996  11.374  0.3682 -0.5581 -0.7470
 6773TIP3    H241811   5.837   1.123  11.430 -1.5941  1.0019 -2.0235
 6774TIP3   OH241812   0.996   0.815   2.724 -0.1274 -0.2647 -0.2777
 6774TIP3    H141813   1.041   0.764   2.792  0.0403 -1.7048 -1.4569
 6774TIP3    H241814   1.043   0.794   2.643  0.5095  2.4379 -0.6690
 6775TIP3   OH241815   4.694   5.826   2.005 -0.2422  0.5980  0.2860
 6775TIP3    H141816   4.641   5.900   2.037  0.5750  2.0241 -1.5697
 6775TIP3    H241817   4.732   5.858   1.923 -2.0285 -2.8235 -2.0026
 6776TIP3   OH241818   3.951   0.736  14.052  0.4008 -0.9832  0.1254
 6776TIP3    H141819   3.886   0.764  14.117  0.3979  2.4883 -1.2408
 6776TIP3    H241820   3.925   0.647  14.028 -1.9124 -0.8674  1.9859
 6777TIP3   OH241821   5.659   5.256  13.098 -0.2630  0.4450  0.3138
 6777TIP3    H141822   5.625   5.222  13.181 -1.2137 -0.5049 -0.4566
 6777TIP3    H241823   5.748   5.220  13.093 -0.6708 -0.5787  0.3020
 6778TIP3   OH241824   3.991   3.562  11.739 -0.0996  0.7080  0.4289
 6778TIP3    H141825   4.027   3.475  11.723 -0.8258  0.4318  0.2776
 6778TIP3    H241826   3.967   3.594  11.652  0.1396  1.0429  0.4870
 6779TIP3   OH241827   5.614   6.815  14.126 -0.2040  0.9834  0.6377
 6779TIP3    H141828   5.560   6.869  14.183 -2.2391  0.6819 -0.9230
 6779TIP3    H241829   5.560   6.739  14.106  0.6284  0.8637 -1.3121
 6780TIP3   OH241830   5.546   1.481  11.471 -0.9320  0.3687  0.1086
 6780TIP3    H141831   5.626   1.528  11.497 -1.4129  0.3196  1.7207
 6780TIP3    H241832   5.492   1.548  11.429 -0.6584  0.7433  0.3414
 6781TIP3   OH241833   2.005   3.012   3.752 -0.2059 -0.4421  0.3555
 6781TIP3    H141834   2.091   2.971   3.767  0.0573  0.2006  0.6237
 6781TIP3    H241835   1.992   3.069   3.828  0.2702  1.3831 -0.9075
 6782TIP3   OH241836   0.099   6.748   3.954  0.4215 -0.6764  0.1958
 6782TIP3    H141837   0.180   6.789   3.923  1.0832 -1.1303  1.2784
 6782TIP3    H241838   0.123   6.656   3.967 -0.5515 -1.0318 -0.4487
 6783TIP3   OH241839   6.145   0.688   0.625 -0.3901  0.4355  0.1067
 6783TIP3    H141840   6.121   0.778   0.604 -1.6709  0.4260  1.4137
 6783TIP3    H241841   6.068   0.637   0.601  1.1135 -0.6334 -2.6508
 6784TIP3   OH241842   4.987   1.952   0.507 -0.2006 -0.5429  0.0934
 6784TIP3    H141843   5.034   1.929   0.587  0.5191 -1.8041 -0.6744
 6784TIP3    H241844   4.974   2.046   0.513  0.1979 -0.5623  1.5063
 6785TIP3   OH241845   2.453   6.633  13.899  0.4014  0.3643 -0.3737
 6785TIP3    H141846   2.429   6.570  13.966  1.1422  1.4163  0.8881
 6785TIP3    H241847   2.438   6.718  13.939  0.8478  1.0089 -1.5428
 6786TIP3   OH241848   0.266   4.527   5.375 -0.2208 -0.4464  0.1284
 6786TIP3    H141849   0.322   4.510   5.450  1.0883  2.2284 -0.1887
 6786TIP3    H241850   0.193   4.578   5.411 -0.0222  0.1245 -0.2785
 6787TIP3   OH241851   3.580   5.675   5.647 -0.2235 -0.6666 -0.1296
 6787TIP3    H141852   3.549   5.600   5.597  0.4636 -0.5934 -0.6645
 6787TIP3    H241853   3.529   5.749   5.612 -1.5315 -1.0052  0.9959
 6788TIP3   OH241854   1.610   0.304   5.093  0.2326 -0.1621  0.2954
 6788TIP3    H141855   1.558   0.363   5.039  0.6588  0.1338  0.1996
 6788TIP3    H241856   1.596   0.218   5.055  1.1715  0.1512 -0.8120
 6789TIP3   OH241857   5.367   1.303  15.330 -0.1016 -0.1404  0.2397
 6789TIP3    H141858   5.432   1.275  15.266  1.9387  0.9699  1.7323
 6789TIP3    H241859   5.326   1.380  15.291  0.0528 -0.3668 -0.3762
 6790TIP3   OH241860   2.209   1.962   4.698  0.8071 -0.1585 -0.2910
 6790TIP3    H141861   2.225   2.056   4.702 -1.2924  0.3332 -2.3461
 6790TIP3    H241862   2.284   1.928   4.648  0.3050  0.8085 -1.7514
 6791TIP3   OH241863   3.323   6.355  16.653  0.0221 -0.1465 -0.1706
 6791TIP3    H141864   3.403   6.334  16.604 -0.3162  2.0196 -1.7064
 6791TIP3    H241865   3.252   6.336  16.593 -0.5614 -0.5308  0.6329
 6792TIP3   OH241866   4.152   3.908   0.418  0.3267 -0.2520 -0.1238
 6792TIP3    H141867   4.204   3.967   0.473 -0.1327 -0.1933  0.2566
 6792TIP3    H241868   4.096   3.862   0.480  0.5533 -0.9560 -0.4408
 6793TIP3   OH241869   3.552   0.118  13.715  0.1699 -0.1476 -0.4439
 6793TIP3    H141870   3.548   0.030  13.751 -0.5844 -0.3356 -0.9728
 6793TIP3    H241871   3.509   0.111  13.629  0.7559  0.5729 -0.8031
 6794TIP3   OH241872   0.975   4.630  15.583 -0.8057  0.8696 -0.0312
 6794TIP3    H141873   1.030   4.665  15.513  0.7724 -0.1785  0.6768
 6794TIP3    H241874   1.035   4.583  15.641 -2.8532 -3.2046 -1.0462
 6795TIP3   OH241875   4.626   6.061  12.039 -1.1307  0.6074 -0.2847
 6795TIP3    H141876   4.538   6.091  12.061 -1.0014  1.1628 -0.5252
 6795TIP3    H241877   4.682   6.097  12.107 -1.0449  0.5061 -0.3012
 6796TIP3   OH241878   4.123   3.124   2.432  0.0491  0.2307 -0.8225
 6796TIP3    H141879   4.037   3.131   2.390 -0.3174 -4.3148 -1.0586
 6796TIP3    H241880   4.106   3.145   2.524 -1.3435 -0.5731 -0.8761
 6797TIP3   OH241881   0.416   4.448   0.619 -0.7463 -0.0791  0.1186
 6797TIP3    H141882   0.493   4.425   0.672 -0.6438 -2.8208 -1.1191
 6797TIP3    H241883   0.451   4.459   0.531 -1.2936  1.9626  0.1516
 6798TIP3   OH241884   4.130   1.521   1.068  0.1980 -0.3423  0.5396
 6798TIP3    H141885   4.197   1.459   1.094  0.1783  0.4376  2.5296
 6798TIP3    H241886   4.081   1.476   0.999  1.4717 -1.7065  0.5082
 6799TIP3   OH241887   5.806   2.943  15.026  0.5279 -0.1280 -0.2865
 6799TIP3    H141888   5.861   2.885  14.972 -0.2191 -1.2541  0.1488
 6799TIP3    H241889   5.763   3.001  14.963  1.7415  0.3662 -0.6804
 6800TIP3   OH241890   6.250   3.802   6.561 -0.2682  0.1792 -0.1108
 6800TIP3    H141891   6.240   3.892   6.529 -0.2523  1.1374  2.5185
 6800TIP3    H241892   6.161   3.766   6.559 -0.8136  1.3567  1.9809
 6801TIP3   OH241893   6.752   6.025   0.981 -0.1331 -0.2234  0.0843
 6801TIP3    H141894   6.803   5.951   0.949  2.5050  0.9469  1.4356
 6801TIP3    H241895   6.664   6.010   0.946  0.7346 -3.0958 -1.0389
 6802TIP3   OH241896   4.281   1.000   2.112  0.2152  0.0541 -0.0850
 6802TIP3    H141897   4.335   0.934   2.068  0.0694 -0.8176  1.0389
 6802TIP3    H241898   4.223   1.032   2.043 -0.7780 -2.1152 -0.3140
 6803TIP3   OH241899   0.722   4.414   1.734 -0.2297  0.0257  0.3347
 6803TIP3    H141900   0.644   4.383   1.688 -0.4152  1.5963 -0.4480
 6803TIP3    H241901   0.775   4.335   1.747 -1.1640 -0.7867 -0.6683
 6804TIP3   OH241902   3.616   3.759   3.382  0.3300 -0.2163  0.0149
 6804TIP3    H141903   3.580   3.697   3.445 -1.6539  0.4739 -0.4207
 6804TIP3    H241904   3.620   3.709   3.300 -0.5875  0.0025 -0.1679
 6805TIP3   OH241905   4.563   0.996  13.141  0.2243  0.3694  0.4648
 6805TIP3    H141906   4.477   1.036  13.134 -1.0678 -2.0198  2.0316
 6805TIP3    H241907   4.597   1.024  13.225  1.2881  1.8276 -0.4264
 6806TIP3   OH241908   5.563   1.816  10.851  0.1810  0.6140  0.7200
 6806TIP3    H141909   5.528   1.728  10.842  1.4981  0.1708 -0.3562
 6806TIP3    H241910   5.577   1.845  10.760  1.7186  1.1072  1.0989
 6807TIP3   OH241911   3.157   4.929  15.075  0.6812  0.1898 -0.0262
 6807TIP3    H141912   3.164   4.993  15.005 -0.2212 -0.3957 -0.6595
 6807TIP3    H241913   3.079   4.877  15.053 -0.8160  1.2922  2.4519
 6808TIP3   OH241914   1.443   2.773   2.615  0.1493  0.0892 -0.2065
 6808TIP3    H141915   1.444   2.685   2.652 -1.9772  0.3052  0.4007
 6808TIP3    H241916   1.350   2.797   2.610  0.7584  2.8902  1.0357
 6809TIP3   OH241917   1.760   3.900   5.306 -0.3081 -0.0239  0.3375
 6809TIP3    H141918   1.767   3.991   5.276  1.0779 -0.4692 -0.7369
 6809TIP3    H241919   1.694   3.903   5.376 -1.4904  1.5127 -0.8166
 6810TIP3   OH241920   0.530   0.782   0.983 -0.3291 -0.0518 -0.4290
 6810TIP3    H141921   0.604   0.721   0.977  1.0228  1.5390 -0.5137
 6810TIP3    H241922   0.454   0.727   0.998  0.8708 -1.7491 -0.4570
 6811TIP3   OH241923   1.095   3.595  11.235  0.5299  0.4310 -0.1227
 6811TIP3    H141924   1.104   3.512  11.283 -0.6759  0.7915  0.7421
 6811TIP3    H241925   1.166   3.593  11.171  0.9156 -0.9789  0.3293
 6812TIP3   OH241926   3.073   2.338  13.056 -0.4096 -0.3506 -0.2032
 6812TIP3    H141927   3.114   2.422  13.074 -0.9553 -0.2820  0.7169
 6812TIP3    H241928   3.132   2.274  13.096 -0.3853 -0.3575 -0.2506
 6813TIP3   OH241929   1.033   2.789   5.847  0.2399  0.1163 -0.0874
 6813TIP3    H141930   0.948   2.829   5.828  0.5181  0.7265 -0.0672
 6813TIP3    H241931   1.018   2.735   5.924  0.0669  0.8884  0.4201
 6814TIP3   OH241932   6.058   2.988  11.370  0.6073 -0.2610  0.3284
 6814TIP3    H141933   6.140   3.037  11.364  0.6111 -0.1913  0.8892
 6814TIP3    H241934   6.064   2.943  11.455  0.4101 -0.8734  0.0212
 6815TIP3   OH241935   5.015   2.450  15.373  0.6215 -0.4253 -0.2264
 6815TIP3    H141936   4.953   2.389  15.332  0.3084 -0.1773 -0.1328
 6815TIP3    H241937   4.959   2.518  15.412  1.0256  1.7255 -3.1825
 6816TIP3   OH241938   1.988   3.919  14.885  0.1589 -0.2118  0.0424
 6816TIP3    H141939   1.947   3.988  14.938 -0.3934 -0.0184 -0.6245
 6816TIP3    H241940   1.916   3.881  14.835  0.6153 -0.6319 -0.3046
 6817TIP3   OH241941   0.508   0.886   2.671 -0.2899  0.1302  0.0134
 6817TIP3    H141942   0.500   0.827   2.597 -1.0742  0.3933 -0.1154
 6817TIP3    H241943   0.556   0.962   2.636 -1.1254  0.4875 -0.3666
 6818TIP3   OH241944   2.635   1.082  12.769 -0.7330  0.2998  0.5119
 6818TIP3    H141945   2.602   1.015  12.828  0.6314 -1.0248 -0.1741
 6818TIP3    H241946   2.637   1.039  12.683 -2.5975  2.1560 -0.4975
 6819TIP3   OH241947   6.460   4.326  13.549 -0.3168 -0.0456 -0.3286
 6819TIP3    H141948   6.416   4.312  13.465 -1.1717 -1.6829  0.3660
 6819TIP3    H241949   6.533   4.263  13.548 -0.4473 -0.2091  0.2232
 6820TIP3   OH241950   5.172   3.593   1.312  0.2078  0.1677 -0.4362
 6820TIP3    H141951   5.249   3.611   1.259 -0.3378  2.7857 -0.3712
 6820TIP3    H241952   5.137   3.511   1.276  1.0042  0.8158 -2.7338
 6821TIP3   OH241953   0.148   5.122   2.763 -0.2877  0.4043 -0.8973
 6821TIP3    H141954   0.220   5.097   2.706 -1.8104 -0.7857 -2.3649
 6821TIP3    H241955   0.078   5.061   2.741 -1.2712  0.5952  1.5235
 6822TIP3   OH241956   4.606   0.649   4.084  0.0432  0.4251  0.2775
 6822TIP3    H141957   4.700   0.635   4.077 -0.3528 -2.5433  0.1063
 6822TIP3    H241958   4.594   0.701   4.163  1.7232 -0.3581  1.0501
 6823TIP3   OH241959   1.687   2.763  12.690  0.2882 -0.2782 -0.1314
 6823TIP3    H141960   1.688   2.667  12.684  0.0397 -0.2513 -0.6038
 6823TIP3    H241961   1.594   2.787  12.683  0.3993  0.0314 -0.5447
 6824TIP3   OH241962   0.048   0.499   2.884  0.1786  0.4873  0.1811
 6824TIP3    H141963  -0.017   0.562   2.914 -0.9272 -0.9056  0.7776
 6824TIP3    H241964   0.010   0.460   2.805  0.6711  0.2745  0.0472
 6825TIP3   OH241965   1.835   1.851   6.490  0.7681  0.5595  0.0512
 6825TIP3    H141966   1.775   1.891   6.553  1.1815  1.0845  0.1133
 6825TIP3    H241967   1.850   1.763   6.524 -0.6573  0.1127 -0.4328
 6826TIP3   OH241968   4.429   6.670   1.608  0.3800 -0.0275  0.3116
 6826TIP3    H141969   4.398   6.757   1.580  0.3577  0.0519  0.5832
 6826TIP3    H241970   4.368   6.644   1.677 -0.4713 -0.8749 -0.7305
 6827TIP3   OH241971   1.552   6.706  13.902  0.8827 -0.1261 -0.3078
 6827TIP3    H141972   1.599   6.789  13.905 -1.5723  1.2559  0.8774
 6827TIP3    H241973   1.499   6.711  13.822  0.3892 -0.3737  0.0041
 6828TIP3   OH241974   5.460   6.409   3.454  0.1774 -0.5125 -0.0338
 6828TIP3    H141975   5.529   6.453   3.404 -0.5410 -1.3698 -1.8571
 6828TIP3    H241976   5.423   6.476   3.510  0.7530  0.5983 -0.9624
 6829TIP3   OH241977   4.002   0.434  11.344 -0.2868 -0.1298 -0.2027
 6829TIP3    H141978   4.039   0.479  11.420  1.3085 -1.3801 -0.2087
 6829TIP3    H241979   4.011   0.497  11.272 -1.1443  0.7858  0.4772
 6830TIP3   OH241980   0.242   5.934   5.620  0.0444 -0.3919 -0.4164
 6830TIP3    H141981   0.201   5.863   5.572  1.2381 -0.2961 -1.5901
 6830TIP3    H241982   0.291   5.891   5.690  0.0107 -0.6610 -0.5591
 6831TIP3   OH241983   4.173   3.636   4.489  0.2090  0.8885  0.2510
 6831TIP3    H141984   4.202   3.579   4.560  0.5569  1.0081  0.2058
 6831TIP3    H241985   4.250   3.687   4.466  0.5364 -0.2511 -1.2863
 6832TIP3   OH241986   1.940   4.614   2.871  0.9296  0.0658  0.1254
 6832TIP3    H141987   1.865   4.609   2.931  0.5427  0.7923 -0.2781
 6832TIP3    H241988   2.015   4.632   2.928  1.3093 -3.4585  0.8521
 6833TIP3   OH241989   2.872   4.457  16.068  0.4090 -0.4048  0.1308
 6833TIP3    H141990   2.879   4.390  16.136  2.6985 -0.3670 -0.0282
 6833TIP3    H241991   2.890   4.411  15.986 -2.7563 -0.5376 -0.5888
 6834TIP3   OH241992   3.895   4.426  10.556 -0.3389 -0.6981  0.4216
 6834TIP3    H141993   3.813   4.473  10.571  0.0117  0.4713 -1.2267
 6834TIP3    H241994   3.959   4.495  10.538  0.6938 -1.6876  0.2548
 6835TIP3   OH241995   1.915   3.363   4.774 -0.3591  0.0722  0.0712
 6835TIP3    H141996   1.967   3.362   4.854 -0.4587  0.9843  0.1519
 6835TIP3    H241997   1.971   3.319   4.709 -0.5981 -1.3658  0.8214
 6836TIP3   OH241998   0.945   4.901  12.799  0.2590  0.4688  0.0402
 6836TIP3    H141999   1.007   4.834  12.768 -1.4149 -1.8066  1.4325
 6836TIP3    H242000   0.895   4.925  12.721 -0.8537 -1.8443 -0.0070
 6837TIP3   OH242001   0.278   1.881  14.705  0.4081  0.4428  0.9038
 6837TIP3    H142002   0.306   1.807  14.651  1.3050  0.9414  0.6760
 6837TIP3    H242003   0.184   1.867  14.718  0.0213  0.7300 -1.4241
 6838TIP3   OH242004   5.248   0.228   6.163  0.0954  0.0978  0.1064
 6838TIP3    H142005   5.258   0.323   6.151 -3.3114  0.7621  1.6770
 6838TIP3    H242006   5.271   0.213   6.255  0.4716 -0.5509 -0.0966
 6839TIP3   OH242007   3.706   2.848   3.707  0.1849  0.2396 -0.4578
 6839TIP3    H142008   3.764   2.782   3.668 -1.1112  0.0175 -2.0612
 6839TIP3    H242009   3.643   2.868   3.639 -0.8113  1.5020  0.7959
 6840TIP3   OH242010   3.941   4.595  10.836 -0.2326  0.8741 -0.3030
 6840TIP3    H142011   4.033   4.623  10.846  0.2016  0.0369 -1.8429
 6840TIP3    H242012   3.904   4.658  10.774 -0.3647  0.4584 -0.6433
 6841TIP3   OH242013   1.088   2.242  15.026  0.3498  0.3411  0.0339
 6841TIP3    H142014   1.001   2.253  15.066  1.1244  0.5900  1.6511
 6841TIP3    H242015   1.105   2.148  15.031  0.5294  0.3962  0.4687
 6842TIP3   OH242016   5.250   5.827  15.351  0.0152 -0.3676 -0.0307
 6842TIP3    H142017   5.244   5.922  15.341 -2.4752 -0.5294 -0.3939
 6842TIP3    H242018   5.251   5.793  15.262  1.2345 -0.6648  0.0965
 6843TIP3   OH242019   0.522   5.935   5.457 -0.4504 -0.1149  0.3759
 6843TIP3    H142020   0.446   5.986   5.482  0.4583  0.0097  3.0443
 6843TIP3    H242021   0.584   5.946   5.529  1.0182 -2.4289 -0.4432
 6844TIP3   OH242022   0.287   3.323  13.377  0.5109  0.7574 -0.3768
 6844TIP3    H142023   0.287   3.363  13.290  0.8237 -1.6141 -1.5126
 6844TIP3    H242024   0.261   3.394  13.436  0.1264  2.3652 -2.4097
 6845TIP3   OH242025   2.756   3.333  11.225 -0.1495  0.1824 -0.3055
 6845TIP3    H142026   2.698   3.270  11.269 -0.0211  0.5627  0.4221
 6845TIP3    H242027   2.829   3.343  11.285 -0.4809  1.5221 -0.1225
 6846TIP3   OH242028   2.396   1.112   4.711 -0.0210 -0.3364 -0.5079
 6846TIP3    H142029   2.351   1.161   4.642 -0.7202 -2.0352 -1.3003
 6846TIP3    H242030   2.479   1.086   4.671  1.2232  1.8777  0.5875
 6847TIP3   OH242031   4.787   3.389   2.228  0.2238 -0.1870 -0.7081
 6847TIP3    H142032   4.743   3.442   2.294 -0.3310 -2.1036  0.5251
 6847TIP3    H242033   4.786   3.442   2.149 -3.4943  0.2085 -0.4839
 6848TIP3   OH242034   1.281   1.410  11.219 -0.0473  0.3739 -0.1033
 6848TIP3    H142035   1.339   1.400  11.295  0.3297 -1.1697 -0.5832
 6848TIP3    H242036   1.323   1.361  11.149 -0.8519  1.0370 -1.0736
 6849TIP3   OH242037   4.642   5.462  12.974 -0.0103 -0.4203 -0.0546
 6849TIP3    H142038   4.644   5.411  13.055 -0.6032  0.4442  0.5244
 6849TIP3    H242039   4.587   5.412  12.915  0.5727 -1.1487  0.0200
 6850TIP3   OH242040   4.102   0.517   1.218  0.2932  0.7431  0.7876
 6850TIP3    H142041   4.139   0.481   1.137  0.0197  0.0658  0.9612
 6850TIP3    H242042   4.168   0.578   1.249 -0.2047  2.0680 -0.7001
 6851TIP3   OH242043   0.045   3.149  17.214 -0.0343 -0.1465  0.2065
 6851TIP3    H142044   0.038   3.197  17.296  0.6025  1.0874 -0.4575
 6851TIP3    H242045   0.085   3.066  17.238 -1.3412 -0.4437  1.3899
 6852TIP3   OH242046   3.396   4.429   1.253 -0.2651 -0.3140  0.4331
 6852TIP3    H142047   3.441   4.370   1.314  0.4490  0.2513  0.4627
 6852TIP3    H242048   3.426   4.402   1.166 -0.3477 -0.3444  0.4150
 6853TIP3   OH242049   4.444   3.948  16.627 -0.9334  0.1994 -0.4857
 6853TIP3    H142050   4.491   3.927  16.707 -4.0856 -1.2800  1.0688
 6853TIP3    H242051   4.441   3.866  16.578 -0.5638  0.6568 -1.2818
 6854TIP3   OH242052   1.441   5.924  11.337 -0.0312  0.0008 -0.1891
 6854TIP3    H142053   1.420   6.018  11.339  0.4592  0.1192 -0.4312
 6854TIP3    H242054   1.357   5.881  11.326 -0.2182  0.4349 -0.4901
 6855TIP3   OH242055   4.229   3.912   5.633 -0.5668 -0.2902  0.0959
 6855TIP3    H142056   4.311   3.950   5.666 -0.7477 -0.4391  0.7025
 6855TIP3    H242057   4.258   3.838   5.579 -0.3193 -0.6543  0.7148
 6856TIP3   OH242058   1.893   6.454   0.258 -0.2352  0.3587  0.2788
 6856TIP3    H142059   1.920   6.446   0.167  0.4344 -0.2237  0.5213
 6856TIP3    H242060   1.878   6.548   0.271  0.8311  0.5834 -0.0968
 6857TIP3   OH242061   3.260   4.046  14.682 -0.4469 -0.1875 -0.3750
 6857TIP3    H142062   3.198   4.083  14.744 -0.2197  1.1981 -0.9563
 6857TIP3    H242063   3.206   4.004  14.615 -0.8001  1.5759 -1.2298
 6858TIP3   OH242064   2.137   0.014  15.546 -0.2035  0.0724 -0.0244
 6858TIP3    H142065   2.180  -0.006  15.630  2.5276  0.0664 -1.3690
 6858TIP3    H242066   2.125   0.109  15.546 -0.9916 -0.0178  0.7071
 6859TIP3   OH242067   1.155   6.690   3.369 -0.5596 -0.4172 -0.0572
 6859TIP3    H142068   1.067   6.727   3.371 -0.8812 -1.1995  1.6583
 6859TIP3    H242069   1.187   6.699   3.459  0.7824 -0.9194 -0.4614
 6860TIP3   OH242070   1.470   2.121  15.277 -0.0075 -0.3086 -0.1700
 6860TIP3    H142071   1.529   2.082  15.342  0.0433 -0.1275 -0.1085
 6860TIP3    H242072   1.497   2.081  15.194  0.5310  0.1520 -0.2178
 6861TIP3   OH242073   1.673   0.586  11.597  0.0529  0.2502  0.3026
 6861TIP3    H142074   1.635   0.674  11.599 -0.6667 -0.0748  1.4531
 6861TIP3    H242075   1.640   0.544  11.676  2.2999 -0.2510  1.0302
 6862TIP3   OH242076   5.167   5.688  10.720 -0.0733 -0.2035  0.4662
 6862TIP3    H142077   5.260   5.695  10.742  0.4491 -2.3406 -0.8338
 6862TIP3    H242078   5.157   5.739  10.639 -0.0054 -0.0091  0.5832
 6863TIP3   OH242079   3.951   5.022   0.189  0.2324 -0.0407 -1.1886
 6863TIP3    H142080   3.913   5.002   0.103  0.0021 -0.7689 -0.9193
 6863TIP3    H242081   3.879   5.064   0.238  0.2667  0.0772 -1.2383
 6864TIP3   OH242082   4.638   3.395  13.890 -0.2557 -0.0085 -0.0276
 6864TIP3    H142083   4.688   3.355  13.818  0.5428  3.0781 -1.2420
 6864TIP3    H242084   4.686   3.371  13.969  1.7967  0.8973 -0.9739
 6865TIP3   OH242085   4.295   2.817  10.095 -0.6781  0.5512  0.7982
 6865TIP3    H142086   4.255   2.734  10.119 -0.4879  0.0075 -0.7226
 6865TIP3    H242087   4.224   2.868  10.057 -0.8282  1.1587  1.8644
 6866TIP3   OH242088   5.789   4.073   5.822 -0.0662  0.0950  0.2896
 6866TIP3    H142089   5.720   4.062   5.888 -0.1642  1.6028  0.4575
 6866TIP3    H242090   5.750   4.129   5.755  0.4213 -0.4814 -0.4853
 6867TIP3   OH242091   5.974   1.732  17.244  0.7817  0.1320  0.5952
 6867TIP3    H142092   5.901   1.683  17.206  1.0382  0.7582 -0.7054
 6867TIP3    H242093   6.043   1.666  17.255 -0.1365 -0.5784  2.3354
 6868TIP3   OH242094   1.456   0.769  15.943 -0.0885 -0.3850  0.3480
 6868TIP3    H142095   1.535   0.811  15.978 -0.2920 -0.1329  0.5123
 6868TIP3    H242096   1.428   0.710  16.013  0.0531 -0.6026  0.2199
 6869TIP3   OH242097   5.573   4.423  17.118  0.2123  0.1296  0.7659
 6869TIP3    H142098   5.660   4.457  17.137 -0.2586  1.9884 -0.2901
 6869TIP3    H242099   5.582   4.379  17.034 -0.2294  1.8677 -0.2216
 6870TIP3   OH242100   3.671   1.432   6.428  0.0960  0.4042 -0.3698
 6870TIP3    H142101   3.633   1.516   6.452  0.5981  0.6151 -0.3050
 6870TIP3    H242102   3.750   1.455   6.379  0.2650 -0.0292 -0.3032
 6871TIP3   OH242103   5.354   5.017  16.447 -0.0638  0.1148  0.5850
 6871TIP3    H142104   5.403   4.991  16.369 -0.3751 -0.1478  0.4721
 6871TIP3    H242105   5.263   5.020  16.418 -0.2790 -0.8095  1.1384
 6872TIP3   OH242106   2.774   1.994   4.917 -0.5268 -0.1215  0.2768
 6872TIP3    H142107   2.709   2.059   4.891 -2.2619 -1.8230  0.1895
 6872TIP3    H242108   2.736   1.954   4.996  1.6823  0.6582  1.7850
 6873TIP3   OH242109   2.945   2.286   5.952  0.2903  0.0160 -0.3679
 6873TIP3    H142110   2.925   2.379   5.942  1.4570  0.1815 -1.1886
 6873TIP3    H242111   2.996   2.280   6.033 -1.0512 -0.1065  0.4756
 6874TIP3   OH242112   5.986   3.633   5.326  0.4048  0.1475  0.1797
 6874TIP3    H142113   5.913   3.633   5.388  0.3062  1.0183  0.0801
 6874TIP3    H242114   6.052   3.689   5.367  1.5759 -1.7096  0.8912
 6875TIP3   OH242115   2.633   0.771   5.565 -0.6579 -0.1669 -0.1069
 6875TIP3    H142116   2.567   0.703   5.554 -0.1481 -0.9524  1.4406
 6875TIP3    H242117   2.708   0.741   5.513 -0.9140 -0.1289 -0.4943
 6876TIP3   OH242118   2.626   6.165  14.255  0.3360 -0.8517 -0.4704
 6876TIP3    H142119   2.539   6.151  14.294  0.2873  1.0643  0.1468
 6876TIP3    H242120   2.610   6.162  14.160 -0.4082 -0.4969 -0.3613
 6877TIP3   OH242121   4.720   4.542  12.191 -0.5869  0.4452  0.0211
 6877TIP3    H142122   4.737   4.636  12.184 -3.1828  0.9098 -0.3138
 6877TIP3    H242123   4.665   4.533  12.269 -0.7801 -0.7461 -0.2423
 6878TIP3   OH242124   5.610   1.993  11.063 -0.5907  0.6616  0.4160
 6878TIP3    H142125   5.651   2.070  11.023  0.0403 -0.2696 -0.7682
 6878TIP3    H242126   5.590   1.936  10.989 -1.4267 -0.1309  1.2520
 6879TIP3   OH242127   0.174   5.997   4.146  0.0120 -0.5080  0.2429
 6879TIP3    H142128   0.131   5.912   4.145 -0.9949 -0.0102  0.7097
 6879TIP3    H242129   0.242   5.991   4.078  0.1684 -1.7838  0.5133
 6880TIP3   OH242130   0.846   6.526  12.237  0.3099  0.4133  0.2991
 6880TIP3    H142131   0.852   6.597  12.301  2.7062  0.0487  0.5269
 6880TIP3    H242132   0.786   6.463  12.277 -0.3229  1.4398  0.9656
 6881TIP3   OH242133   2.145   5.636   1.949 -0.2933 -0.6308  0.1803
 6881TIP3    H142134   2.184   5.702   2.006  2.1087 -2.1181  0.3541
 6881TIP3    H242135   2.140   5.557   2.003 -2.8435 -0.7048 -0.1178
 6882TIP3   OH242136   2.160   4.407  13.829  0.2002 -0.0660 -0.1911
 6882TIP3    H142137   2.137   4.360  13.909 -0.5953  0.2837 -0.2035
 6882TIP3    H242138   2.255   4.417  13.833 -0.2042  3.6416  2.7954
 6883TIP3   OH242139   3.609   1.181  14.614 -0.5989 -0.1550  0.0077
 6883TIP3    H142140   3.583   1.175  14.706  0.6723 -0.1759  0.3696
 6883TIP3    H242141   3.542   1.236  14.573 -1.5864 -0.7651  0.7847
 6884TIP3   OH242142   1.999   4.885  16.781  0.1534  0.5483 -0.1709
 6884TIP3    H142143   1.938   4.835  16.836 -1.4742 -0.4144 -2.7782
 6884TIP3    H242144   1.974   4.976  16.794 -0.1888  0.3384  0.6949
 6885TIP3   OH242145   1.917   4.475   2.631  0.1778 -0.1369  0.2643
 6885TIP3    H142146   1.898   4.512   2.717 -2.3975  1.7819 -1.0254
 6885TIP3    H242147   1.843   4.417   2.613 -0.1668  0.7589 -1.3044
 6886TIP3   OH242148   5.095   4.136   1.313 -1.1647 -0.3029  0.1010
 6886TIP3    H142149   5.113   4.071   1.246  0.7164  2.1759 -1.8730
 6886TIP3    H242150   5.117   4.220   1.273 -1.6921  1.4252  3.2113
 6887TIP3   OH242151   6.775   0.655   4.600  0.3110  0.2049 -0.1615
 6887TIP3    H142152   6.702   0.594   4.599  1.3874 -1.0889 -1.1774
 6887TIP3    H242153   6.751   0.720   4.667 -1.6292 -0.3377 -0.3058
 6888TIP3   OH242154   0.948   5.871   2.088 -0.2214  0.0967  0.0015
 6888TIP3    H142155   1.018   5.877   2.023 -1.2333  0.2214 -1.0886
 6888TIP3    H242156   0.948   5.779   2.115  0.1328  0.0181 -0.2646
 6889TIP3   OH242157   6.488   5.163  11.277  0.4715 -0.3541 -0.5718
 6889TIP3    H142158   6.566   5.149  11.330 -0.6159 -1.3798  0.7806
 6889TIP3    H242159   6.515   5.140  11.188  1.2715 -2.2527  0.1360
 6890TIP3   OH242160   3.298   3.275  13.873  0.2324  0.1863  0.4998
 6890TIP3    H142161   3.232   3.342  13.858  0.2059  0.4375  1.7392
 6890TIP3    H242162   3.358   3.313  13.937  0.9784 -0.4536  0.1942
 6891TIP3   OH242163   4.495   5.570   0.541  0.6243  0.5798  0.5869
 6891TIP3    H142164   4.579   5.558   0.495  0.6124 -2.1711  1.1999
 6891TIP3    H242165   4.430   5.535   0.480  0.4615 -1.7881  2.0670
 6892TIP3   OH242166   4.206   2.093  14.183 -0.2011 -0.7187  0.6422
 6892TIP3    H142167   4.239   2.004  14.171  0.6419 -0.0037 -2.8617
 6892TIP3    H242168   4.276   2.140  14.227  0.1678 -1.2706  0.6442
 6893TIP3   OH242169   3.730   0.063   1.949 -0.6335  0.2522 -0.0769
 6893TIP3    H142170   3.752   0.121   2.022 -0.7681 -0.4306  0.5076
 6893TIP3    H242171   3.648   0.097   1.915 -1.5158 -0.5185  1.2516
 6894TIP3   OH242172   3.771   2.990  15.977  0.1511 -0.2458 -0.0199
 6894TIP3    H142173   3.680   2.970  15.999 -0.7705  2.6350 -1.0265
 6894TIP3    H242174   3.784   2.949  15.892  0.0924 -1.3978  0.5075
 6895TIP3   OH242175   5.129   3.918  13.713 -0.1833  0.4603 -0.3699
 6895TIP3    H142176   5.177   3.975  13.773 -0.4825  0.7776 -0.4303
 6895TIP3    H242177   5.197   3.868  13.668  0.1791  1.7452 -1.2925
 6896TIP3   OH242178   0.396   4.662  15.259  0.1757 -0.1347  0.6186
 6896TIP3    H142179   0.434   4.576  15.278  1.6280  0.5295  0.7558
 6896TIP3    H242180   0.463   4.707  15.208 -1.1165  0.4448 -0.5880
 6897TIP3   OH242181   2.602   5.373   2.858  0.7494  0.1359  0.3606
 6897TIP3    H142182   2.557   5.291   2.841 -0.4719  0.9495 -0.4377
 6897TIP3    H242183   2.657   5.355   2.934  0.5427 -1.4266  0.1543
 6898TIP3   OH242184   3.068   6.540  11.444 -0.6178  0.0686  0.7692
 6898TIP3    H142185   3.014   6.538  11.523 -3.8976 -1.2683 -1.3821
 6898TIP3    H242186   3.021   6.484  11.382  2.7723 -0.3091 -1.5735
 6899TIP3   OH242187   2.364   3.408   3.529  0.0803 -0.2867  0.1954
 6899TIP3    H142188   2.447   3.361   3.520  0.5869  1.0477 -2.4564
 6899TIP3    H242189   2.386   3.485   3.582  0.7860  0.6156 -1.3839
 6900TIP3   OH242190   3.021   3.788  11.981  0.1133  0.0884 -0.4240
 6900TIP3    H142191   3.004   3.718  11.917  2.1875  0.8962 -1.9311
 6900TIP3    H242192   3.003   3.748  12.066 -1.0829 -1.5289 -1.4158
 6901TIP3   OH242193   1.879   5.830  11.708  0.6384  0.0732 -0.0106
 6901TIP3    H142194   1.817   5.780  11.761 -0.2245 -0.1848 -1.2379
 6901TIP3    H242195   1.944   5.766  11.682  0.1340 -0.1791 -0.6659
 6902TIP3   OH242196   6.107   3.607  12.397  0.2685  0.3845  0.5094
 6902TIP3    H142197   6.063   3.544  12.453 -0.5260  0.1387 -0.3639
 6902TIP3    H242198   6.184   3.635  12.446 -0.2636 -0.0392  1.5857
 6903TIP3   OH242199   2.920   3.526  14.946  0.1967 -0.0054 -0.4876
 6903TIP3    H142200   2.832   3.553  14.971  0.2070 -0.3075 -0.1115
 6903TIP3    H242201   2.917   3.430  14.949  0.1906 -0.0573 -1.6819
 6904TIP3   OH242202   1.719   2.324  12.146  0.2172  0.3158 -0.1355
 6904TIP3    H142203   1.757   2.303  12.232 -0.9733  1.3599  0.6603
 6904TIP3    H242204   1.795   2.336  12.089  1.0005 -1.2442  0.5662
 6905TIP3   OH242205   1.615   5.886   3.877  0.3992 -0.4711 -0.0424
 6905TIP3    H142206   1.562   5.841   3.943  0.1893 -0.3718 -0.1433
 6905TIP3    H242207   1.687   5.825   3.859 -0.3301 -1.1447 -0.7846
 6906TIP3   OH242208   0.164   6.491  12.957  0.0002  0.2285  0.7558
 6906TIP3    H142209   0.195   6.534  12.877  0.6720 -1.0137  0.3348
 6906TIP3    H242210   0.220   6.526  13.026  0.5239  0.0438  0.4236
 6907TIP3   OH242211   1.875   6.361   2.561  0.3399 -0.1924  0.2701
 6907TIP3    H142212   1.914   6.302   2.626  1.2593 -0.6553 -0.6765
 6907TIP3    H242213   1.908   6.328   2.477 -1.6887 -0.2646 -0.5065
 6908TIP3   OH242214   5.360   3.276   0.279  0.2161 -0.0832 -0.0833
 6908TIP3    H142215   5.310   3.198   0.305 -2.0521  1.3254 -0.1299
 6908TIP3    H242216   5.331   3.294   0.190  0.6211  0.9128 -0.0159
 6909TIP3   OH242217   5.091   4.948  12.209  0.2310 -0.4253 -0.1568
 6909TIP3    H142218   5.102   4.873  12.150  1.1581 -2.2423  2.2272
 6909TIP3    H242219   5.180   4.969  12.238 -0.3401 -0.6088  1.7908
 6910TIP3   OH242220   3.658   0.942   0.864 -0.0894 -0.1292 -0.0670
 6910TIP3    H142221   3.572   0.903   0.882 -0.3210  0.3322 -0.1543
 6910TIP3    H242222   3.638   1.017   0.807  0.5262 -0.9405 -1.3783
 6911TIP3   OH242223   0.594   2.738  15.266 -0.2059 -0.6772 -0.4343
 6911TIP3    H142224   0.668   2.777  15.312 -0.3596  0.6289 -1.2501
 6911TIP3    H242225   0.572   2.660  15.317  1.0431 -0.4975  0.4128
 6912TIP3   OH242226   4.431   6.700   3.058 -0.2436 -0.2036 -0.2227
 6912TIP3    H142227   4.437   6.795   3.068 -1.3137 -0.0963 -0.5354
 6912TIP3    H242228   4.404   6.669   3.145 -1.3695 -0.0717 -0.5201
 6913TIP3   OH242229   6.442   0.830  14.197 -0.3487  0.4092  0.8663
 6913TIP3    H142230   6.533   0.809  14.217 -0.5967  0.4227  2.0086
 6913TIP3    H242231   6.417   0.768  14.129  0.9400  1.2951 -0.4422
 6914TIP3   OH242232   4.360   2.889   2.745  0.4898  0.5634 -0.4372
 6914TIP3    H142233   4.431   2.825   2.751  0.7490  0.5014 -3.4277
 6914TIP3    H242234   4.403   2.969   2.714 -0.5621  0.8228 -1.2517
 6915TIP3   OH242235   5.090   2.314  16.028 -0.6642  0.0289  0.2149
 6915TIP3    H142236   5.075   2.291  15.937  1.1497 -1.1841  0.1959
 6915TIP3    H242237   5.036   2.391  16.043 -0.6637  0.4816 -1.9946
 6916TIP3   OH242238   6.288   5.050   3.757  0.3821  0.2700 -0.5066
 6916TIP3    H142239   6.248   5.007   3.833  0.4022  0.5063 -0.3608
 6916TIP3    H242240   6.375   5.076   3.787 -0.2993  2.0552  0.0012
 6917TIP3   OH242241   6.193   4.516   0.344 -0.1547  0.0506  0.7051
 6917TIP3    H142242   6.177   4.496   0.437 -2.7656  0.5421  0.3972
 6917TIP3    H242243   6.162   4.605   0.333  1.5088  0.5226 -0.3458
 6918TIP3   OH242244   1.235   5.723  16.221 -0.1904  0.6453 -0.2842
 6918TIP3    H142245   1.263   5.646  16.270 -2.2333 -0.5838 -0.9750
 6918TIP3    H242246   1.253   5.702  16.129  0.2201  1.4211 -0.3855
 6919TIP3   OH242247   4.408   3.057  11.745  0.3733  0.0122  0.2004
 6919TIP3    H142248   4.460   3.057  11.665  0.9407 -2.3830  0.5350
 6919TIP3    H242249   4.472   3.044  11.815 -0.3546 -0.0974  0.8592
 6920TIP3   OH242250   5.197   0.631  16.177  0.1207 -0.3518  0.7251
 6920TIP3    H142251   5.211   0.676  16.094  0.8757 -0.3248  0.8574
 6920TIP3    H242252   5.162   0.699  16.235  0.0604 -0.2449  0.5646
 6921TIP3   OH242253   4.988   6.161  14.365  0.5591  0.3447  0.1076
 6921TIP3    H142254   5.062   6.189  14.312  1.2622  2.5561  2.1586
 6921TIP3    H242255   5.010   6.071  14.392  1.5523  0.2769 -0.9265
 6922TIP3   OH242256   4.765   1.801  14.038  0.5569  0.3664  0.5655
 6922TIP3    H142257   4.702   1.822  14.107 -0.6095 -1.8212  0.2395
 6922TIP3    H242258   4.768   1.879  13.983 -0.9365  0.9822  1.3191
 6923TIP3   OH242259   4.585   4.475  11.351  0.2667 -0.5775  0.0364
 6923TIP3    H142260   4.627   4.458  11.267 -1.0693 -1.5173 -0.4583
 6923TIP3    H242261   4.658   4.491  11.411  1.2249  0.6676 -1.3954
 6924TIP3   OH242262   0.527   6.620   2.561 -0.0215 -0.3040 -0.0559
 6924TIP3    H142263   0.561   6.608   2.650 -0.0495  0.8537  0.1242
 6924TIP3    H242264   0.443   6.575   2.560 -0.1285 -0.1209  0.5860
 6925TIP3   OH242265   6.545   5.981  15.612  0.1326  0.6150  0.6978
 6925TIP3    H142266   6.637   5.995  15.591  0.0991  0.0340  0.1474
 6925TIP3    H242267   6.522   6.054  15.669  1.3255 -0.0396  2.0547
 6926TIP3   OH242268   5.238   6.362  14.456  0.4751  0.3296  0.7249
 6926TIP3    H142269   5.215   6.417  14.380 -0.7884 -1.5421 -0.2800
 6926TIP3    H242270   5.291   6.292  14.420  1.5202  0.4895  1.9100
 6927TIP3   OH242271   5.724   3.066  12.369  0.7107  0.3099  0.5294
 6927TIP3    H142272   5.639   3.057  12.326  0.2201  1.3474  1.2390
 6927TIP3    H242273   5.741   2.980  12.407  0.6691 -0.3149 -0.8488
 6928TIP3   OH242274   2.471   4.144  15.631 -0.2536 -0.5100  0.0882
 6928TIP3    H142275   2.382   4.167  15.606 -0.5798 -0.8156  0.9755
 6928TIP3    H242276   2.470   4.139  15.726  0.9862  0.5687  0.1738
 6929TIP3   OH242277   0.622   5.810   0.460  0.3321  0.1060  0.2776
 6929TIP3    H142278   0.546   5.855   0.495  0.9947  0.0979  1.7690
 6929TIP3    H242279   0.689   5.879   0.452  0.4419 -0.0538 -0.1858
 6930TIP3   OH242280   3.507   5.101   6.035 -0.0754 -0.5666 -0.6883
 6930TIP3    H142281   3.470   5.021   5.997 -0.3889 -0.5614 -0.3889
 6930TIP3    H242282   3.494   5.168   5.968 -1.9018 -0.2292 -0.0031
 6931TIP3   OH242283   3.838   2.282  13.354 -0.0760  0.1700 -0.3371
 6931TIP3    H142284   3.865   2.193  13.377 -1.1954  0.2522  1.3560
 6931TIP3    H242285   3.906   2.339  13.391  0.4429  0.0561 -1.0973
 6932TIP3   OH242286   2.468   2.098   3.297 -0.1533 -0.2872  0.2495
 6932TIP3    H142287   2.539   2.073   3.356 -0.7486 -0.7642  0.7753
 6932TIP3    H242288   2.470   2.194   3.295  0.9749 -0.3058 -0.3322
 6933TIP3   OH242289   2.901   5.616  14.602 -0.2906  0.6051  0.2698
 6933TIP3    H142290   2.834   5.676  14.569  0.5380  1.6296  0.4187
 6933TIP3    H242291   2.951   5.669  14.665  1.8173  0.4213 -1.1933
 6934TIP3   OH242292   5.854   1.032  10.508 -0.2659 -0.1044  0.3671
 6934TIP3    H142293   5.905   1.112  10.524 -0.0683 -0.0424 -0.5556
 6934TIP3    H242294   5.906   0.963  10.550  1.2776 -0.2458 -1.7060
 6935TIP3   OH242295   6.202   1.826   0.722  0.3581  0.5022 -0.0388
 6935TIP3    H142296   6.128   1.885   0.734  0.4331  1.2691 -2.9943
 6935TIP3    H242297   6.253   1.834   0.803 -2.7706 -0.1028  2.0621
 6936TIP3   OH242298   2.975   1.297  14.851  0.0893  0.3881 -0.1704
 6936TIP3    H142299   2.958   1.261  14.938  0.0497  1.7311  0.3947
 6936TIP3    H242300   3.068   1.280  14.836  0.4210  1.3271  0.7179
 6937TIP3   OH242301   3.931   2.228   2.845  0.2722  0.2126  0.4772
 6937TIP3    H142302   3.984   2.148   2.843  0.0637  0.1097 -0.9101
 6937TIP3    H242303   3.986   2.292   2.890  0.6475 -0.5625  1.1225
 6938TIP3   OH242304   2.957   6.164  13.946  0.6397 -0.3801  0.1453
 6938TIP3    H142305   2.909   6.082  13.932 -1.2512  0.7580 -0.0387
 6938TIP3    H242306   2.918   6.202  14.024 -0.1035  1.5230 -1.1369
 6939TIP3   OH242307   2.550   6.679   4.622 -0.6890  0.1841  0.3434
 6939TIP3    H142308   2.580   6.676   4.531  0.4355 -3.1058  0.7428
 6939TIP3    H242309   2.455   6.668   4.617 -0.3510 -2.8745 -0.3719
 6940TIP3   OH242310   1.297   2.887   2.926  0.2870  0.2744 -0.2588
 6940TIP3    H142311   1.231   2.817   2.934 -0.4270  1.0103  0.4461
 6940TIP3    H242312   1.262   2.946   2.860 -0.1891  1.1207  0.7343
 6941TIP3   OH242313   1.256   5.438   2.659 -0.2297  0.7315 -0.2851
 6941TIP3    H142314   1.284   5.353   2.623 -1.5627 -0.0205  0.4099
 6941TIP3    H242315   1.338   5.487   2.670  0.4114  0.1374 -2.1918
 6942TIP3   OH242316   3.527   6.073   2.190 -0.0253 -0.3126  0.4929
 6942TIP3    H142317   3.462   6.011   2.223  0.9373  0.0126  3.1877
 6942TIP3    H242318   3.516   6.151   2.246  3.2055 -0.5710  1.6310
 6943TIP3   OH242319   5.246   4.207  13.761  0.1793 -0.3378 -0.3813
 6943TIP3    H142320   5.218   4.203  13.853 -0.2941  1.1389 -0.4503
 6943TIP3    H242321   5.341   4.210  13.766  0.1482  0.0397  0.0740
 6944TIP3   OH242322   1.679   1.669   4.215  0.0577 -0.2071  0.5578
 6944TIP3    H142323   1.648   1.619   4.139  2.0194 -0.4097 -0.1545
 6944TIP3    H242324   1.600   1.706   4.254 -1.0661 -0.8411 -1.0687
 6945TIP3   OH242325   3.062   4.087  11.518  0.2251  0.8027 -0.4960
 6945TIP3    H142326   3.034   4.099  11.427  0.0756  2.7129 -0.2143
 6945TIP3    H242327   3.094   4.173  11.544  1.4705 -0.0569  0.8579
 6946TIP3   OH242328   4.963   6.286  15.004  0.5781  0.0168 -0.2598
 6946TIP3    H142329   4.967   6.363  15.060  1.3539 -0.6369  0.6002
 6946TIP3    H242330   4.871   6.279  14.979  0.2075  0.2638  1.0121
 6947TIP3   OH242331   3.836   0.491   4.713 -0.0802  0.4300  0.9423
 6947TIP3    H142332   3.774   0.554   4.675 -0.8681 -0.5726  0.5330
 6947TIP3    H242333   3.783   0.439   4.773  0.5550  0.0981  1.2224
 6948TIP3   OH242334   3.942   5.239   4.428 -0.3291 -0.3003 -0.2183
 6948TIP3    H142335   3.964   5.170   4.490  2.3869  0.0214 -0.7662
 6948TIP3    H242336   3.851   5.260   4.447 -0.5718 -2.5907  1.3389
 6949TIP3   OH242337   4.688   0.420  13.984 -0.5637  0.0504  0.0968
 6949TIP3    H142338   4.737   0.339  13.970 -0.9463 -0.1460 -0.1123
 6949TIP3    H242339   4.683   0.428  14.080 -0.9064 -0.4030  0.1193
 6950TIP3   OH242340   5.745   2.368   0.726 -0.8718 -0.3559 -0.6970
 6950TIP3    H142341   5.726   2.275   0.738 -0.4760 -0.4197 -0.5876
 6950TIP3    H242342   5.783   2.374   0.639 -1.0041 -0.2779 -0.7508
 6951TIP3   OH242343   6.038   3.351  15.893  0.5167  0.3069  0.1131
 6951TIP3    H142344   5.998   3.291  15.956  0.8591  1.2424  1.2385
 6951TIP3    H242345   6.130   3.356  15.919  0.9779 -0.3722 -1.3146
 6952TIP3   OH242346   2.357   1.511   4.277  0.0927 -0.0186 -1.0181
 6952TIP3    H142347   2.449   1.501   4.300  0.0651  0.3968 -0.7275
 6952TIP3    H242348   2.319   1.558   4.351 -0.4168 -0.4612 -0.9926
 6953TIP3   OH242349   6.770   0.739  13.060  0.2624  0.0794 -0.5232
 6953TIP3    H142350   6.767   0.745  12.965  2.2829  1.5836 -0.5478
 6953TIP3    H242351   6.730   0.655  13.081 -1.0694  0.1515 -2.6224
 6954TIP3   OH242352   6.569   3.461  12.052 -0.4866 -0.3462  1.2397
 6954TIP3    H142353   6.657   3.478  12.016 -1.6712 -0.4627 -1.8095
 6954TIP3    H242354   6.548   3.542  12.100  0.6344  0.2896  0.6930
 6955TIP3   OH242355   6.213   4.172  16.254 -0.1136 -0.2460  0.3713
 6955TIP3    H142356   6.244   4.243  16.198  0.8726 -1.3547 -0.5299
 6955TIP3    H242357   6.187   4.103  16.192 -3.0784  0.1101  1.1448
 6956TIP3   OH242358   6.535   2.125   3.819  0.4042  0.0346 -0.1438
 6956TIP3    H142359   6.489   2.105   3.737 -2.0822  0.9284  0.9819
 6956TIP3    H242360   6.485   2.078   3.886  0.7486  1.5460  1.1995
 6957TIP3   OH242361   1.111   0.410   5.672 -0.1260 -0.4082  0.0774
 6957TIP3    H142362   1.030   0.459   5.660 -0.4628 -0.9917 -0.0093
 6957TIP3    H242363   1.129   0.372   5.587  1.2228  1.2147 -0.4035
 6958TIP3   OH242364   3.635   1.137  13.943 -0.5567 -0.6712 -0.2326
 6958TIP3    H142365   3.636   1.141  14.039 -2.5610  0.0796 -0.1988
 6958TIP3    H242366   3.546   1.165  13.920  0.6471  1.5691 -2.4059
 6959TIP3   OH242367   1.127   5.956   6.135  0.0705  0.5859 -0.3364
 6959TIP3    H142368   1.112   5.939   6.228  0.9077  2.0301  0.0841
 6959TIP3    H242369   1.202   6.015   6.134 -0.2457  0.9706 -1.9121
 6960TIP3   OH242370   2.863   0.401   3.103 -0.4257 -0.7306  0.6421
 6960TIP3    H142371   2.913   0.377   3.181  0.1007 -2.0001 -0.0586
 6960TIP3    H242372   2.808   0.325   3.086  0.5422 -1.0788 -1.0639
 6961TIP3   OH242373   4.126   4.688  11.391 -0.3701  0.1555 -0.3320
 6961TIP3    H142374   4.191   4.673  11.460  0.2902  1.8567 -0.5650
 6961TIP3    H242375   4.042   4.671  11.434  0.0824  0.4131  0.6740
 6962TIP3   OH242376   0.683   1.873   4.243 -0.1945 -0.3559 -0.3526
 6962TIP3    H142377   0.650   1.840   4.160  0.8434 -0.4518 -0.7300
 6962TIP3    H242378   0.639   1.957   4.254 -1.9084 -1.2699  0.0146
 6963TIP3   OH242379   0.835   3.250   5.504 -0.1013 -0.5961  0.4594
 6963TIP3    H142380   0.750   3.226   5.467 -0.2228  0.4553  0.0214
 6963TIP3    H242381   0.823   3.244   5.598 -1.3305  1.6125  0.4909
 6964TIP3   OH242382   3.952   0.576   3.173  0.3674  0.1765 -0.3142
 6964TIP3    H142383   3.904   0.506   3.217 -1.9789  1.8969 -0.0590
 6964TIP3    H242384   4.016   0.606   3.238 -1.3891  1.0229  1.0462
 6965TIP3   OH242385   0.202   5.336  16.890 -0.1418  0.6182  0.1121
 6965TIP3    H142386   0.221   5.245  16.868 -1.7190 -0.0392  1.3758
 6965TIP3    H242387   0.226   5.344  16.982 -1.2089  1.1180  0.3534
 6966TIP3   OH242388   4.789   6.237   2.825 -0.8696  0.4396  0.0162
 6966TIP3    H142389   4.779   6.167   2.889  0.1048  1.7053  1.5949
 6966TIP3    H242390   4.860   6.207   2.768  0.7707  0.9009  1.7640
 6967TIP3   OH242391   3.940   1.926  13.692 -0.0591 -0.2006 -0.3664
 6967TIP3    H142392   3.992   1.893  13.766 -1.9456 -0.3081  0.9397
 6967TIP3    H242393   3.876   1.857  13.675 -0.8551  0.6529 -0.8602
 6968TIP3   OH242394   3.239   5.727  13.960  0.5244 -0.2347 -0.1133
 6968TIP3    H142395   3.303   5.787  13.998 -0.1120  0.8962 -0.7907
 6968TIP3    H242396   3.254   5.644  14.005  0.8957  0.6394  1.4056
 6969TIP3   OH242397   1.584   4.033  14.357  0.0354 -0.2881  0.3906
 6969TIP3    H142398   1.671   4.052  14.324 -0.5526  0.5555 -0.7325
 6969TIP3    H242399   1.552   4.116  14.392 -0.7238 -0.3323 -0.1847
 6970TIP3   OH242400   0.097   3.640  17.165 -0.0345  0.0689  0.1981
 6970TIP3    H142401   0.131   3.616  17.078 -2.7479  0.2101 -0.9346
 6970TIP3    H242402   0.092   3.736  17.163 -1.1691  0.0107  0.0904
 6971TIP3   OH242403   2.190   6.093   4.423 -0.2506 -0.1112  0.1774
 6971TIP3    H142404   2.150   6.065   4.505  1.6052 -0.7545  0.8885
 6971TIP3    H242405   2.242   6.170   4.446  0.3871 -0.3690 -0.3644
 6972TIP3   OH242406   2.989   5.132   5.874 -0.1165 -0.1682 -0.4829
 6972TIP3    H142407   2.994   5.206   5.814 -1.3336 -0.2260 -0.6770
 6972TIP3    H242408   3.043   5.064   5.833 -0.3983  0.0210 -1.1823
 6973TIP3   OH242409   4.363   1.358   5.167  0.2954 -0.1655  0.1177
 6973TIP3    H142410   4.311   1.313   5.100  1.5595 -1.0285 -0.3071
 6973TIP3    H242411   4.347   1.309   5.247  0.2749 -0.3032  0.0304
 6974TIP3   OH242412   0.895   6.635  13.268  0.1817 -0.1912 -0.4285
 6974TIP3    H142413   0.934   6.696  13.205 -0.7985  0.5235 -0.3566
 6974TIP3    H242414   0.937   6.551  13.249  2.3709  0.7133  0.2114
 6975TIP3   OH242415   0.273   5.112  16.022 -0.2782 -0.0280  0.3298
 6975TIP3    H142416   0.301   5.023  16.043 -0.5589 -0.5330 -1.3697
 6975TIP3    H242417   0.353   5.155  15.992 -0.1885  0.2409  0.9392
 6976TIP3   OH242418   1.764   6.021  11.560  0.6684  0.7829  0.2375
 6976TIP3    H142419   1.798   5.965  11.630  1.3946  0.3057 -0.4731
 6976TIP3    H242420   1.787   5.973  11.479 -0.1618  1.3129 -0.3160
 6977TIP3   OH242421   6.309   4.067   2.381  0.5228  0.0318  0.2268
 6977TIP3    H142422   6.293   3.978   2.414  2.0322 -1.0065 -1.7030
 6977TIP3    H242423   6.403   4.079   2.391  0.4911  0.9790 -0.5411
 6978TIP3   OH242424   4.225   3.881  13.824 -0.3594 -0.3418  0.1294
 6978TIP3    H142425   4.227   3.794  13.863 -1.3942  0.4403  2.0100
 6978TIP3    H242426   4.135   3.911  13.836 -0.0629  0.9188 -0.6529
 6979TIP3   OH242427   4.578   6.288  10.518  0.1494 -0.0534  0.2219
 6979TIP3    H142428   4.592   6.374  10.478 -0.7632 -0.0161 -0.0316
 6979TIP3    H242429   4.483   6.283  10.531  0.2985 -0.6294  1.1284
 6980TIP3   OH242430   0.867   2.914  12.670  0.1733 -0.5530  0.0037
 6980TIP3    H142431   0.940   2.854  12.654 -0.6320 -0.9366 -2.5298
 6980TIP3    H242432   0.906   3.001  12.664  0.8724 -0.7748  1.1565
 6981TIP3   OH242433   6.337   1.966   4.220  0.3396  0.3918  0.5765
 6981TIP3    H142434   6.252   2.003   4.199  0.6925  0.1409 -1.3905
 6981TIP3    H242435   6.319   1.877   4.251 -0.1866  0.7409  1.2727
 6982TIP3   OH242436   4.572   3.668   4.467  0.2997  0.3147 -0.2064
 6982TIP3    H142437   4.550   3.685   4.558  2.4640 -2.9605  1.0533
 6982TIP3    H242438   4.499   3.616   4.434  0.6751 -0.6679  0.4694
 6983TIP3   OH242439   4.796   2.966   0.156 -0.5816 -0.3618  0.4209
 6983TIP3    H142440   4.820   2.873   0.153 -1.6071 -0.5910 -0.8500
 6983TIP3    H242441   4.778   2.989   0.065 -0.3778  1.0764  0.7431
 6984TIP3   OH242442   5.603   0.903  15.346  0.2588 -0.4870  0.1813
 6984TIP3    H142443   5.515   0.935  15.324  0.3819 -1.0734 -1.2424
 6984TIP3    H242444   5.599   0.883  15.440 -1.1108 -0.4577  0.1414
 6985TIP3   OH242445   3.737   1.435   3.213 -0.2413  0.5572  0.5228
 6985TIP3    H142446   3.760   1.389   3.132  1.4502  0.9903  0.7239
 6985TIP3    H242447   3.647   1.409   3.231  0.2577 -1.6801 -0.0464
 6986TIP3   OH242448   6.090   2.207   0.099  0.3298 -0.0099 -0.2201
 6986TIP3    H142449   6.137   2.143   0.152 -1.0690 -0.0907  0.9940
 6986TIP3    H242450   6.043   2.155   0.034  0.0143 -0.1332  0.1051
 6987TIP3   OH242451   0.988   2.114  14.575  0.3831  0.4355  0.0575
 6987TIP3    H142452   0.976   2.205  14.550 -2.2398  0.4228  1.1018
 6987TIP3    H242453   0.901   2.086  14.605  1.4842 -1.9650  1.1098
 6988TIP3   OH242454   5.556   1.403   3.105 -0.0317 -0.2856 -0.1015
 6988TIP3    H142455   5.498   1.420   3.031  0.9266  0.2019 -0.7576
 6988TIP3    H242456   5.502   1.420   3.182 -0.9035 -0.3370 -0.6928
 6989TIP3   OH242457   4.768   5.008   1.805 -0.1497 -0.2206 -0.5112
 6989TIP3    H142458   4.849   5.047   1.770  1.4997  0.1181  3.4350
 6989TIP3    H242459   4.716   5.083   1.833 -1.6144 -0.4784 -2.3951
 6990TIP3   OH242460   4.261   1.482   4.075 -0.2460  0.4504  0.1291
 6990TIP3    H142461   4.176   1.489   4.030 -0.3211 -0.0583  0.1868
 6990TIP3    H242462   4.246   1.523   4.160 -0.3720  0.5582  0.0556
 6991TIP3   OH242463   1.525   0.223   4.250 -0.2661 -0.0157  0.2344
 6991TIP3    H142464   1.571   0.171   4.185  0.9735 -1.6428  2.3531
 6991TIP3    H242465   1.595   0.262   4.303 -1.2802  0.6215  1.1222
 6992TIP3   OH242466   2.118   4.623   1.520  0.5033  0.5834 -0.4961
 6992TIP3    H142467   2.054   4.607   1.451  3.2571  0.7580 -3.2120
 6992TIP3    H242468   2.153   4.536   1.540  2.1649  0.8857 -1.8903
 6993TIP3   OH242469   2.258   1.630   2.298 -0.2324 -0.0786  0.3663
 6993TIP3    H142470   2.192   1.685   2.339  0.9116  1.3808  0.2867
 6993TIP3    H242471   2.341   1.673   2.319  0.5093 -0.4862 -1.6815
 6994TIP3   OH242472   4.440   6.210   2.874  0.0525  0.0552 -0.7316
 6994TIP3    H142473   4.459   6.292   2.828  0.3697  0.4827  0.1557
 6994TIP3    H242474   4.378   6.235   2.942 -0.3893 -0.5731 -0.9009
 6995TIP3   OH242475   5.738   3.635   5.488  0.3314 -0.2654  0.0172
 6995TIP3    H142476   5.763   3.546   5.516  0.1105  0.2398  1.9135
 6995TIP3    H242477   5.657   3.652   5.536 -0.1863  0.5789 -1.1447
 6996TIP3   OH242478   0.039   0.737   3.395 -0.4279  0.2672 -0.0808
 6996TIP3    H142479   0.117   0.771   3.439 -0.3085 -0.3320  0.1615
 6996TIP3    H242480   0.041   0.779   3.309  0.0532  0.4060 -0.0052
 6997TIP3   OH242481   2.285   5.477   1.265 -0.4056 -0.0195 -0.0837
 6997TIP3    H142482   2.370   5.509   1.235 -1.1230 -0.1041 -2.2815
 6997TIP3    H242483   2.302   5.388   1.296  0.0129 -0.6849 -2.1455
 6998TIP3   OH242484   5.347   5.527  13.383  0.1947  0.2072 -0.1991
 6998TIP3    H142485   5.347   5.618  13.353  1.5917  0.4161  0.3651
 6998TIP3    H242486   5.390   5.531  13.469 -0.3813 -0.8880  0.1405
 6999TIP3   OH242487   3.174   0.310  16.929  0.0004  0.1554  0.4381
 6999TIP3    H142488   3.193   0.355  16.847  0.6970  0.3038  0.6708
 6999TIP3    H242489   3.219   0.226  16.921 -0.7277 -0.2174  0.2824
 7000TIP3   OH242490   2.168   5.568   5.372  0.1653 -0.4884 -0.2888
 7000TIP3    H142491   2.254   5.538   5.343  1.2359  2.2970 -0.1785
 7000TIP3    H242492   2.186   5.645   5.427 -2.3696  0.0692 -0.1543
 7001TIP3   OH242493   0.578   3.680  16.810  0.1852  0.0494 -0.0807
 7001TIP3    H142494   0.581   3.588  16.837 -0.4109 -0.4881 -1.7860
 7001TIP3    H242495   0.511   3.719  16.866 -2.2311 -1.4368 -1.8391
 7002TIP3   OH242496   1.841   5.567   5.315 -0.7559 -0.3415 -0.1505
 7002TIP3    H142497   1.930   5.538   5.299 -0.1007  1.2413  0.5592
 7002TIP3    H242498   1.850   5.652   5.358 -2.5804 -0.7777  1.1790
 7003TIP3   OH242499   5.607   1.806  16.415  0.4024 -0.1362  0.4475
 7003TIP3    H142500   5.540   1.749  16.377  0.8631 -0.3460 -0.0570
 7003TIP3    H242501   5.570   1.894  16.409  0.4273 -0.1862 -0.3744
 7004TIP3   OH242502   6.306   3.943   3.653 -0.2867  0.4317  0.2361
 7004TIP3    H142503   6.227   3.968   3.700  0.6412  0.2530  1.9290
 7004TIP3    H242504   6.330   3.857   3.689  0.3752  0.2299 -0.6457
 7005TIP3   OH242505   3.549   5.355  16.382  0.5282 -0.1812 -0.1712
 7005TIP3    H142506   3.508   5.275  16.349  0.1255 -0.3622  0.7490
 7005TIP3    H242507   3.567   5.336  16.474  0.0483  0.9315  0.1587
 7006TIP3   OH242508   6.301   1.774  17.292 -0.1835 -0.5106  0.0280
 7006TIP3    H142509   6.386   1.784  17.335  0.1869 -0.9398 -0.6014
 7006TIP3    H242510   6.308   1.827  17.212 -0.9647  0.5033  0.6269
 7007TIP3   OH242511   3.060   1.150  17.266 -0.7803  0.1763 -0.1974
 7007TIP3    H142512   3.046   1.181  17.176 -0.8407  0.9197  0.0658
 7007TIP3    H242513   3.021   1.217  17.321 -0.0471  0.1081  0.4166
 7008TIP3   OH242514   6.615   0.804  15.106  0.3670 -0.0776  0.0540
 7008TIP3    H142515   6.519   0.805  15.110  0.3982 -0.0244  1.0830
 7008TIP3    H242516   6.642   0.866  15.175  1.1537 -1.0748  0.6561
 7009TIP3   OH242517   5.795   1.886  15.999 -0.3581  0.5700 -0.5163
 7009TIP3    H142518   5.889   1.870  16.007 -0.4396  1.0503  1.7101
 7009TIP3    H242519   5.763   1.814  15.944  0.9823 -0.7607  0.4061
 7010TIP3   OH242520   4.756   4.577  16.331 -0.2775  0.3293  0.2062
 7010TIP3    H142521   4.707   4.629  16.395 -0.3158 -0.5960  0.9284
 7010TIP3    H242522   4.759   4.633  16.252 -1.9283  0.6439  0.3611
 7011TIP3   OH242523   0.381   5.939  16.679  0.0891 -0.2820 -0.3183
 7011TIP3    H142524   0.459   5.995  16.676  0.4652 -0.7916 -0.1041
 7011TIP3    H242525   0.321   5.984  16.739  0.1421  0.2113 -0.6355
 7012TIP3   OH242526   5.512   2.981  12.699 -0.7694  0.6707  0.5616
 7012TIP3    H142527   5.534   3.036  12.775 -0.6423  2.5469 -0.8061
 7012TIP3    H242528   5.461   3.038  12.642 -0.4253 -0.5732 -1.0167
 7013TIP3   OH242529   0.372   0.781   1.648  0.1494 -0.4204  0.3050
 7013TIP3    H142530   0.371   0.718   1.720  1.1518  0.2100  0.8806
 7013TIP3    H242531   0.331   0.734   1.575 -0.2782 -1.2901  1.0843
 7014TIP3   OH242532   6.432   3.080   3.783 -0.1366 -0.1145  0.7184
 7014TIP3    H142533   6.499   3.070   3.716  0.3189  1.4786  0.9027
 7014TIP3    H242534   6.416   2.991   3.815  1.1805 -0.6304 -0.0030
 7015TIP3   OH242535   0.334   6.712  13.423 -0.0464  0.4596 -0.0772
 7015TIP3    H142536   0.385   6.750  13.494  1.8832 -0.8359 -0.7185
 7015TIP3    H242537   0.261   6.668  13.467 -0.4511  2.0652  0.8809
 7016TIP3   OH242538   4.036   3.875  12.939 -0.0172  0.1639 -0.1985
 7016TIP3    H142539   4.019   3.949  12.997 -0.2491  0.2653 -0.3923
 7016TIP3    H242540   4.131   3.877  12.925  0.2360 -0.7512  1.3498
 7017TIP3   OH242541   3.390   0.604   1.370 -0.6356 -0.4169 -0.2465
 7017TIP3    H142542   3.406   0.694   1.344 -2.8201  0.1240  0.1710
 7017TIP3    H242543   3.330   0.611   1.445  1.1510 -2.1124  1.3957
 7018TIP3   OH242544   6.093   2.646  14.449 -0.3113 -0.6169 -0.5999
 7018TIP3    H142545   6.116   2.594  14.373 -0.6384  0.2143 -1.2781
 7018TIP3    H242546   5.999   2.664  14.438 -0.2193  0.0330 -0.3255
 7019TIP3   OH242547   6.766   5.461   1.250  0.0202  0.8467 -0.2647
 7019TIP3    H142548   6.805   5.431   1.332 -0.8664 -0.5338 -0.3215
 7019TIP3    H242549   6.837   5.452   1.186 -0.3149 -1.6168 -0.3601
 7020TIP3   OH242550   5.090   2.331  13.859 -1.0597 -0.1201 -0.6028
 7020TIP3    H142551   5.009   2.381  13.873  0.8261  2.6903  1.0006
 7020TIP3    H242552   5.159   2.388  13.894  1.7727 -1.8605 -3.1201
 7021TIP3   OH242553   0.323   6.218  13.609 -0.5588 -0.3910 -0.2799
 7021TIP3    H142554   0.242   6.211  13.558 -0.7017 -1.4121  0.0792
 7021TIP3    H242555   0.296   6.198  13.699 -0.0625  0.0929 -0.0251
 7022TIP3   OH242556   2.176   0.969  15.706  0.1194 -0.0475  0.2843
 7022TIP3    H142557   2.085   0.967  15.734  0.1530  0.6571  0.4514
 7022TIP3    H242558   2.194   1.061  15.687  0.6166 -0.2692 -0.3371
 7023TIP3   OH242559   5.482   4.902  11.141 -0.0288 -1.0243 -0.1398
 7023TIP3    H142560   5.565   4.919  11.097  0.9398  0.8440  2.3110
 7023TIP3    H242561   5.433   4.984  11.133 -1.1614 -1.7255 -0.5134
 7024TIP3   OH242562   2.962   3.403   5.598 -0.7323 -0.8131  1.0292
 7024TIP3    H142563   2.916   3.381   5.679 -2.8699 -1.8084 -0.4392
 7024TIP3    H242564   2.939   3.334   5.537  2.4239 -1.1439  0.0920
 7025TIP3   OH242565   1.303   4.029   4.180  0.1020  0.3347  0.5493
 7025TIP3    H142566   1.276   4.070   4.098 -0.4710  0.7586  0.9492
 7025TIP3    H242567   1.396   4.051   4.188 -0.0713  1.1053  0.4905
 7026TIP3   OH242568   5.264   6.569   2.957 -0.3656  0.4498  0.5710
 7026TIP3    H142569   5.175   6.565   2.993  0.2189  2.4576  2.3958
 7026TIP3    H242570   5.273   6.490   2.904 -2.1631 -1.4122  2.9202
 7027TIP3   OH242571   3.703   1.187  15.452 -0.2036 -0.4682  0.3509
 7027TIP3    H142572   3.738   1.114  15.401  1.2576  0.6149 -0.2123
 7027TIP3    H242573   3.701   1.261  15.392 -1.7947 -0.0437  0.8858
 7028TIP3   OH242574   6.474   6.629  15.317 -0.3637 -0.2821 -1.0746
 7028TIP3    H142575   6.482   6.546  15.363 -1.3997  0.2093  0.0330
 7028TIP3    H242576   6.562   6.667  15.318 -0.6099  0.3048  1.6453
 7029TIP3   OH242577   1.304   1.607  15.856 -0.2578 -0.0457 -0.9351
 7029TIP3    H142578   1.222   1.558  15.849 -0.5991  0.4951 -0.8017
 7029TIP3    H242579   1.292   1.661  15.935  0.2937 -0.0938 -0.8220
 7030TIP3   OH242580   2.036   4.639  11.954  0.4963  0.2622  0.0108
 7030TIP3    H142581   2.128   4.612  11.950  0.8971  1.7832 -1.5810
 7030TIP3    H242582   1.987   4.557  11.948  1.7276 -0.5296  0.4510
 7031TIP3   OH242583   5.393   1.241  14.855  0.4102 -1.1152  0.1133
 7031TIP3    H142584   5.463   1.266  14.914  1.2642 -1.3516 -0.7731
 7031TIP3    H242585   5.438   1.213  14.775 -0.7755  0.6322 -1.1898
 7032TIP3   OH242586   2.978   5.980  13.615 -0.0234  0.6577 -0.3096
 7032TIP3    H142587   2.918   6.048  13.645 -1.8155 -0.9779 -0.1026
 7032TIP3    H242588   2.982   5.918  13.688 -0.2652 -0.6384 -1.3752
 7033TIP3   OH242589   1.195   1.772   0.737  0.3900  0.1531  0.5071
 7033TIP3    H142590   1.143   1.801   0.663  0.5766  0.6402  0.5613
 7033TIP3    H242591   1.273   1.828   0.735  0.6682 -0.2255  0.7222
 7034TIP3   OH242592   1.470   0.744   4.765  0.3508  0.3190 -0.7702
 7034TIP3    H142593   1.462   0.838   4.751 -0.1410  0.3128 -0.5443
 7034TIP3    H242594   1.556   0.732   4.803  1.2837  0.4527 -2.7757
 7035TIP3   OH242595   2.840   6.252   1.627 -0.0740 -0.1062 -0.3738
 7035TIP3    H142596   2.934   6.234   1.623 -0.1779 -0.4732 -1.2712
 7035TIP3    H242597   2.819   6.290   1.542 -0.8359 -0.4858 -0.3565
 7036TIP3   OH242598   5.520   2.746  12.279  0.0342 -0.1430  0.7202
 7036TIP3    H142599   5.448   2.778  12.226  0.4501 -1.5748 -0.7474
 7036TIP3    H242600   5.484   2.737  12.367 -2.1588 -2.7900 -0.4109
 7037TIP3   OH242601   3.606   3.262   4.074  0.5932 -0.2661  0.5172
 7037TIP3    H142602   3.659   3.317   4.132 -0.1529  1.1280 -0.1201
 7037TIP3    H242603   3.570   3.322   4.009 -1.4314 -1.2694  0.6888
 7038TIP3   OH242604   3.589   3.352  15.505 -0.3488  0.2726  0.1129
 7038TIP3    H142605   3.645   3.430  15.499  2.1133 -1.5883 -1.8779
 7038TIP3    H242606   3.621   3.306  15.582 -0.9603  0.5648  0.5449
 7039TIP3   OH242607   2.538   2.893  12.475  0.2418 -0.1273 -0.6272
 7039TIP3    H142608   2.589   2.963  12.435  1.4029 -1.2873 -1.2090
 7039TIP3    H242609   2.602   2.840  12.522 -0.8289  0.0166  1.0230
 7040TIP3   OH242610   5.352   1.398  12.981 -0.1299 -0.0084 -0.0020
 7040TIP3    H142611   5.372   1.307  12.958 -1.9624 -0.6540  0.8730
 7040TIP3    H242612   5.391   1.410  13.067  1.4552  0.5437 -0.7654
 7041TIP3   OH242613   0.406   1.030   1.920 -0.5472  0.4523 -0.1026
 7041TIP3    H142614   0.335   1.012   1.857 -0.7711  0.4680  0.1434
 7041TIP3    H242615   0.478   0.974   1.891 -0.2887  1.2453 -1.0004
 7042TIP3   OH242616   1.251   2.280   3.839  0.0553 -0.5248 -0.8641
 7042TIP3    H142617   1.319   2.266   3.905 -1.1641  0.2560  0.6124
 7042TIP3    H242618   1.251   2.374   3.824 -1.0920 -0.4381 -0.3887
 7043TIP3   OH242619   2.646   0.911   5.787  0.3701  0.2474  0.5737
 7043TIP3    H142620   2.627   0.841   5.724  0.8135 -0.5554  1.3235
 7043TIP3    H242621   2.736   0.936   5.768  0.2688  0.4972  0.4209
 7044TIP3   OH242622   1.360   3.425   4.306  0.4324 -0.1874 -0.2419
 7044TIP3    H142623   1.375   3.513   4.340 -1.8280 -1.0802  3.4003
 7044TIP3    H242624   1.285   3.393   4.357  0.4558 -3.7621 -2.3300
 7045TIP3   OH242625   5.284   2.640  11.129  0.1126 -0.2798  0.2856
 7045TIP3    H142626   5.273   2.585  11.051  2.5371 -2.8945  1.7089
 7045TIP3    H242627   5.267   2.581  11.203  0.9204  1.3820  1.8229
 7046TIP3   OH242628   6.061   0.127  11.841  0.1828  0.0211 -0.1143
 7046TIP3    H142629   6.119   0.203  11.847 -2.0150  1.6541  0.9052
 7046TIP3    H242630   5.998   0.139  11.912  0.3743 -3.2606  0.6654
 7047TIP3   OH242631   0.839   6.208  11.512 -0.0786 -0.3833  0.7445
 7047TIP3    H142632   0.774   6.139  11.523  0.3623 -1.0966 -0.9073
 7047TIP3    H242633   0.792   6.279  11.469 -0.2659 -0.0894  1.4357
 7048TIP3   OH242634   4.759   1.816  15.532 -0.4115  0.1823 -0.5045
 7048TIP3    H142635   4.680   1.775  15.568 -0.5217  2.7953  2.4976
 7048TIP3    H242636   4.726   1.890  15.481  0.0154 -0.0116 -1.0639
 7049TIP3   OH242637   1.768   1.837   2.081  0.2115  0.0316 -0.3619
 7049TIP3    H142638   1.720   1.880   2.010 -1.6130 -1.3516 -0.0193
 7049TIP3    H242639   1.735   1.747   2.080  1.5334 -0.4858  1.0577
 7050TIP3   OH242640   3.272   1.705   1.210  0.4732 -0.0186 -0.6103
 7050TIP3    H142641   3.246   1.730   1.298  0.4004  2.3907 -1.2872
 7050TIP3    H242642   3.198   1.656   1.176 -0.0298  0.1860  0.1830
 7051TIP3   OH242643   0.767   1.868  11.018 -0.6261  0.0505 -0.0260
 7051TIP3    H142644   0.830   1.855  11.089 -1.3321 -2.7855  0.1346
 7051TIP3    H242645   0.682   1.860  11.060 -1.0471 -1.6707 -1.1931
 7052TIP3   OH242646   4.041   2.440  13.465  0.0922  0.2709  0.0602
 7052TIP3    H142647   4.091   2.494  13.405 -1.1471  2.4067  0.8915
 7052TIP3    H242648   4.105   2.382  13.506  1.4821  1.2983 -0.6533
 7053TIP3   OH242649   2.100   3.077   2.528 -0.1880 -0.3058  0.0953
 7053TIP3    H142650   2.011   3.111   2.536 -0.1890  0.0328 -1.2559
 7053TIP3    H242651   2.154   3.154   2.509  0.5202 -0.3967  1.6786
 7054TIP3   OH242652   0.232   0.217   1.200 -0.5042 -0.3542  0.0150
 7054TIP3    H142653   0.225   0.210   1.295  0.2068 -1.8521 -0.0429
 7054TIP3    H242654   0.299   0.283   1.186  0.9300 -1.6754  0.5641
 7055TIP3   OH242655   2.394   0.561   6.666 -0.2351 -0.3079  0.3340
 7055TIP3    H142656   2.452   0.636   6.678 -0.0599 -0.6489  1.6868
 7055TIP3    H242657   2.418   0.525   6.581  0.6793  0.3088  0.3292
 7056TIP3   OH242658   0.717   3.086  16.778 -0.3629 -0.2122  0.2688
 7056TIP3    H142659   0.746   3.177  16.778  1.6939 -0.8450  1.7272
 7056TIP3    H242660   0.782   3.040  16.725 -0.2450 -1.1665  1.2294
 7057TIP3   OH242661   1.155   5.869   0.408  0.0922  0.0185 -0.3117
 7057TIP3    H142662   1.126   5.786   0.445 -1.6159  0.9891  0.5721
 7057TIP3    H242663   1.199   5.914   0.480 -0.4523  0.5718 -0.3169
 7058TIP3   OH242664   0.268   6.709   0.775  0.0948 -0.1030  0.0853
 7058TIP3    H142665   0.256   6.796   0.736 -3.3687 -1.1973 -1.4168
 7058TIP3    H242666   0.247   6.722   0.868  0.5486  0.8362  0.0725
 7059TIP3   OH242667   5.580   6.340  11.820 -0.1126 -0.0072  0.1710
 7059TIP3    H142668   5.577   6.274  11.751 -0.5791  0.3078 -0.1087
 7059TIP3    H242669   5.601   6.421  11.775 -0.1862  0.1564  0.4306
 7060TIP3   OH242670   4.817   5.630   1.178 -0.1808 -0.2173  0.2827
 7060TIP3    H142671   4.772   5.576   1.243 -0.1908  0.2322  0.6487
 7060TIP3    H242672   4.897   5.659   1.222  0.0446 -0.2976 -0.0683
 7061TIP3   OH242673   3.386   2.721  11.080  0.3253  0.1238  0.0681
 7061TIP3    H142674   3.331   2.780  11.131 -2.1471 -2.3939  0.4637
 7061TIP3    H242675   3.383   2.756  10.991  0.9631  1.9772  0.7514
 7062TIP3   OH242676   4.560   4.356   3.978 -0.2889 -0.3905  0.3700
 7062TIP3    H142677   4.545   4.440   4.022  0.0207  0.5262 -1.1967
 7062TIP3    H242678   4.535   4.373   3.887  1.1972 -1.5639 -0.2839
 7063TIP3   OH242679   3.374   6.342  15.272  0.0454 -0.5450 -0.0322
 7063TIP3    H142680   3.314   6.320  15.201 -0.0376  1.5093 -0.6214
 7063TIP3    H242681   3.460   6.312  15.240 -0.1616 -0.6194 -0.5200
 7064TIP3   OH242682   2.945   3.663   5.956  0.1579 -0.3184 -0.6046
 7064TIP3    H142683   2.953   3.705   6.042  1.4658  0.8441 -1.2670
 7064TIP3    H242684   2.861   3.694   5.922 -0.6165 -1.2010  0.4582
 7065TIP3   OH242685   3.894   3.908  14.716 -0.2520 -0.1043 -0.0745
 7065TIP3    H142686   3.905   3.940  14.626 -0.8258 -0.3952 -0.2483
 7065TIP3    H242687   3.953   3.833  14.721 -1.4401 -1.0985 -0.7250
 7066TIP3   OH242688   2.913   4.547   5.733  0.4355  0.1290  0.2155
 7066TIP3    H142689   2.916   4.631   5.777  0.4603 -0.2413  0.9156
 7066TIP3    H242690   2.999   4.538   5.692  0.8826 -0.1402  1.2152
 7067TIP3   OH242691   6.624   6.252  11.246  0.1948  0.1463  0.1013
 7067TIP3    H142692   6.618   6.319  11.178 -0.3343 -1.3340 -1.3330
 7067TIP3    H242693   6.559   6.187  11.221 -0.1734 -0.3132  2.1612
 7068TIP3   OH242694   5.375   1.575   4.126 -0.6743  0.0996  0.2734
 7068TIP3    H142695   5.447   1.590   4.065 -0.6614  3.0150  0.9296
 7068TIP3    H242696   5.307   1.533   4.074 -0.1480  1.3444 -1.4602
 7069TIP3   OH242697   4.937   6.262   3.454  0.1804 -0.0575 -0.1414
 7069TIP3    H142698   5.007   6.280   3.517  1.7751  1.1041 -2.1923
 7069TIP3    H242699   4.981   6.221   3.380 -1.8765 -2.6703 -0.0058
 7070TIP3   OH242700   5.720   0.917  12.581  0.4023  0.0940  0.1376
 7070TIP3    H142701   5.692   0.848  12.642 -0.9264 -0.2563 -0.8351
 7070TIP3    H242702   5.705   0.998  12.628 -0.9256 -0.1618  0.1919
 7071TIP3   OH242703   1.778   0.193  15.463  0.4242  0.8004 -0.5158
 7071TIP3    H142704   1.726   0.114  15.479 -0.3007  1.1816 -0.9613
 7071TIP3    H242705   1.857   0.162  15.419 -0.8579  0.5479 -2.7246
 7072TIP3   OH242706   5.428   5.425  10.845  0.0047 -0.2616 -0.6123
 7072TIP3    H142707   5.345   5.376  10.840  0.9934 -2.4526  2.7521
 7072TIP3    H242708   5.494   5.363  10.814  0.8856  0.0340  0.6557
 7073TIP3   OH242709   2.402   4.313  15.199 -0.3649  0.1220 -0.4240
 7073TIP3    H142710   2.496   4.294  15.201 -0.5446 -0.7316  0.9851
 7073TIP3    H242711   2.373   4.284  15.113  0.7559  0.8388 -1.0449
 7074TIP3   OH242712   3.340   6.216  15.021 -0.3438  0.3645  0.1425
 7074TIP3    H142713   3.397   6.268  14.963  0.7163 -1.3965 -0.4184
 7074TIP3    H242714   3.266   6.191  14.966  0.3852 -0.8254 -0.3310
 7075TIP3   OH242715   4.809   4.826   2.017 -0.4811  0.0923  0.7750
 7075TIP3    H142716   4.812   4.881   1.939 -0.5161 -0.3692  0.4438
 7075TIP3    H242717   4.784   4.739   1.984 -0.2783 -0.1559  1.2688
 7076TIP3   OH242718   6.544   6.513   0.081 -0.2144 -0.7341  0.4271
 7076TIP3    H142719   6.454   6.543   0.094 -0.2702 -0.7228  0.0040
 7076TIP3    H242720   6.591   6.590   0.050  0.0088 -0.6662  0.9171
 7077TIP3   OH242721   0.676   1.095   5.405 -0.4673 -0.1989 -0.1391
 7077TIP3    H142722   0.655   1.173   5.354 -0.9077 -0.1319  0.1355
 7077TIP3    H242723   0.646   1.116   5.494 -1.5208 -1.0640 -0.2730
 7078TIP3   OH242724   1.046   1.606  14.066  0.2433  0.2058 -0.4019
 7078TIP3    H142725   0.998   1.689  14.073  0.4723  0.2902  0.1551
 7078TIP3    H242726   1.039   1.567  14.153  2.0404  0.6802 -0.0306
 7079TIP3   OH242727   1.565   6.346  12.057 -0.0619  0.0384  0.1944
 7079TIP3    H142728   1.603   6.356  11.970 -0.2817  2.1955  0.3357
 7079TIP3    H242729   1.471   6.340  12.041 -0.1813  1.4162  0.3465
 7080TIP3   OH242730   1.723   2.608  14.756 -0.0872 -0.0488 -0.1526
 7080TIP3    H142731   1.726   2.686  14.812  0.5715  1.3087 -2.0470
 7080TIP3    H242732   1.679   2.637  14.676  3.1101 -0.7428 -2.2335
 7081TIP3   OH242733   6.299   3.138  12.446  0.1170  0.4733  0.2451
 7081TIP3    H142734   6.347   3.095  12.375  0.2139  0.8551  0.0793
 7081TIP3    H242735   6.305   3.077  12.520  0.6410  0.4082  0.1474
 7082TIP3   OH242736   6.534   2.086   5.070 -0.3607 -0.2306  0.2931
 7082TIP3    H142737   6.545   2.175   5.038 -2.1690  0.2347  0.9191
 7082TIP3    H242738   6.562   2.031   4.997 -0.3596  0.8518 -0.5301
 7083TIP3   OH242739   1.122   1.263   5.496  0.2651  0.0486 -0.5065
 7083TIP3    H142740   1.103   1.175   5.529 -1.1281  0.4941 -0.0446
 7083TIP3    H242741   1.217   1.267   5.489  0.4982 -0.6902  1.7814
 7084TIP3   OH242742   4.759   3.805   1.392  0.2295 -0.3301  0.4660
 7084TIP3    H142743   4.847   3.768   1.389  1.4834  2.5971 -0.3656
 7084TIP3    H242744   4.760   3.863   1.468 -0.0924  1.6990 -1.0199
 7085TIP3   OH242745   4.601   2.742   1.871 -0.1620  0.3942 -0.9002
 7085TIP3    H142746   4.611   2.833   1.900  0.9480  0.4529 -1.4078
 7085TIP3    H242747   4.678   2.698   1.907 -2.0650 -0.9785  1.6403
 7086TIP3   OH242748   4.837   4.111  14.122 -0.3949  0.6019 -0.8127
 7086TIP3    H142749   4.888   4.188  14.148 -0.1453  0.5907 -1.2699
 7086TIP3    H242750   4.813   4.070  14.205 -0.5987  1.2186 -0.5634
 7087TIP3   OH242751   6.246   0.814   1.512  0.2687 -0.0725  0.3952
 7087TIP3    H142752   6.326   0.800   1.564  1.4654  2.3194 -0.7133
 7087TIP3    H242753   6.205   0.890   1.552 -0.0596  0.3181 -0.6732
 7088TIP3   OH242754   0.861   3.883   0.869  1.0210  0.3588 -0.5675
 7088TIP3    H142755   0.782   3.854   0.825  0.3559  0.6055  0.4395
 7088TIP3    H242756   0.879   3.970   0.833 -0.2643  1.1248  0.5631
 7089TIP3   OH242757   0.601   5.196   2.907  0.0729  0.2536  0.6743
 7089TIP3    H142758   0.616   5.224   2.816 -0.2601 -1.8347 -0.0358
 7089TIP3    H242759   0.688   5.182   2.943  0.1449 -2.6976 -0.5469
 7090TIP3   OH242760   2.623   4.314  15.808 -0.2427 -0.0865  0.0573
 7090TIP3    H142761   2.705   4.342  15.848 -0.9782 -1.4365  2.6173
 7090TIP3    H242762   2.638   4.325  15.714  2.5032  0.6455  0.5216
 7091TIP3   OH242763   3.831   5.161  14.106  0.2784  0.2700  0.3756
 7091TIP3    H142764   3.881   5.202  14.035 -0.3378 -1.3986 -1.0586
 7091TIP3    H242765   3.798   5.234  14.158  0.1472  1.5311 -1.4679
 7092TIP3   OH242766   5.589   4.659  16.893 -0.3895 -0.6989 -0.4508
 7092TIP3    H142767   5.500   4.650  16.859  0.3029 -0.2169 -2.4716
 7092TIP3    H242768   5.617   4.570  16.913 -0.5886 -1.0563 -1.7494
 7093TIP3   OH242769   6.338   3.600  17.143 -0.3337  0.2526  0.3045
 7093TIP3    H142770   6.348   3.513  17.103 -1.1814 -0.0547  0.7592
 7093TIP3    H242771   6.428   3.628  17.161  0.1065  0.6027 -2.2118
 7094TIP3   OH242772   1.215   4.134   3.474  0.3782  0.8403  0.0969
 7094TIP3    H142773   1.260   4.219   3.475  1.3483  0.3360  1.2266
 7094TIP3    H242774   1.161   4.135   3.553  0.2401  0.4858  0.0061
 7095TIP3   OH242775   4.791   1.142  16.821 -0.1033  0.0735  0.4495
 7095TIP3    H142776   4.704   1.180  16.831  0.7752  2.2477  0.2530
 7095TIP3    H242777   4.829   1.188  16.746  0.7832 -1.7122 -0.2318
 7096TIP3   OH242778   5.833   5.846   2.520 -0.7055 -0.0485  0.1940
 7096TIP3    H142779   5.813   5.924   2.572  0.0472 -0.3326  0.9325
 7096TIP3    H242780   5.913   5.810   2.561 -1.0315 -1.1853 -0.1470
 7097TIP3   OH242781   0.657   4.341   0.081  0.0029 -0.9241 -0.2108
 7097TIP3    H142782   0.697   4.254   0.073  0.9243 -0.5764  0.6926
 7097TIP3    H242783   0.567   4.327   0.050 -0.9314 -3.0019  3.1753
 7098TIP3   OH242784   5.050   0.147   5.985 -0.5143  0.0097  0.1745
 7098TIP3    H142785   5.113   0.172   6.053 -1.0348  0.2575  0.5767
 7098TIP3    H242786   5.023   0.059   6.010 -0.4621 -0.0262  0.1043
 7099TIP3   OH242787   2.961   4.568   6.113  0.2990 -0.0283  0.3865
 7099TIP3    H142788   3.033   4.527   6.065  0.0966 -0.2900  0.3117
 7099TIP3    H242789   2.945   4.650   6.067  0.2383 -0.1871  0.1300
 7100TIP3   OH242790   2.428   4.818  14.055  0.0500  0.3893 -0.6315
 7100TIP3    H142791   2.395   4.733  14.083  0.0977  1.3415  2.5252
 7100TIP3    H242792   2.375   4.881  14.103  0.6401  2.1508 -2.2189
 7101TIP3   OH242793   5.501   5.074  12.464  0.2454  0.0498 -0.4161
 7101TIP3    H142794   5.484   4.982  12.445  1.1203  0.1759 -1.8852
 7101TIP3    H242795   5.536   5.109  12.382  2.6688  0.9974  0.9761
 7102TIP3   OH242796   4.413   2.563   3.695 -0.0076 -0.2462 -0.1453
 7102TIP3    H142797   4.449   2.605   3.616 -0.6576  0.4814 -0.0641
 7102TIP3    H242798   4.320   2.550   3.675 -0.0547 -0.5713  0.2887
 7103TIP3   OH242799   3.926   1.307   3.385  0.4068  0.8680 -0.3469
 7103TIP3    H142800   4.003   1.250   3.382 -0.1687  0.0491  0.1628
 7103TIP3    H242801   3.902   1.319   3.293 -1.4885 -2.5320 -0.3744
 7104TIP3   OH242802   0.062   3.631   6.513 -0.1829  0.4094  0.6907
 7104TIP3    H142803   0.063   3.714   6.560  0.7823  0.5974  0.3493
 7104TIP3    H242804  -0.005   3.643   6.445  2.2624  2.1598 -1.5418
 7105TIP3   OH242805   5.159   3.976   2.398 -0.4719  0.3514 -0.2080
 7105TIP3    H142806   5.164   4.063   2.358 -0.0401  0.1206 -0.6621
 7105TIP3    H242807   5.194   3.917   2.332 -1.1885 -0.2286 -0.0722
 7106TIP3   OH242808   0.848   5.350   4.173  0.1189 -0.5595 -0.3569
 7106TIP3    H142809   0.790   5.274   4.164  0.2365 -1.0390  2.5431
 7106TIP3    H242810   0.795   5.416   4.218  0.3799  0.6862 -1.8474
 7107TIP3   OH242811   2.466   3.576  10.943  0.4830  0.4494 -0.1872
 7107TIP3    H142812   2.431   3.513  11.007  0.3268 -0.5630 -1.2464
 7107TIP3    H242813   2.413   3.654  10.956 -0.4021 -0.1774  0.0694
 7108TIP3   OH242814   2.903   2.801  15.472 -0.0685  0.2733  0.1083
 7108TIP3    H142815   2.901   2.896  15.479 -1.5810  0.5205 -2.7888
 7108TIP3    H242816   2.866   2.783  15.385  1.5747 -2.8859  0.0073
 7109TIP3   OH242817   5.147   2.762  10.313  0.1395 -0.0252 -1.0111
 7109TIP3    H142818   5.089   2.828  10.350 -0.5997 -0.6166 -1.1110
 7109TIP3    H242819   5.094   2.683  10.309  0.4659 -0.1626 -2.6188
 7110TIP3   OH242820   2.148   0.378  11.896 -0.3186  0.2824  0.5789
 7110TIP3    H142821   2.200   0.437  11.841 -0.4455 -1.8150 -1.9012
 7110TIP3    H242822   2.200   0.298  11.901 -1.9817 -0.8246  0.4826
 7111TIP3   OH242823   3.509   4.798   3.735 -0.2199 -0.2497  0.0052
 7111TIP3    H142824   3.532   4.724   3.679 -0.4231 -2.0045  2.2075
 7111TIP3    H242825   3.543   4.775   3.821 -2.1025  1.3039  1.1949
 7112TIP3   OH242826   5.801   0.887  11.916 -0.2543 -0.3145  0.6613
 7112TIP3    H142827   5.775   0.970  11.877 -1.1797 -0.0603  1.7838
 7112TIP3    H242828   5.749   0.821  11.870  0.2530 -0.2347 -0.0197
 7113TIP3   OH242829   3.205   4.879  15.370  0.1616  0.2021 -0.4016
 7113TIP3    H142830   3.199   4.887  15.275 -1.1330 -1.3898 -0.4645
 7113TIP3    H242831   3.118   4.852  15.398  0.8209 -0.4026  1.1355
 7114TIP3   OH242832   0.787   4.941  13.618  0.1343  0.4649 -0.3810
 7114TIP3    H142833   0.718   4.919  13.556  0.7581 -0.7809 -0.6511
 7114TIP3    H242834   0.866   4.950  13.565  0.4342  0.6097  0.0825
 7115TIP3   OH242835   3.732   5.994  12.801  0.1109  0.3596  0.3701
 7115TIP3    H142836   3.687   6.026  12.879 -0.3135  1.0557 -0.1595
 7115TIP3    H242837   3.803   6.057  12.787 -0.9721  1.3327 -0.9110
 7116TIP3   OH242838   6.265   0.522  15.158 -0.0304  0.3327 -0.0089
 7116TIP3    H142839   6.224   0.592  15.107 -1.3650  0.7519  1.6029
 7116TIP3    H242840   6.297   0.566  15.237 -1.3230 -0.9501  1.2478
 7117TIP3   OH242841   4.707   4.911   3.425  0.0667  0.4542  0.5284
 7117TIP3    H142842   4.727   4.874   3.339 -0.0425  0.9909  0.2729
 7117TIP3    H242843   4.792   4.917   3.468  0.1293  0.2474  0.4356
 7118TIP3   OH242844   3.482   1.069  10.905  0.1364  0.0685 -0.2956
 7118TIP3    H142845   3.463   1.139  10.842  1.7437 -0.3276 -1.2560
 7118TIP3    H242846   3.558   1.023  10.868 -0.2086 -1.4941  0.8878
 7119TIP3   OH242847   5.730   0.233   3.732 -0.0561  0.5286  0.6042
 7119TIP3    H142848   5.757   0.265   3.818 -1.3111  0.8923  0.8722
 7119TIP3    H242849   5.738   0.138   3.738 -1.5086  0.4651  1.5901
 7120TIP3   OH242850   6.081   4.022  16.043  0.0089 -0.4980  0.1742
 7120TIP3    H142851   6.005   3.964  16.044  1.7372 -2.9878 -3.3275
 7120TIP3    H242852   6.155   3.966  16.022  2.3003  2.4674 -0.1103
 7121TIP3   OH242853   0.241   3.340   5.742 -0.2113  0.3057 -0.1163
 7121TIP3    H142854   0.253   3.247   5.760 -0.3519  0.3776  0.3404
 7121TIP3    H242855   0.163   3.365   5.792 -1.3195  0.2193 -1.7527
 7122TIP3   OH242856   5.391   1.389   2.901  0.6591  0.8244  0.2553
 7122TIP3    H142857   5.362   1.306   2.866  0.1464  0.8057  0.7205
 7122TIP3    H242858   5.351   1.455   2.844 -1.1617  0.8321  1.5204
 7123TIP3   OH242859   4.131   4.563  14.099  0.1496 -0.1136  0.4307
 7123TIP3    H142860   4.046   4.576  14.057 -0.6766 -0.2842  2.0047
 7123TIP3    H242861   4.194   4.570  14.028 -1.1711  0.1408 -0.7438
 7124TIP3   OH242862   3.079   1.573   3.108 -0.7508 -0.5210  0.2187
 7124TIP3    H142863   3.130   1.613   3.037 -1.6485  0.8943  0.3322
 7124TIP3    H242864   3.096   1.479   3.100 -0.1516 -0.3071 -1.3327
 7125TIP3   OH242865   4.478   5.708  14.526 -0.1662 -0.3986 -0.1819
 7125TIP3    H142866   4.418   5.657  14.473  0.8591 -1.3020 -0.4951
 7125TIP3    H242867   4.429   5.787  14.549 -0.9768 -0.4780 -1.5995
 7126TIP3   OH242868   5.817   5.846  10.459 -0.3082  0.1139 -0.5853
 7126TIP3    H142869   5.859   5.901  10.525  1.3500 -2.0571  0.2155
 7126TIP3    H242870   5.723   5.853  10.477 -0.0188  1.4336  0.4646
 7127TIP3   OH242871   0.064   6.142   1.225 -0.1682  0.0150  0.2779
 7127TIP3    H142872  -0.005   6.140   1.158  1.0040 -1.4948 -0.9189
 7127TIP3    H242873   0.032   6.082   1.293  0.0660 -0.9061 -0.4061
 7128TIP3   OH242874   5.745   4.179  14.031  0.0228  0.2081 -0.2755
 7128TIP3    H142875   5.829   4.139  14.051  0.5336  0.4196 -1.9547
 7128TIP3    H242876   5.684   4.140  14.094  1.5892  0.9313  1.7361
 7129TIP3   OH242877   0.055   6.634  14.517  0.4842  0.1613 -0.3239
 7129TIP3    H142878  -0.037   6.656  14.525  0.7008  0.6394  0.9393
 7129TIP3    H242879   0.099   6.719  14.510  0.9459 -0.0085  0.4337
 7130TIP3   OH242880   0.405   1.606   2.495  0.1869  0.1561  0.3233
 7130TIP3    H142881   0.436   1.684   2.540  0.4047  1.0213 -1.3136
 7130TIP3    H242882   0.397   1.632   2.403 -5.7209  0.1673  0.6035
 7131TIP3   OH242883   3.648   5.784   1.348  0.2544  0.1649 -0.4127
 7131TIP3    H142884   3.731   5.759   1.307 -0.5243 -1.4641 -1.0334
 7131TIP3    H242885   3.587   5.797   1.275 -0.1224  1.0729  0.0511
 7132TIP3   OH242886   1.798   4.195  14.307 -0.3854  0.3266  0.0841
 7132TIP3    H142887   1.799   4.227  14.217  1.9504 -2.2241 -0.8906
 7132TIP3    H242888   1.865   4.247  14.351  0.0098  0.0819 -0.2247
 7133TIP3   OH242889   0.607   0.258  14.154  0.4607 -0.0266 -0.5221
 7133TIP3    H142890   0.547   0.224  14.087  1.2374 -1.3219 -0.5751
 7133TIP3    H242891   0.595   0.353  14.150  0.3695 -0.0933 -2.3788
 7134TIP3   OH242892   5.376   1.020  15.751  0.4492  0.3220 -0.2120
 7134TIP3    H142893   5.467   1.013  15.777 -0.0306 -0.8734  1.1828
 7134TIP3    H242894   5.334   0.941  15.784 -1.1712  1.0015 -0.5415
 7135TIP3   OH242895   1.882   5.883  14.007  0.5594  0.3631 -0.3023
 7135TIP3    H142896   1.864   5.955  13.947 -1.8393 -0.5855 -0.7843
 7135TIP3    H242897   1.808   5.885  14.068 -0.0087 -2.2285 -0.8691
 7136TIP3   OH242898   4.763   1.321  11.957  0.0767  0.1295 -0.0637
 7136TIP3    H142899   4.674   1.340  11.987 -0.0040  2.2795 -1.5677
 7136TIP3    H242900   4.810   1.404  11.966  1.9011 -0.9510  0.5898
 7137TIP3   OH242901   1.995   4.293   2.999 -0.1486  0.0066 -0.2826
 7137TIP3    H142902   1.906   4.280   3.031 -0.4561  2.1454 -0.1769
 7137TIP3    H242903   2.013   4.215   2.947 -1.2136 -1.5188  1.5771
 7138TIP3   OH242904   5.382   3.438  16.543  0.0124 -0.3220 -0.0054
 7138TIP3    H142905   5.460   3.388  16.519  1.0837  0.9893  0.6913
 7138TIP3    H242906   5.379   3.510  16.480  0.1196  0.3844  0.7844
 7139TIP3   OH242907   3.342   5.551  11.079 -0.4195  0.6186  0.0086
 7139TIP3    H142908   3.421   5.534  11.027 -0.6992 -1.0978  0.1232
 7139TIP3    H242909   3.290   5.471  11.071 -2.0684  1.6672  0.1028
 7140TIP3   OH242910   0.145   5.130   3.220  0.4614 -0.1442  0.3382
 7140TIP3    H142911   0.172   5.055   3.274 -1.4919 -1.9605 -1.1418
 7140TIP3    H242912   0.215   5.140   3.156 -0.0847 -1.8781 -0.5693
 7141TIP3   OH242913   1.958   6.132   3.810  0.1457  0.5887  0.3560
 7141TIP3    H142914   2.034   6.077   3.793 -1.0941 -1.4442  1.1265
 7141TIP3    H242915   1.931   6.163   3.724 -0.8134 -2.3594 -0.4715
 7142TIP3   OH242916   4.134   3.882  10.690  0.3405 -0.2621  0.0580
 7142TIP3    H142917   4.201   3.833  10.643  0.7153 -1.0329  1.3736
 7142TIP3    H242918   4.170   3.894  10.778 -0.3277  1.2008  0.1496
 7143TIP3   OH242919   3.457   1.424   1.642 -0.7741 -0.1800 -0.1104
 7143TIP3    H142920   3.472   1.403   1.549 -1.4144  0.1458 -0.2928
 7143TIP3    H242921   3.393   1.359   1.671 -0.0597 -0.7058  0.2877
 7144TIP3   OH242922   2.737   0.607   3.944  0.5976  0.4096 -0.5672
 7144TIP3    H142923   2.753   0.527   3.993 -2.9137  0.0573  0.1281
 7144TIP3    H242924   2.686   0.662   4.003 -0.2184  1.6461 -2.3577
 7145TIP3   OH242925   0.513   2.959   5.367 -0.5718  0.4569 -0.7037
 7145TIP3    H142926   0.589   2.912   5.401 -1.2220 -1.2918 -1.6273
 7145TIP3    H242927   0.534   3.051   5.382  0.6030 -0.1201  1.3900
 7146TIP3   OH242928   3.903   3.789   3.328  0.5118 -0.4027 -0.4599
 7146TIP3    H142929   3.810   3.793   3.305  0.2974  2.8745  0.7424
 7146TIP3    H242930   3.925   3.696   3.322 -2.9863 -1.3250 -0.1671
 7147TIP3   OH242931   3.885   4.776  14.579  0.2987  0.5960 -0.0260
 7147TIP3    H142932   3.927   4.823  14.507  0.1571  0.0763 -0.4507
 7147TIP3    H242933   3.951   4.772  14.648  1.5030 -1.5764 -1.2476
 7148TIP3   OH242934   3.388   1.233  13.936  0.0028 -0.3059 -0.7969
 7148TIP3    H142935   3.336   1.192  14.004  0.9209  1.1030  0.8027
 7148TIP3    H242936   3.338   1.311  13.910 -0.5322 -1.0463 -2.0252
 7149TIP3   OH242937   4.106   0.957  12.810  1.0464  0.4024 -0.2973
 7149TIP3    H142938   4.168   1.030  12.800  0.5372  0.8690 -0.1052
 7149TIP3    H242939   4.074   0.967  12.900  1.2152 -0.2521 -0.1650
 7150TIP3   OH242940   1.303   4.528   5.279  0.2664  0.3859  0.1389
 7150TIP3    H142941   1.266   4.513   5.366 -1.1575  1.4881 -0.2633
 7150TIP3    H242942   1.397   4.538   5.295  0.1900 -0.7733  1.3794
 7151TIP3   OH242943   3.587   1.802   5.637 -0.3977 -0.3834 -0.2819
 7151TIP3    H142944   3.525   1.729   5.638  0.1576 -0.8756 -1.1527
 7151TIP3    H242945   3.591   1.828   5.545  2.1232 -1.5951 -0.5513
 7152TIP3   OH242946   0.963   6.659   2.919 -0.4339  0.2611 -0.0789
 7152TIP3    H142947   1.040   6.607   2.943  0.3136  1.7262  0.7563
 7152TIP3    H242948   0.892   6.595   2.913  0.6176 -0.9577  0.2324
 7153TIP3   OH242949   5.665   5.630   2.038 -0.0831 -0.3812  0.3342
 7153TIP3    H142950   5.651   5.567   2.109 -0.8707 -0.1402  0.3991
 7153TIP3    H242951   5.757   5.618   2.013  0.2892 -0.2621  1.6031
 7154TIP3   OH242952   1.292   4.397   4.099 -0.4303  0.2969  0.0587
 7154TIP3    H142953   1.351   4.437   4.036  0.1576  0.4990  0.7253
 7154TIP3    H242954   1.272   4.311   4.063  1.6567 -0.4718  0.6541
 7155TIP3   OH242955   3.777   0.477  14.010  0.2902  0.4295 -0.1042
 7155TIP3    H142956   3.704   0.528  13.975 -0.3826 -0.5444 -0.1438
 7155TIP3    H242957   3.781   0.400  13.953 -0.5797 -1.0027  1.7051
 7156TIP3   OH242958   5.032   2.206  16.915 -0.0099 -0.3413  0.0626
 7156TIP3    H142959   4.990   2.267  16.976 -2.6099 -1.2744 -0.7004
 7156TIP3    H242960   4.965   2.188  16.849  1.6432 -1.8755 -1.2680
 7157TIP3   OH242961   5.816   6.641  15.729  0.3733 -0.3472 -0.0754
 7157TIP3    H142962   5.904   6.603  15.724 -0.1923 -1.3212 -3.3475
 7157TIP3    H242963   5.766   6.579  15.782  0.3649 -2.4464 -2.4805
 7158TIP3   OH242964   1.612   6.501   4.532 -0.2063 -0.4748 -0.1789
 7158TIP3    H142965   1.571   6.586   4.514 -0.8137 -0.7301 -0.0040
 7158TIP3    H242966   1.612   6.456   4.447  3.2626  1.0347 -1.0488
 7159TIP3   OH242967   2.058   4.394   3.252  0.5502 -0.2874  0.3952
 7159TIP3    H142968   2.150   4.418   3.261  0.4599  0.2436 -0.0775
 7159TIP3    H242969   2.051   4.353   3.166  0.4213 -0.7006  0.5990
 7160TIP3   OH242970   0.880   1.197  14.173 -0.0562  0.3949 -0.2307
 7160TIP3    H142971   0.848   1.267  14.230  0.2971  0.0331  0.4192
 7160TIP3    H242972   0.947   1.153  14.225 -0.7951 -0.8952 -0.3399
 7161TIP3   OH242973   5.121   0.827   5.810  0.4201  0.0756 -0.0990
 7161TIP3    H142974   5.135   0.819   5.715 -3.1727 -0.5719 -0.6618
 7161TIP3    H242975   5.158   0.747   5.846 -0.4881 -0.9240 -1.3139
 7162TIP3   OH242976   5.066   3.543  15.489  0.8134  0.7545 -0.3548
 7162TIP3    H142977   5.071   3.456  15.450 -0.1763  0.8941 -0.8103
 7162TIP3    H242978   5.004   3.591  15.434  0.8027  1.5213  0.3124
 7163TIP3   OH242979   4.935   4.393  16.134 -0.3569 -0.1603 -0.7349
 7163TIP3    H142980   4.976   4.338  16.200 -2.2792  0.9586  1.4883
 7163TIP3    H242981   4.984   4.475  16.136 -0.2967 -0.1939 -0.8189
 7164TIP3   OH242982   2.901   4.096   3.789 -0.3183 -0.0140  0.1022
 7164TIP3    H142983   2.924   4.020   3.735 -0.6595  0.5538 -0.8592
 7164TIP3    H242984   2.883   4.166   3.726  0.1017  0.9022  0.9802
 7165TIP3   OH242985   3.440   2.498   0.396 -0.2108  0.6455 -0.1709
 7165TIP3    H142986   3.483   2.554   0.331  0.4843 -0.1672 -0.4189
 7165TIP3    H242987   3.401   2.427   0.344  1.6066 -0.8219  0.3897
 7166TIP3   OH242988   6.799   0.558  15.580 -0.4122 -0.1339  0.1992
 7166TIP3    H142989   6.864   0.583  15.646 -0.0018  0.4245 -0.4089
 7166TIP3    H242990   6.812   0.464  15.568  0.5358  0.0377 -0.1819
 7167TIP3   OH242991   1.476   0.303   1.131  0.0011  0.3393  0.0319
 7167TIP3    H142992   1.461   0.314   1.225  0.7496 -0.4730  0.2468
 7167TIP3    H242993   1.490   0.209   1.119 -1.7466  0.2069 -1.1405
 7168TIP3   OH242994   4.010   5.505  15.925 -0.3442  0.5440  0.3772
 7168TIP3    H142995   4.057   5.578  15.884  1.3380 -0.9367 -0.3934
 7168TIP3    H242996   4.073   5.434  15.926 -1.8609 -0.8064  1.4403
 7169TIP3   OH242997   2.790   5.154   6.072  0.2863 -0.4324  0.4174
 7169TIP3    H142998   2.766   5.243   6.047  1.5647  0.6224  2.7633
 7169TIP3    H242999   2.858   5.129   6.009 -0.4537  0.0024 -0.5799
 7170TIP3   OH243000   4.910   2.700   0.096 -0.1904 -0.1206 -0.3621
 7170TIP3    H143001   4.926   2.653   0.178  0.0353 -1.0033 -0.9028
 7170TIP3    H243002   4.993   2.745   0.078  0.1112 -0.7600 -0.6260
 7171TIP3   OH243003   4.318   3.987  11.351  1.1896 -0.2623  0.6250
 7171TIP3    H143004   4.407   3.954  11.366  1.5897  1.5832  2.5448
 7171TIP3    H243005   4.331   4.067  11.301  0.3819 -1.6225 -1.8358
 7172TIP3   OH243006   5.553   2.282   1.565  0.0979  0.8817 -0.3852
 7172TIP3    H143007   5.517   2.325   1.487 -0.1544  0.9599 -0.2284
 7172TIP3    H243008   5.540   2.345   1.636 -2.6003 -0.4128  0.3612
 7173TIP3   OH243009   2.941   6.032  15.937 -0.1482  0.0091 -0.1133
 7173TIP3    H143010   2.893   6.023  15.855  0.4013 -0.2000 -0.4152
 7173TIP3    H243011   3.032   6.011  15.914 -0.1199 -0.8034  0.7035
 7174TIP3   OH243012   4.404   2.406   6.021 -0.2547 -0.0128  0.4576
 7174TIP3    H143013   4.386   2.500   6.020  0.0628  0.0573  1.0123
 7174TIP3    H243014   4.463   2.394   6.096  2.0660 -0.2299 -1.3353
 7175TIP3   OH243015   5.281   6.814   0.490  0.3522 -0.1029 -0.1872
 7175TIP3    H143016   5.346   6.745   0.501 -0.0068 -0.5646 -0.9170
 7175TIP3    H243017   5.277   6.828   0.395 -0.2249  0.3001 -0.1047
 7176TIP3   OH243018   1.761   5.847  13.085 -0.2236 -0.2032  0.9152
 7176TIP3    H143019   1.729   5.934  13.059 -0.5709 -1.1886 -2.2135
 7176TIP3    H243020   1.683   5.793  13.092  0.1892 -0.9074  0.1918
 7177TIP3   OH243021   5.869   5.253  13.552  0.6147  0.5126  0.0246
 7177TIP3    H143022   5.802   5.300  13.502  0.2946 -0.5911 -0.6003
 7177TIP3    H243023   5.950   5.303  13.538  0.7974 -0.4648 -2.6255
 7178TIP3   OH243024   3.368   6.613  16.954  0.1717  0.4166  0.0290
 7178TIP3    H143025   3.328   6.610  17.041  1.9124  1.4165  0.8917
 7178TIP3    H243026   3.297   6.590  16.894 -1.2335  0.4252  1.6539
 7179TIP3   OH243027   4.593   1.180  15.623  0.0322  0.3304  0.0799
 7179TIP3    H143028   4.561   1.132  15.700  0.3568  2.0573  1.3143
 7179TIP3    H243029   4.687   1.162  15.621  0.0391  0.3626  0.1361
 7180TIP3   OH243030   2.316   3.690   3.019  0.6980  0.1813 -0.2571
 7180TIP3    H143031   2.331   3.605   2.977  0.2730 -0.2569  0.4821
 7180TIP3    H243032   2.292   3.669   3.109 -0.1830  1.0492 -0.2788
 7181TIP3   OH243033   0.254   4.967   6.302  0.7367 -0.5030  0.2041
 7181TIP3    H143034   0.348   4.964   6.280  0.5288 -0.0311 -0.7581
 7181TIP3    H243035   0.252   4.967   6.397  1.7242 -0.4184  0.2308
 7182TIP3   OH243036   6.293   2.984  14.734 -0.1735  0.3653  0.0744
 7182TIP3    H143037   6.283   2.894  14.703  0.4953 -0.4080  1.9733
 7182TIP3    H243038   6.307   3.035  14.655 -2.7648 -0.8543 -1.2341
 7183TIP3   OH243039   0.041   1.721   4.841  0.3602  0.6642  0.3608
 7183TIP3    H143040   0.056   1.724   4.746  0.9094  0.3692  0.4369
 7183TIP3    H243041  -0.043   1.766   4.853 -0.3877 -0.4796 -0.4046
 7184TIP3   OH243042   6.325   0.229   2.307  0.8092  0.8078  0.0419
 7184TIP3    H143043   6.265   0.179   2.252  0.3330  1.0598  0.3251
 7184TIP3    H243044   6.341   0.309   2.258 -1.0063  1.8172  1.0388
 7185TIP3   OH243045   5.389   4.160  16.830 -0.4832 -0.2807 -0.5387
 7185TIP3    H143046   5.428   4.244  16.806  1.4077 -1.4388 -1.6491
 7185TIP3    H243047   5.342   4.133  16.751 -0.1565 -0.7939 -0.5549
 7186TIP3   OH243048   5.207   3.918   2.800  0.0937 -0.3304 -0.4274
 7186TIP3    H143049   5.119   3.948   2.822  0.2990 -0.1775  0.1775
 7186TIP3    H243050   5.194   3.828   2.768 -0.1300 -0.8372  1.0240
 7187TIP3   OH243051   0.934   4.629   2.850  0.1725 -0.3280 -0.5908
 7187TIP3    H143052   0.852   4.654   2.892  0.2356 -0.2046 -0.5397
 7187TIP3    H243053   1.000   4.684   2.893  0.3399 -0.7344 -0.3332
 7188TIP3   OH243054   5.322   2.485  13.350  0.4298 -0.6435  0.3887
 7188TIP3    H143055   5.401   2.495  13.402  0.2006 -1.5495  0.9172
 7188TIP3    H243056   5.353   2.455  13.265  0.8824  1.6902 -0.3234
 7189TIP3   OH243057   1.348   6.463  13.011  0.0680 -0.1616 -0.0468
 7189TIP3    H143058   1.363   6.372  13.036  0.1570 -0.2150 -0.2954
 7189TIP3    H243059   1.379   6.514  13.086 -0.6544 -0.3592  0.3933
 7190TIP3   OH243060   1.033   4.385   1.230  0.1120  0.4882 -0.3507
 7190TIP3    H143061   1.053   4.314   1.169 -1.3890 -1.4808  1.4095
 7190TIP3    H243062   0.957   4.429   1.193 -0.9732 -0.8857  0.2191
 7191TIP3   OH243063   1.098   6.230   0.896  0.2678  0.3417 -0.0255
 7191TIP3    H143064   1.141   6.247   0.811 -0.8984  1.4350 -0.4182
 7191TIP3    H243065   1.099   6.316   0.939  0.9211 -0.2327  1.1099
 7192TIP3   OH243066   1.468   5.802   4.850 -0.6304 -0.1597 -0.2460
 7192TIP3    H143067   1.506   5.821   4.765 -2.3608 -2.2814 -1.5356
 7192TIP3    H243068   1.477   5.707   4.860 -2.9175 -0.3050  0.6909
 7193TIP3   OH243069   3.052   5.617  12.235 -0.3695  0.3928  0.4630
 7193TIP3    H143070   3.105   5.592  12.311 -1.4893 -0.4565  0.9745
 7193TIP3    H243071   2.996   5.542  12.219 -2.1925  1.6962  0.6035
 7194TIP3   OH243072   2.649   0.571  13.218  0.0868  0.0734  0.1793
 7194TIP3    H143073   2.743   0.584  13.224 -0.1886  1.8336  1.2464
 7194TIP3    H243074   2.637   0.508  13.147  2.0421  0.0462 -0.1396
 7195TIP3   OH243075   6.057   1.398  11.806 -0.0536 -0.7313 -0.0736
 7195TIP3    H143076   6.134   1.455  11.798 -0.7693 -0.0788 -2.6475
 7195TIP3    H243077   6.064   1.338  11.733 -1.6627 -1.0839  0.0563
 7196TIP3   OH243078   2.375   1.556  15.152  0.2606 -0.1671 -0.7521
 7196TIP3    H143079   2.365   1.632  15.095 -1.4676  0.4891  0.4133
 7196TIP3    H243080   2.439   1.583  15.218 -1.8274  1.0003  0.8379
 7197TIP3   OH243081   4.078   6.061   0.926 -0.1673  0.2072 -0.3373
 7197TIP3    H143082   4.062   6.047   0.833  0.2133 -1.3527 -0.1768
 7197TIP3    H243083   4.170   6.086   0.931 -0.0921 -0.0708 -0.3428
 7198TIP3   OH243084   0.199   1.620  11.902  0.4370 -0.2692  0.1205
 7198TIP3    H143085   0.237   1.706  11.921 -1.3472  0.8826 -1.4779
 7198TIP3    H243086   0.248   1.589  11.825 -0.1554  0.1142 -0.4104
 7199TIP3   OH243087   2.215   4.598  14.787  0.3610  0.3848  0.0652
 7199TIP3    H143088   2.271   4.673  14.769  2.1461 -0.5425  1.6211
 7199TIP3    H243089   2.177   4.616  14.873  0.9509 -0.5641  0.5380
 7200TIP3   OH243090   5.717   3.581  16.397 -0.1156  0.1165 -0.0968
 7200TIP3    H143091   5.758   3.501  16.366  1.8079  0.5492  1.2148
 7200TIP3    H243092   5.660   3.553  16.469 -2.2147 -0.4904 -1.9428
 7201TIP3   OH243093   2.465   6.222  12.154  0.7175  0.2138 -0.5505
 7201TIP3    H143094   2.528   6.229  12.227  0.6495 -1.0319 -0.3626
 7201TIP3    H243095   2.401   6.158  12.184  0.9049 -0.6069 -1.8684
 7202TIP3   OH243096   4.120   3.277   1.471 -0.7906 -0.0535 -1.1901
 7202TIP3    H143097   4.033   3.305   1.499 -1.2034 -0.4880 -2.0262
 7202TIP3    H243098   4.115   3.276   1.375 -0.3665 -1.6697 -1.2056
 7203TIP3   OH243099   4.655   1.206  12.239  0.0415 -0.4494  0.4508
 7203TIP3    H143100   4.602   1.214  12.159 -0.8792 -0.8322  1.0183
 7203TIP3    H243101   4.604   1.251  12.306  0.9821  0.1869  0.7582
 7204TIP3   OH243102   0.718   4.486  15.919  0.4877 -0.5937 -0.3933
 7204TIP3    H143103   0.804   4.452  15.897  1.1768  0.7456  0.1828
 7204TIP3    H243104   0.695   4.443  16.001  0.7181 -0.7526 -0.4148
 7205TIP3   OH243105   0.827   2.823   4.851  0.7206 -0.2510  0.1014
 7205TIP3    H143106   0.835   2.910   4.890  2.1158  0.5501 -1.8957
 7205TIP3    H243107   0.917   2.790   4.850 -0.0271 -2.6043  2.7166
 7206TIP3   OH243108   5.823   0.207   4.362 -0.3225  0.2278  0.4276
 7206TIP3    H143109   5.765   0.191   4.288  0.4731  0.6975 -0.3151
 7206TIP3    H243110   5.780   0.165   4.436 -1.1250 -0.2601 -0.3012
 7207TIP3   OH243111   1.077   6.070  11.511 -0.2362 -0.1591 -0.1411
 7207TIP3    H143112   1.001   6.127  11.528  0.6814  1.2640 -0.7319
 7207TIP3    H243113   1.038   5.990  11.477 -1.6676 -0.5414  2.2605
 7208TIP3   OH243114   4.969   4.657   3.598 -0.6215 -0.3590 -0.7846
 7208TIP3    H143115   5.031   4.591   3.568  2.9271  2.2651  0.3157
 7208TIP3    H243116   4.991   4.735   3.546 -0.5668  1.6242  2.1067
 7209TIP3   OH243117   2.626   5.186   3.570 -0.3458  0.0649  0.6964
 7209TIP3    H143118   2.691   5.250   3.600  1.0268 -1.4511  1.0458
 7209TIP3    H243119   2.552   5.239   3.541 -0.0015  1.7358  2.7274
 7210TIP3   OH243120   0.709   1.933   6.049 -0.5835  0.1581  0.0385
 7210TIP3    H143121   0.701   1.936   5.953  1.5586 -0.2627 -0.1709
 7210TIP3    H243122   0.785   1.987   6.069  0.8735 -2.2120  1.2199
 7211TIP3   OH243123   5.590   3.961  12.706  0.0437  0.2112  0.4307
 7211TIP3    H143124   5.670   3.909  12.710  0.0052  0.0702 -0.4021
 7211TIP3    H243125   5.553   3.942  12.619 -0.1360  1.3679  0.2348
 7212TIP3   OH243126   4.190   5.184   2.103  0.8693 -0.4567  0.2794
 7212TIP3    H143127   4.179   5.278   2.093  0.8800 -0.5043 -0.1938
 7212TIP3    H243128   4.231   5.173   2.189  1.1194 -0.0129  0.2165
 7213TIP3   OH243129   2.833   1.806   1.322  0.0012  0.1333  0.0918
 7213TIP3    H143130   2.800   1.799   1.411 -1.4177  1.0371 -0.3305
 7213TIP3    H243131   2.793   1.733   1.275 -1.4718  1.2462 -0.4286
 7214TIP3   OH243132   1.188   6.366   4.648 -0.3398 -0.2079 -0.1496
 7214TIP3    H143133   1.161   6.431   4.712  0.0893  1.7579 -1.9348
 7214TIP3    H243134   1.183   6.283   4.695 -0.6786  1.1203  2.2196
 7215TIP3   OH243135   5.593   3.761  11.869 -0.5978  0.2384  0.0310
 7215TIP3    H143136   5.637   3.845  11.885 -0.4162  0.1609 -0.0539
 7215TIP3    H243137   5.590   3.719  11.955  1.1341 -0.5394 -0.2472
 7216TIP3   OH243138   2.007   4.621   2.406  0.3734 -0.1707 -0.3732
 7216TIP3    H143139   2.086   4.603   2.457  0.0523  1.6371  0.7929
 7216TIP3    H243140   1.936   4.585   2.459  0.1347  0.8043 -0.0320
 7217TIP3   OH243141   1.796   1.400   0.936  0.4411  0.3156 -0.2498
 7217TIP3    H143142   1.701   1.404   0.936  0.3220 -1.8170 -1.3370
 7217TIP3    H243143   1.821   1.414   0.844  1.1821  0.7887  0.0175
 7218TIP3   OH243144   4.618   6.680   2.854  0.3175 -0.5365  0.0689
 7218TIP3    H143145   4.570   6.673   2.936  1.3609  0.6919  0.8107
 7218TIP3    H243146   4.558   6.722   2.793 -0.3087 -1.0534  0.3299
 7219TIP3   OH243147   4.642   0.860   3.879 -0.5819 -0.5301 -0.1176
 7219TIP3    H143148   4.625   0.775   3.920 -2.6199 -0.1758 -0.1724
 7219TIP3    H243149   4.645   0.841   3.785  0.1449 -0.7193 -0.0587
 7220TIP3   OH243150   0.175   3.965  16.458  0.5128 -0.4613 -0.2301
 7220TIP3    H143151   0.080   3.968  16.467  0.4919  1.2991 -0.8321
 7220TIP3    H243152   0.208   4.007  16.537  0.7535  0.1380 -0.6474
 7221TIP3   OH243153   0.551   5.208   2.612 -0.2404 -0.0450  0.1762
 7221TIP3    H143154   0.511   5.143   2.554  2.6431 -1.6969 -0.0420
 7221TIP3    H243155   0.615   5.253   2.557 -0.4668  1.3047  0.9841
 7222TIP3   OH243156   1.285   6.365  17.250 -0.4708 -0.2436  0.6766
 7222TIP3    H143157   1.314   6.299  17.313 -0.2581 -0.0038  0.8329
 7222TIP3    H243158   1.196   6.338  17.226  0.6922 -2.2623 -1.5481
 7223TIP3   OH243159   6.769   2.976   1.692  0.1390  0.3554  0.2015
 7223TIP3    H143160   6.775   3.063   1.651 -0.4800  0.4648  0.3348
 7223TIP3    H243161   6.816   2.918   1.633 -1.2322  0.4060 -0.9582
 7224TIP3   OH243162   1.003   4.733   4.811 -0.2259 -0.3847  0.0840
 7224TIP3    H143163   1.043   4.647   4.801  0.9188  0.4341 -2.6911
 7224TIP3    H243164   1.035   4.784   4.737 -3.0790  1.5922  0.1208
 7225TIP3   OH243165   0.018   4.705  11.449  0.4701 -0.7380 -0.1108
 7225TIP3    H143166   0.091   4.728  11.391 -1.1368 -1.9346 -2.7078
 7225TIP3    H243167   0.032   4.613  11.471  0.0878 -0.8006 -0.1137
 7226TIP3   OH243168   0.238   5.467   1.144  0.4304  0.3492  0.3901
 7226TIP3    H143169   0.263   5.541   1.199  2.3595 -0.6360  0.8784
 7226TIP3    H243170   0.321   5.422   1.125 -0.6106 -1.1971 -0.5931
 7227TIP3   OH243171   4.496   5.563   0.858  0.1566  0.0562 -0.3842
 7227TIP3    H143172   4.469   5.620   0.785 -0.0100 -0.8232 -1.0184
 7227TIP3    H243173   4.419   5.510   0.876  0.6059 -0.6055 -0.4121
 7228TIP3   OH243174   5.053   0.443   3.185 -0.2935  0.5564 -0.5598
 7228TIP3    H143175   5.090   0.433   3.273 -1.1806  0.2095 -0.2159
 7228TIP3    H243176   5.040   0.353   3.155  1.5546  0.6566 -1.7228
 7229TIP3   OH243177   0.679   3.253   2.190 -0.0036  0.2323  0.0696
 7229TIP3    H143178   0.600   3.199   2.189  0.5354 -0.6238  1.4362
 7229TIP3    H243179   0.692   3.275   2.282  1.8470 -0.4280 -0.0055
 7230TIP3   OH243180   1.699   2.110  16.809 -0.4565  0.0887  0.2992
 7230TIP3    H143181   1.727   2.200  16.794 -1.1969  0.7261  2.5495
 7230TIP3    H243182   1.779   2.059  16.803  0.3072  1.1658  1.0850
 7231TIP3   OH243183   0.034   4.624  16.243 -0.0081  0.2705 -0.1676
 7231TIP3    H143184   0.117   4.591  16.208 -0.8623 -0.5777 -1.4481
 7231TIP3    H243185  -0.005   4.673  16.170 -0.0773  1.6971  0.8160
 7232TIP3   OH243186   5.663   5.802   4.086  0.2675 -0.5911 -0.5401
 7232TIP3    H143187   5.635   5.846   4.006  2.3127 -0.9797 -1.4972
 7232TIP3    H243188   5.724   5.734   4.056  1.3798 -0.4572  1.3781
 7233TIP3   OH243189   5.639   6.635  12.765  0.2352  0.3736 -0.0428
 7233TIP3    H143190   5.647   6.711  12.824  0.2023 -0.3428  0.9013
 7233TIP3    H243191   5.662   6.669  12.679 -0.4702  1.6239  0.2519
 7234TIP3   OH243192   3.486   0.832   5.145 -0.0649  0.8184  0.5051
 7234TIP3    H143193   3.470   0.794   5.232  0.3505  0.4507  0.4230
 7234TIP3    H243194   3.405   0.879   5.124 -0.8942 -0.6886  0.2634
 7235TIP3   OH243195   3.571   3.536   2.712 -0.2517 -0.5021 -0.0277
 7235TIP3    H143196   3.655   3.532   2.758 -0.5548 -1.6171  0.4459
 7235TIP3    H243197   3.513   3.582   2.772 -0.2285 -0.5633  0.0417
 7236TIP3   OH243198   4.733   0.107  16.017 -0.2285 -0.2661  0.0574
 7236TIP3    H143199   4.724   0.135  16.108  1.9897 -2.6297  1.0451
 7236TIP3    H243200   4.722   0.188  15.967 -2.0585  0.9838  2.3634
 7237TIP3   OH243201   2.022   2.917   1.575 -0.3669 -0.2356 -0.6538
 7237TIP3    H143202   2.003   3.008   1.552 -0.5710 -0.4937 -1.5511
 7237TIP3    H243203   2.005   2.868   1.494 -0.8457 -1.1523 -0.0148
 7238TIP3   OH243204   4.351   6.375  15.468 -0.5756 -0.3079  0.2430
 7238TIP3    H143205   4.365   6.468  15.446 -1.9276 -0.5274 -1.6523
 7238TIP3    H243206   4.317   6.377  15.557  0.1471  0.9571  0.5198
 7239TIP3   OH243207   5.648   6.107   3.782  0.2556 -0.0441  0.0078
 7239TIP3    H143208   5.693   6.172   3.728  0.3199  0.1462  0.2861
 7239TIP3    H243209   5.561   6.099   3.743  0.2538  0.1997 -0.0370
 7240TIP3   OH243210   1.984   1.358  14.474 -0.1828 -0.3598 -0.1577
 7240TIP3    H143211   1.896   1.322  14.467  0.0240 -1.0933  0.8496
 7240TIP3    H243212   2.037   1.287  14.510  0.5025  0.5170  0.6203
 7241TIP3   OH243213   5.352   6.666   1.593 -0.7351  1.0006 -0.1463
 7241TIP3    H143214   5.427   6.619   1.631 -0.8282 -0.0355 -1.2331
 7241TIP3    H243215   5.277   6.639   1.647 -0.3413  2.0654  0.9652
 7242TIP3   OH243216   1.942   2.172  13.896  0.5827  0.2895  0.8624
 7242TIP3    H143217   1.993   2.153  13.818 -0.8537  0.2746 -0.0944
 7242TIP3    H243218   1.980   2.115  13.963  0.6882 -1.0130 -0.2743
 7243TIP3   OH243219   3.571   2.031   0.185  0.3044 -0.4674 -0.5490
 7243TIP3    H143220   3.657   2.060   0.213  0.1172 -1.1043  0.7153
 7243TIP3    H243221   3.573   1.936   0.196 -0.5419 -0.4890 -0.5542
 7244TIP3   OH243222   3.270   6.756  14.791 -0.3625  0.2189  0.0267
 7244TIP3    H143223   3.216   6.722  14.862 -1.1928  1.4492 -0.0030
 7244TIP3    H243224   3.354   6.777  14.831 -1.1214  1.7502  0.8295
 7245TIP3   OH243225   1.092   5.661   2.726 -0.0258 -0.2136 -0.1283
 7245TIP3    H143226   1.154   5.590   2.704 -1.2238 -1.3287  0.0201
 7245TIP3    H243227   1.045   5.677   2.644  0.0780  0.2648 -0.0970
 7246TIP3   OH243228   3.509   1.868   4.487 -0.1538  0.3042  0.5609
 7246TIP3    H143229   3.460   1.881   4.406  1.8026  1.7353 -0.4474
 7246TIP3    H243230   3.483   1.781   4.517 -0.8479 -0.3044 -1.6562
 7247TIP3   OH243231   6.048   2.969  13.942 -0.0159  0.3116 -0.3857
 7247TIP3    H143232   6.035   2.960  14.037  4.0155 -2.6296  0.0112
 7247TIP3    H243233   5.968   2.932  13.904 -0.1715 -1.7797  1.8307
 7248TIP3   OH243234   3.914   4.711   3.886  0.1135 -0.0680  0.0926
 7248TIP3    H143235   3.928   4.767   3.810 -0.8478  0.4236  0.2727
 7248TIP3    H243236   3.957   4.758   3.958  0.8470 -0.4364 -0.0940
 7249TIP3   OH243237   1.467   6.171   2.316  0.5398  0.7061  0.0740
 7249TIP3    H143238   1.469   6.255   2.271  2.3213  1.5798  1.6917
 7249TIP3    H243239   1.381   6.169   2.358  0.3914  1.6139 -0.1625
 7250TIP3   OH243240   5.703   1.235  14.276  0.0043  0.1622  0.2315
 7250TIP3    H143241   5.784   1.187  14.291 -1.1843 -1.5785  1.2977
 7250TIP3    H243242   5.659   1.235  14.361 -1.8363 -0.2822 -0.6988
 7251TIP3   OH243243   2.222   2.991  13.849  0.3833 -0.6330  0.1971
 7251TIP3    H143244   2.220   3.055  13.921 -0.6159  0.6462 -0.9357
 7251TIP3    H243245   2.309   3.001  13.811  0.7520 -0.9880  0.9346
 7252TIP3   OH243246   1.003   6.170   6.337 -0.4177 -0.6165 -0.0228
 7252TIP3    H143247   0.991   6.076   6.341  1.1215 -0.8209  0.0448
 7252TIP3    H243248   1.086   6.186   6.383 -1.5846  0.9594  1.5716
 7253TIP3   OH243249   4.789   1.086   0.617 -0.5581  0.6058  0.2893
 7253TIP3    H143250   4.819   1.058   0.703 -2.1315 -1.8914  0.0849
 7253TIP3    H243251   4.704   1.129   0.634 -0.5668  0.6850  0.0453
 7254TIP3   OH243252   0.300   0.916  12.533 -0.7374 -0.2659 -0.1133
 7254TIP3    H143253   0.266   0.883  12.616  0.5348 -0.1844  0.4394
 7254TIP3    H243254   0.358   0.988  12.557 -0.1416 -0.4224 -1.0452
 7255TIP3   OH243255   5.782   3.569  12.075 -0.6372  0.4381  0.0334
 7255TIP3    H143256   5.862   3.613  12.048 -0.2107 -0.7641 -0.6985
 7255TIP3    H243257   5.756   3.614  12.155  0.8490  0.7535  0.3585
 7256TIP3   OH243258   2.200   6.519  11.381 -0.7956 -0.4688  0.0451
 7256TIP3    H143259   2.162   6.598  11.419  0.3157 -0.3062  0.8097
 7256TIP3    H243260   2.235   6.470  11.456 -0.6186 -1.2302 -0.5245
 7257TIP3   OH243261   1.479   0.065   3.210  0.4757 -0.6906  0.2750
 7257TIP3    H143262   1.455   0.157   3.222  1.9596 -0.3656  0.8832
 7257TIP3    H243263   1.502   0.057   3.118  2.4654  0.0833  0.6793
 7258TIP3   OH243264   1.712   4.700  14.218 -0.0618  0.3593 -0.3314
 7258TIP3    H143265   1.662   4.759  14.275 -2.5058 -0.1317 -1.8913
 7258TIP3    H243266   1.657   4.688  14.141  1.3760 -2.2198 -1.0344
 7259TIP3   OH243267   3.469   3.960   0.808  0.2127 -0.2639  0.9592
 7259TIP3    H143268   3.408   3.968   0.734 -0.6224 -1.0682  1.5518
 7259TIP3    H243269   3.555   3.956   0.766 -0.1237  0.9703  0.1194
 7260TIP3   OH243270   2.669   1.049  14.453 -0.1096 -0.1223  0.1562
 7260TIP3    H143271   2.597   1.100  14.490  0.2749  0.0868  0.6225
 7260TIP3    H243272   2.743   1.109  14.453  0.1659 -0.4621  0.0528
 7261TIP3   OH243273   5.340   5.779   2.079  0.1522 -0.1155  0.1548
 7261TIP3    H143274   5.322   5.873   2.081  1.0435  0.0571  0.1928
 7261TIP3    H243275   5.430   5.772   2.046 -0.3038 -1.0079 -0.9219
 7262TIP3   OH243276   3.363   3.588   2.909  0.0674  0.8731 -0.5011
 7262TIP3    H143277   3.324   3.675   2.900 -0.2811  0.8955  0.9672
 7262TIP3    H243278   3.381   3.580   3.003  2.7979  0.5035 -1.0241
 7263TIP3   OH243279   2.809   0.499  11.839  0.3770 -0.4032  0.0567
 7263TIP3    H143280   2.865   0.456  11.774  0.2553 -2.5736  1.3633
 7263TIP3    H243281   2.848   0.476  11.923 -1.6489 -0.7081  0.9229
 7264TIP3   OH243282   0.033   2.780   1.484 -0.3579  0.0140 -0.7815
 7264TIP3    H143283  -0.005   2.814   1.403 -0.2602  1.6879 -0.1569
 7264TIP3    H243284   0.118   2.823   1.491 -1.2808  1.6253  1.2882
 7265TIP3   OH243285   3.381   6.249   1.459  0.4765  0.1738  0.0465
 7265TIP3    H143286   3.386   6.344   1.447 -0.6108  0.4414  1.6286
 7265TIP3    H243287   3.456   6.228   1.514  0.3229  0.2206  0.2754
 7266TIP3   OH243288   4.613   2.170   4.754  0.0555  0.0161  0.4422
 7266TIP3    H143289   4.702   2.136   4.741 -0.1323 -0.1015 -0.6063
 7266TIP3    H243290   4.594   2.217   4.672 -0.7582  0.2327  0.7557
 7267TIP3   OH243291   1.200   4.474   2.053  0.4308 -0.4257 -0.3693
 7267TIP3    H143292   1.243   4.462   1.968  1.2005 -1.5897  0.1778
 7267TIP3    H243293   1.267   4.512   2.109 -0.6558  2.2759 -0.7988
 7268TIP3   OH243294   4.123   1.814   1.955  0.2737 -0.2547  0.0977
 7268TIP3    H143295   4.199   1.849   1.908  0.1192  1.3396  1.0286
 7268TIP3    H243296   4.132   1.848   2.044 -0.8455 -1.1349  0.5539
 7269TIP3   OH243297   0.764   0.347  13.397 -0.5095  0.2063 -0.3930
 7269TIP3    H143298   0.758   0.294  13.318  1.4541 -0.4558 -0.1275
 7269TIP3    H243299   0.739   0.289  13.468  0.6231 -0.0796 -0.2174
 7270TIP3   OH243300   5.611   2.409   5.237 -0.4564 -0.5029  0.2163
 7270TIP3    H143301   5.686   2.397   5.296 -0.2503 -0.6799 -0.0738
 7270TIP3    H243302   5.549   2.341   5.262 -0.1086 -0.9649 -0.1703
 7271TIP3   OH243303   5.817   3.575   1.273 -0.5170 -0.4403 -0.5696
 7271TIP3    H143304   5.824   3.500   1.214 -0.0948  0.0903 -1.2025
 7271TIP3    H243305   5.728   3.570   1.308 -0.8335 -0.6480 -1.4053
 7272TIP3   OH243306   6.081   0.858  14.298 -0.0457  0.4430 -0.2262
 7272TIP3    H143307   6.015   0.910  14.345 -1.0271 -0.8314 -0.1800
 7272TIP3    H243308   6.036   0.827  14.219  0.0050 -1.6894  0.5477
 7273TIP3   OH243309   3.088   4.591   1.544  0.4646 -0.2287  0.1958
 7273TIP3    H143310   3.177   4.557   1.558  0.6722 -0.0392 -0.6324
 7273TIP3    H243311   3.046   4.585   1.630  1.3104 -0.2275  0.6141
 7274TIP3   OH243312   2.825   2.812  11.945  0.3659  0.0454  0.2351
 7274TIP3    H143313   2.917   2.805  11.969 -0.1039 -1.4376  1.7413
 7274TIP3    H243314   2.779   2.762  12.013 -1.3708 -0.9638 -1.6246
 7275TIP3   OH243315   5.700   6.798   1.258  0.2147  0.5407 -0.4385
 7275TIP3    H143316   5.682   6.710   1.226 -3.1263  1.0897 -0.2346
 7275TIP3    H243317   5.771   6.786   1.321  0.8217 -1.7817 -1.5100
 7276TIP3   OH243318   6.396   5.955  15.343 -0.0829 -0.2271  0.2140
 7276TIP3    H143319   6.480   5.953  15.388  1.4432  0.6038 -2.4818
 7276TIP3    H243320   6.357   5.869  15.360  0.7318 -0.1569  2.5123
 7277TIP3   OH243321   2.191   6.757  16.217  0.5778  0.2045  0.0952
 7277TIP3    H143322   2.114   6.712  16.181 -0.5218  0.5427  1.9538
 7277TIP3    H243323   2.205   6.832  16.158  1.7215 -1.8438 -2.3487
 7278TIP3   OH243324   3.104   2.068  10.537 -0.1286 -0.1432 -0.3969
 7278TIP3    H143325   3.052   2.113  10.604  1.4857  0.2071  0.6394
 7278TIP3    H243326   3.126   2.136  10.474  1.1358  0.2563  0.4503
 7279TIP3   OH243327   3.169   1.223  14.166 -0.3350  0.6174 -0.1064
 7279TIP3    H143328   3.153   1.144  14.115 -0.7792  0.3653  0.4118
 7279TIP3    H243329   3.256   1.210  14.204 -1.2750 -0.6259  1.7451
 7280TIP3   OH243330   5.382   3.064   5.439  0.1153 -0.2332 -0.0934
 7280TIP3    H143331   5.341   3.076   5.525 -1.7356  0.3944 -1.0383
 7280TIP3    H243332   5.354   3.141   5.389  0.5981 -0.9532 -1.4813
 7281TIP3   OH243333   0.166   1.774  15.145 -0.1886 -0.2082  0.6154
 7281TIP3    H143334   0.089   1.746  15.097  0.1591 -0.4848  0.2126
 7281TIP3    H243335   0.226   1.807  15.077  1.2168 -2.6973  0.6013
 7282TIP3   OH243336   3.167   4.227   2.710  0.5362  0.6715 -0.1480
 7282TIP3    H143337   3.133   4.244   2.622  1.2213  0.7665 -0.3905
 7282TIP3    H243338   3.138   4.304   2.761  1.3210  1.2795 -0.6150
 7283TIP3   OH243339   3.709   3.879  13.439 -0.1933  0.6489  0.1647
 7283TIP3    H143340   3.749   3.842  13.360 -2.0603 -0.0435 -0.5018
 7283TIP3    H243341   3.726   3.973  13.433  2.5070  0.2179  0.6316
 7284TIP3   OH243342   2.114   1.944   1.052  0.8430 -0.3676  0.0067
 7284TIP3    H143343   2.054   1.870   1.048 -0.3808  0.5043  1.6463
 7284TIP3    H243344   2.199   1.905   1.072  0.1200 -1.2983  1.3041
 7285TIP3   OH243345   5.173   4.995  12.824 -0.0122 -0.2869 -0.2392
 7285TIP3    H143346   5.236   4.931  12.790  0.4739  0.1501 -0.1717
 7285TIP3    H243347   5.226   5.056  12.875 -0.5138  0.0017 -0.0616
 7286TIP3   OH243348   5.333   3.526  14.107  0.1635 -0.6388 -0.3513
 7286TIP3    H143349   5.260   3.540  14.167 -1.7282 -0.7806 -2.5746
 7286TIP3    H243350   5.364   3.438  14.127  2.1451  0.7179  3.0879
 7287TIP3   OH243351   0.084   1.727  15.610 -0.2045 -0.0131 -0.3917
 7287TIP3    H143352   0.051   1.809  15.645  0.7431  0.5296 -0.7280
 7287TIP3    H243353   0.140   1.754  15.536  0.6673 -0.9047 -0.0685
 7288TIP3   OH243354   1.507   3.477   6.811 -0.1432  0.3584  0.3630
 7288TIP3    H143355   1.427   3.457   6.761 -1.7225  1.0818  2.5254
 7288TIP3    H243356   1.486   3.453   6.901  1.5581  2.0062  1.2346
 7289TIP3   OH243357   1.717   5.335   3.344 -0.1359  0.3209 -0.4091
 7289TIP3    H143358   1.644   5.290   3.386 -0.3538 -0.3079 -1.4680
 7289TIP3    H243359   1.763   5.378   3.417 -1.1369  0.1351  0.3442
 7290TIP3   OH243360   5.964   1.318   4.185 -0.2080 -0.2180 -0.0489
 7290TIP3    H143361   5.915   1.333   4.104 -0.1567 -0.2271 -0.0809
 7290TIP3    H243362   5.986   1.406   4.216 -2.1060 -0.1213  1.0990
 7291TIP3   OH243363   1.415   1.956   0.746 -0.4720  0.3038  0.0488
 7291TIP3    H143364   1.382   2.031   0.794  0.7582 -0.0145  1.4222
 7291TIP3    H243365   1.435   1.990   0.659  1.2884  1.8871  1.0314
 7292TIP3   OH243366   5.563   6.280   0.741  0.3065  0.1647 -0.0349
 7292TIP3    H143367   5.484   6.299   0.792  0.4968  1.5366 -0.2457
 7292TIP3    H243368   5.564   6.184   0.735 -3.0334  0.2012 -2.7192
 7293TIP3   OH243369   2.035   6.470   1.990 -0.3692 -0.1139 -0.4986
 7293TIP3    H143370   1.962   6.438   1.936 -1.7760 -0.6758  1.6702
 7293TIP3    H243371   2.112   6.423   1.958 -1.6012 -2.2590 -0.3923
 7294TIP3   OH243372   1.565   1.625  17.044 -0.5570 -0.2432 -0.8220
 7294TIP3    H143373   1.658   1.645  17.041 -0.6072  0.1833  0.5938
 7294TIP3    H243374   1.549   1.595  17.133 -1.9650  0.5840 -0.7836
 7295TIP3   OH243375   1.953   1.868  14.985  0.4332  0.0992 -0.1161
 7295TIP3    H143376   1.875   1.876  15.039  0.6642  1.4061  0.0242
 7295TIP3    H243377   1.930   1.909  14.902  1.5312  2.1294  0.5410
 7296TIP3   OH243378   5.661   6.568   4.607 -0.1431 -0.1324  0.6506
 7296TIP3    H143379   5.592   6.610   4.555 -0.3586 -1.1405  0.0982
 7296TIP3    H243380   5.687   6.492   4.555  1.5242  0.3301  0.7546
 7297TIP3   OH243381   3.075   4.988  11.982 -0.1578 -0.1368 -0.0141
 7297TIP3    H143382   3.166   5.011  11.966  0.0910 -0.4232  0.9166
 7297TIP3    H243383   3.058   5.018  12.072 -1.0842  0.2376 -0.3029
 7298TIP3   OH243384   1.293   0.359   0.859  0.2758  0.6154  0.2603
 7298TIP3    H143385   1.339   0.280   0.830 -0.6542 -0.6396  2.1325
 7298TIP3    H243386   1.240   0.385   0.784  0.2221 -0.8057 -0.2057
 7299TIP3   OH243387   2.142   3.718   1.047  0.1829 -0.1754  0.0829
 7299TIP3    H143388   2.230   3.741   1.080  0.1188  0.6109 -0.2970
 7299TIP3    H243389   2.146   3.738   0.954 -0.5221  0.2065  0.1379
 7300TIP3   OH243390   0.104   1.486   0.350  0.1049  0.2608 -0.7730
 7300TIP3    H143391   0.174   1.422   0.356  1.4045  1.7078 -0.0356
 7300TIP3    H243392   0.040   1.457   0.416  1.4992  0.6645  0.8063
 7301TIP3   OH243393   4.733   6.756  16.746 -0.0726  0.2420 -0.3394
 7301TIP3    H143394   4.730   6.824  16.813 -0.5101  0.8672 -0.9915
 7301TIP3    H243395   4.822   6.722  16.749  0.6073  1.9321 -1.1085
 7302TIP3   OH243396   3.542   4.414  12.931  0.2866 -0.5524  0.4644
 7302TIP3    H143397   3.512   4.384  12.845 -0.0258 -1.4381  0.8714
 7302TIP3    H243398   3.466   4.399  12.988 -0.3035  2.1685  0.4427
 7303TIP3   OH243399   5.327   0.705   2.110 -0.2648 -0.5276  0.0582
 7303TIP3    H143400   5.351   0.745   2.026  0.1716 -1.6417 -0.3595
 7303TIP3    H243401   5.331   0.777   2.173 -1.4865  0.5222 -1.0258
 7304TIP3   OH243402   2.345   5.350   4.554  0.6101 -0.1855 -0.3468
 7304TIP3    H143403   2.404   5.284   4.516 -0.1831 -0.7241 -0.6620
 7304TIP3    H243404   2.372   5.432   4.513  2.1385 -0.1764  0.6558
 7305TIP3   OH243405   4.098   5.689  16.594  0.3100 -0.0059 -0.2100
 7305TIP3    H143406   4.159   5.706  16.522 -0.4247  1.8556 -0.4141
 7305TIP3    H243407   4.063   5.602  16.576  2.7408 -1.0175 -0.2070
 7306TIP3   OH243408   2.483   0.328  16.746 -0.7514  0.4793 -0.1989
 7306TIP3    H143409   2.408   0.270  16.759  0.8907 -1.4014  1.2023
 7306TIP3    H243410   2.507   0.316  16.654  0.9120 -2.8513  0.5726
 7307TIP3   OH243411   4.233   1.969  12.998  0.1256 -0.3141  0.1804
 7307TIP3    H143412   4.138   1.956  13.000 -0.0695  1.0645  0.2177
 7307TIP3    H243413   4.265   1.919  13.073 -0.3815 -2.1009 -0.7404
 7308TIP3   OH243414   2.093   2.923   2.856  0.6087  0.0847 -0.1522
 7308TIP3    H143415   2.144   2.994   2.818  0.2962  0.9314  0.9978
 7308TIP3    H243416   2.158   2.856   2.879  1.0307  0.4914 -0.1650
 7309TIP3   OH243417   1.579   2.954  12.905 -0.3367  0.1775  0.1827
 7309TIP3    H143418   1.540   2.961  12.992 -0.1070  0.8715  0.2306
 7309TIP3    H243419   1.571   3.042  12.868  0.1896  0.0523 -0.2274
 7310TIP3   OH243420   1.024   0.050  13.435 -0.3908  0.1551  0.4718
 7310TIP3    H143421   0.964  -0.016  13.401 -1.3331  0.5936  1.2361
 7310TIP3    H243422   0.979   0.085  13.512  0.0772  1.7207  0.0458
 7311TIP3   OH243423   6.401   3.975   0.417  0.1465  0.2423 -0.8357
 7311TIP3    H143424   6.405   4.018   0.331 -2.2385  0.7787 -0.7126
 7311TIP3    H243425   6.336   4.026   0.466 -0.0993 -1.3591  0.5380
 7312TIP3   OH243426   5.504   2.707   4.502 -0.4137 -0.5704 -0.2424
 7312TIP3    H143427   5.431   2.747   4.454 -1.6269 -0.9040  1.2558
 7312TIP3    H243428   5.561   2.780   4.524  0.0436 -0.3842 -1.9665
 7313TIP3   OH243429   2.008   0.884  14.361  0.5585  0.6545  0.1725
 7313TIP3    H143430   2.040   0.810  14.412  0.5966  1.4672  1.3401
 7313TIP3    H243431   1.914   0.886  14.379  0.3703  0.2304 -0.7222
 7314TIP3   OH243432   2.925   3.969   1.025 -0.3678 -0.5945 -0.0354
 7314TIP3    H143433   2.932   3.879   0.992 -3.0570 -0.0485 -2.2972
 7314TIP3    H243434   2.979   4.020   0.965  1.3295 -0.7000  1.3758
 7315TIP3   OH243435   2.785   3.426   3.124  0.0330 -0.0409 -0.0680
 7315TIP3    H143436   2.716   3.380   3.173 -0.9785  0.3935 -1.0546
 7315TIP3    H243437   2.754   3.516   3.117  0.4868  0.0602 -0.9041
 7316TIP3   OH243438   1.936   2.175  15.800 -0.2276 -0.0120 -0.0074
 7316TIP3    H143439   1.966   2.262  15.826 -1.3561  0.9350 -1.7632
 7316TIP3    H243440   1.873   2.150  15.868 -1.5029  1.4800 -0.6174
 7317TIP3   OH243441   3.044   2.788  15.999  0.2460  0.1175  0.0043
 7317TIP3    H143442   2.970   2.729  15.985  1.1004 -1.6129  2.4247
 7317TIP3    H243443   3.021   2.867  15.950 -1.6668 -1.5967 -1.9861
 7318TIP3   OH243444   3.069   3.457  13.539  0.3597 -0.4869  0.4672
 7318TIP3    H143445   3.072   3.505  13.621 -0.5912  0.0366  0.2064
 7318TIP3    H243446   3.155   3.415  13.532  1.1307  1.0159  0.7832
 7319TIP3   OH243447   3.674   5.501  12.816 -0.1703 -0.2710 -0.1414
 7319TIP3    H143448   3.699   5.515  12.907 -1.0805  0.9425 -0.0588
 7319TIP3    H243449   3.578   5.502  12.817 -0.1909  0.6541 -1.2275
 7320TIP3   OH243450   1.132   6.640   2.125 -0.2196  0.2980 -0.2087
 7320TIP3    H143451   1.196   6.699   2.165  0.4259 -0.2472 -0.4160
 7320TIP3    H243452   1.153   6.554   2.161 -1.4512  0.2589  0.4408
 7321TIP3   OH243453   4.565   6.427  12.853  0.3242 -0.1231 -0.4020
 7321TIP3    H143454   4.578   6.333  12.868 -0.5620 -0.4105 -1.3089
 7321TIP3    H243455   4.568   6.436  12.758  0.7552  0.8309 -0.3006
 7322TIP3   OH243456   3.960   1.546  16.624 -0.1114  0.4514  0.1848
 7322TIP3    H143457   3.875   1.502  16.616 -0.0213  0.5244 -1.1749
 7322TIP3    H243458   4.013   1.486  16.675 -0.4288 -0.3931 -0.4635
 7323TIP3   OH243459   2.428   2.023  16.283 -0.7439  0.1025 -0.1823
 7323TIP3    H143460   2.516   2.053  16.303 -1.3259  1.1898  0.8060
 7323TIP3    H243461   2.433   1.989  16.194  0.5722  0.5245 -0.2701
 7324TIP3   OH243462   1.235   2.571  13.165  0.0620  0.3837  0.0420
 7324TIP3    H143463   1.150   2.576  13.121  0.2897  1.5620 -0.2944
 7324TIP3    H243464   1.222   2.507  13.235 -0.2879 -1.5463 -1.7524
 7325TIP3   OH243465   0.417   5.909  17.002  0.0463 -0.5064 -0.1177
 7325TIP3    H143466   0.421   5.893  17.096 -1.0222  0.3214  0.0904
 7325TIP3    H243467   0.339   5.862  16.973 -0.1208 -0.0389 -0.4300
 7326TIP3   OH243468   3.063   6.790  15.580 -0.6946  0.2468  0.5943
 7326TIP3    H143469   3.060   6.699  15.609  2.2281  0.2522  1.0224
 7326TIP3    H243470   3.053   6.785  15.484 -1.1786 -0.4655  0.6799
 7327TIP3   OH243471   4.907   5.782   5.160  0.0198  0.2421 -0.1065
 7327TIP3    H143472   4.994   5.763   5.194 -0.6753 -1.0251  1.0476
 7327TIP3    H243473   4.909   5.755   5.069  0.4268 -1.1163  0.2925
 7328TIP3   OH243474   3.786   5.433   2.659  0.0636  0.4297  0.1186
 7328TIP3    H143475   3.827   5.348   2.644  0.0018  0.7239 -1.8078
 7328TIP3    H243476   3.858   5.496   2.652 -0.3010  0.7395 -0.8360
 7329TIP3   OH243477   2.447   1.445  14.339 -0.3617 -0.0228 -0.1190
 7329TIP3    H143478   2.386   1.406  14.400 -0.4029 -0.7595 -0.6207
 7329TIP3    H243479   2.534   1.427  14.377 -0.4580  1.2549  0.7262
 7330TIP3   OH243480   2.266   6.789   1.900  0.3290  0.7579 -0.8244
 7330TIP3    H143481   2.295   6.875   1.870 -0.2368  0.1197 -3.3034
 7330TIP3    H243482   2.230   6.748   1.822  1.3796 -2.0726  0.1251
 7331TIP3   OH243483   3.751   2.980  15.628 -0.1325 -0.1647 -0.3960
 7331TIP3    H143484   3.728   3.063  15.670  1.2138 -0.0618  0.1675
 7331TIP3    H243485   3.714   2.986  15.540 -0.0991  1.0144 -0.3386
 7332TIP3   OH243486   1.559   1.382   0.274  0.8053  0.0910 -1.0251
 7332TIP3    H143487   1.549   1.358   0.366 -1.3081 -0.1781 -1.2915
 7332TIP3    H243488   1.623   1.320   0.239 -0.0223 -1.2183 -0.2466
 7333TIP3   OH243489   4.464   1.076   0.907  0.3861  0.8407 -0.0363
 7333TIP3    H143490   4.494   1.000   0.857 -1.1518  0.4159 -0.3390
 7333TIP3    H243491   4.529   1.144   0.888  2.8678 -0.8985  1.7242
 7334TIP3   OH243492   4.105   3.113  13.473  0.0379  0.2474  0.5193
 7334TIP3    H143493   4.196   3.110  13.442  0.0470 -0.9483  0.6326
 7334TIP3    H243494   4.100   3.043  13.537 -1.0844  0.0394  0.2064
 7335TIP3   OH243495   2.571   2.752  14.525 -0.0071  0.7490  0.2882
 7335TIP3    H143496   2.587   2.777  14.616  2.0167  0.5982 -0.0091
 7335TIP3    H243497   2.476   2.740  14.520 -0.1264  0.6269  2.4131
 7336TIP3   OH243498   3.509   2.542   4.147  0.2549  0.2532 -0.1303
 7336TIP3    H143499   3.423   2.574   4.177  1.4551  3.4089  0.1176
 7336TIP3    H243500   3.524   2.463   4.199 -1.8111  0.5049  0.9314
 7337TIP3   OH243501   6.327   5.901   4.683 -0.1399 -0.2548 -0.0791
 7337TIP3    H143502   6.322   5.851   4.601 -1.2958 -0.5732  0.1814
 7337TIP3    H243503   6.345   5.991   4.654 -0.0210 -0.4592 -0.6524
 7338TIP3   OH243504   0.214   0.258   5.375 -0.0426 -0.5430  0.1697
 7338TIP3    H143505   0.149   0.270   5.307 -0.3410 -0.5495  0.4531
 7338TIP3    H243506   0.286   0.211   5.332 -0.2000 -0.4819 -0.1552
 7339TIP3   OH243507   3.029   6.447  12.853  0.0079  0.1697  0.1346
 7339TIP3    H143508   3.000   6.477  12.939  1.1684 -2.0826  1.3499
 7339TIP3    H243509   3.124   6.459  12.854  0.1750 -1.0340 -0.3499
 7340TIP3   OH243510   2.121   0.819   1.356 -0.0661  0.9300  0.5034
 7340TIP3    H143511   2.170   0.752   1.403  0.4462  1.2634  0.4429
 7340TIP3    H243512   2.187   0.879   1.323 -0.5965  2.2211  1.7306
 7341TIP3   OH243513   6.106   0.158  17.143 -0.3532 -0.4051 -0.2050
 7341TIP3    H143514   6.097   0.222  17.213 -3.3316 -0.7582 -0.2153
 7341TIP3    H243515   6.039   0.182  17.079  1.8230 -0.5376 -2.6351
 7342TIP3   OH243516   0.767   0.213  15.003 -0.1150  0.9431  0.0145
 7342TIP3    H143517   0.814   0.178  14.928  0.5589 -0.2431  0.9701
 7342TIP3    H243518   0.835   0.227  15.069 -0.9093  0.5364  0.9238
 7343TIP3   OH243519   6.198   6.083   4.880  0.2959  0.4562 -0.8937
 7343TIP3    H143520   6.264   6.140   4.919  0.1416  0.2528 -0.3441
 7343TIP3    H243521   6.248   6.013   4.839  0.4063  0.1250 -0.1944
 7344TIP3   OH243522   6.498   6.625  14.135 -0.3647 -0.3759  0.1731
 7344TIP3    H143523   6.546   6.586  14.208  1.1133 -0.2239 -0.7162
 7344TIP3    H243524   6.531   6.582  14.057 -1.3939  0.0045 -0.4927
 7345TIP3   OH243525   1.273   0.282   1.967  0.1529 -0.4216  1.1205
 7345TIP3    H143526   1.226   0.264   1.886  0.5673  1.9669  0.3086
 7345TIP3    H243527   1.366   0.276   1.943  0.2942 -2.4452  2.0879
 7346TIP3   OH243528   6.765   2.994   3.290 -0.3517  0.6495 -0.0514
 7346TIP3    H143529   6.696   3.058   3.308 -0.1087  1.3705 -1.6477
 7346TIP3    H243530   6.797   3.016   3.203 -0.6195 -2.0125 -0.8502
 7347TIP3   OH243531   6.342   6.001   6.981  0.3500  0.0371  0.1668
 7347TIP3    H143532   6.301   5.994   6.895 -1.1533  0.9366  0.7900
 7347TIP3    H243533   6.331   6.093   7.005 -0.2508 -0.4527  1.8116
 7348TIP3   OH243534   4.771   3.691  15.003  0.5805 -0.2048 -0.0718
 7348TIP3    H143535   4.808   3.640  14.931 -0.4002  0.8401 -1.3420
 7348TIP3    H243536   4.736   3.770  14.961 -0.0767  0.3812  1.5367
 7349TIP3   OH243537   1.903   5.861   0.112 -0.4898  0.3215  0.1826
 7349TIP3    H143538   1.896   5.909   0.029  0.0135  0.2340  0.0877
 7349TIP3    H243539   1.846   5.785   0.101 -0.8238  0.5826  0.1085
 7350TIP3   OH243540   1.219   1.313  14.166  0.7664  0.0759 -0.0951
 7350TIP3    H143541   1.188   1.222  14.160 -0.6010  0.5292 -0.1611
 7350TIP3    H243542   1.202   1.337  14.257  0.0103  0.6392 -0.3768
 7351TIP3   OH243543   5.412   4.442   2.014 -1.0727 -0.0527 -0.2861
 7351TIP3    H143544   5.412   4.517   1.955  0.9976  0.2651  0.0867
 7351TIP3    H243545   5.451   4.475   2.095  0.0244 -1.5423 -0.1761
 7352TIP3   OH243546   0.987   6.704  15.195 -0.2330 -0.7001 -0.4852
 7352TIP3    H143547   1.062   6.741  15.148 -0.1114 -1.1724 -0.6716
 7352TIP3    H243548   0.956   6.775  15.252 -0.8409  0.1263 -1.8215
 7353TIP3   OH243549   6.269   1.423   3.181  0.1682  0.3849 -0.0908
 7353TIP3    H143550   6.337   1.487   3.201  1.0631 -0.8993  1.0383
 7353TIP3    H243551   6.274   1.413   3.086 -0.0093  1.9946 -0.2921
 7354TIP3   OH243552   1.020   1.310   3.843 -0.0424  0.1974 -0.0700
 7354TIP3    H143553   1.087   1.286   3.778 -0.3429 -0.0943 -0.2737
 7354TIP3    H243554   1.053   1.274   3.925 -0.0359 -0.1099 -0.2051
 7355TIP3   OH243555   6.268   0.961   0.760  0.0571  0.3473  0.2818
 7355TIP3    H143556   6.187   0.992   0.720  0.2861  2.0585  1.1077
 7355TIP3    H243557   6.315   1.040   0.786  2.1553 -0.6019 -0.4681
 7356TIP3   OH243558   5.660   5.594   4.276  0.2741 -0.0705  0.1208
 7356TIP3    H143559   5.633   5.672   4.226  2.2476 -0.2003 -1.1898
 7356TIP3    H243560   5.726   5.552   4.221 -0.6387 -2.5974  0.8917
 7357TIP3   OH243561   2.004   0.642   1.018  0.1907 -0.4856  0.2278
 7357TIP3    H143562   1.931   0.612   0.964  0.7060  0.6346 -1.1579
 7357TIP3    H243563   1.984   0.735   1.034  1.0288 -0.3148  0.2872
 7358TIP3   OH243564   0.741   5.951  11.561 -0.5794  0.0530 -0.0528
 7358TIP3    H143565   0.646   5.939  11.566 -0.6681  1.3000  1.4306
 7358TIP3    H243566   0.774   5.864  11.538 -1.9385 -0.7889  1.0639
 7359TIP3   OH243567   6.771   4.176   1.912  0.2066  0.3208 -0.3091
 7359TIP3    H143568   6.707   4.233   1.953 -0.6169 -0.7552 -0.0623
 7359TIP3    H243569   6.802   4.224   1.835 -1.2865  0.6385 -0.7241
 7360TIP3   OH243570   6.143   2.184  12.038  0.2581 -0.2647 -0.2021
 7360TIP3    H143571   6.086   2.108  12.025  0.2904 -0.3032 -0.1191
 7360TIP3    H243572   6.085   2.259  12.027 -0.5750 -0.3175  3.3463
 7361TIP3   OH243573   1.667   1.201   0.728 -0.0610 -0.0755  0.8216
 7361TIP3    H143574   1.741   1.193   0.669 -0.1708 -0.8558  0.7830
 7361TIP3    H243575   1.699   1.166   0.812  0.0911  1.0092  1.2163
 7362TIP3   OH243576   1.946   1.759  14.223  0.1029 -0.2539  0.6003
 7362TIP3    H143577   1.895   1.813  14.163  3.3488 -0.1698 -2.2471
 7362TIP3    H243578   1.984   1.691  14.168  0.1309 -2.4894  3.2648
 7363TIP3   OH243579   1.626   2.521  15.865  0.2043  0.1642 -0.0637
 7363TIP3    H143580   1.667   2.469  15.934  0.7762 -0.3714 -0.7886
 7363TIP3    H243581   1.540   2.543  15.899  0.3035 -0.4941  0.6260
 7364TIP3   OH243582   0.221   0.678  17.239  0.0740 -0.0916  0.1261
 7364TIP3    H143583   0.266   0.619  17.300 -0.0501 -1.9286 -1.5186
 7364TIP3    H243584   0.207   0.625  17.161 -3.7363  0.8825  0.0825
 7365TIP3   OH243585   1.031   4.350   2.843  0.2267  0.4108  0.0353
 7365TIP3    H143586   0.944   4.330   2.807  1.2948  1.0106 -2.9889
 7365TIP3    H243587   1.028   4.444   2.860  0.9177  0.8340 -2.0136
 7366TIP3   OH243588   3.290   3.935  11.555  0.0502 -0.7786 -0.3308
 7366TIP3    H143589   3.203   3.972  11.541 -0.6826 -2.1288  0.4951
 7366TIP3    H243590   3.283   3.845  11.521  1.3603 -0.6319 -1.0016
 7367TIP3   OH243591   5.397   1.661  16.285 -0.1842  0.3646 -0.0583
 7367TIP3    H143592   5.431   1.599  16.221 -0.2579 -0.4853  0.7125
 7367TIP3    H243593   5.312   1.625  16.310 -0.0353  0.5344  0.7129
 7368TIP3   OH243594   3.530   3.933  13.674  0.4808 -0.2108  0.3365
 7368TIP3    H143595   3.601   3.884  13.633 -0.5508 -0.2240 -1.4927
 7368TIP3    H243596   3.461   3.935  13.608 -0.4865  1.4795  1.3523
 7369TIP3   OH243597   3.927   1.627   2.109 -0.2429  0.4531  0.0575
 7369TIP3    H143598   3.834   1.649   2.102 -0.0516  0.9944 -0.8669
 7369TIP3    H243599   3.961   1.637   2.020  0.0534 -2.7473 -0.2328
 7370TIP3   OH243600   3.387   0.923  14.492  0.0441 -0.2307  0.1111
 7370TIP3    H143601   3.474   0.963  14.486 -0.2632  0.6639  1.5216
 7370TIP3    H243602   3.385   0.860  14.419  1.4580  0.5151 -0.5975
 7371TIP3   OH243603   0.021   5.828  11.232  0.2402  0.9041 -0.6501
 7371TIP3    H143604   0.038   5.921  11.248 -1.8056  0.8797  2.0127
 7371TIP3    H243605  -0.072   5.825  11.207 -0.1128 -0.5707  0.7553
 7372TIP3   OH243606   0.292   6.665   1.596  0.0503 -0.6076 -0.4267
 7372TIP3    H143607   0.262   6.755   1.585  0.5933 -0.3537  0.1202
 7372TIP3    H243608   0.255   6.618   1.521 -0.3217  0.0450 -0.6574
 7373TIP3   OH243609   3.891   6.339  14.239  0.3439 -0.0897 -0.0757
 7373TIP3    H143610   3.889   6.306  14.328  1.5594 -0.4863 -0.1892
 7373TIP3    H243611   3.864   6.431  14.247  0.6836 -0.0581  0.7242
 7374TIP3   OH243612   2.091   4.815   0.116  0.1096 -0.1756  0.4739
 7374TIP3    H143613   2.166   4.788   0.169 -0.4899 -3.0465 -0.0390
 7374TIP3    H243614   2.050   4.733   0.089 -3.4891  1.3044  1.0848
 7375TIP3   OH243615   3.033   4.427  16.627  1.1412 -0.7927 -0.0117
 7375TIP3    H143616   3.084   4.474  16.693 -0.8771 -2.3680  2.7666
 7375TIP3    H243617   3.073   4.339  16.625  0.2201 -1.2230  0.2823
 7376TIP3   OH243618   0.996   4.381  16.122  0.5084  0.5330  0.0699
 7376TIP3    H143619   1.036   4.455  16.169 -2.1131  0.6843  2.1694
 7376TIP3    H243620   0.907   4.375  16.157 -0.6041 -1.2337 -2.8305
 7377TIP3   OH243621   2.859   3.906   1.908  0.3684 -0.1427  0.0100
 7377TIP3    H143622   2.794   3.846   1.872  0.7813 -0.7494  0.2789
 7377TIP3    H243623   2.810   3.958   1.972  0.6903 -2.3861  2.1775
 7378TIP3   OH243624   3.786   6.595  14.296 -0.1222 -0.6993 -0.1157
 7378TIP3    H143625   3.744   6.608  14.381 -0.9983 -1.1169 -0.4796
 7378TIP3    H243626   3.846   6.669  14.288 -0.1678 -0.5537  0.7827
 7379TIP3   OH243627   2.103   3.293   2.276  0.6770  0.1699 -0.2727
 7379TIP3    H143628   2.158   3.367   2.303  1.9305 -1.0534  0.6282
 7379TIP3    H243629   2.165   3.226   2.247 -0.3318 -1.1401  0.5060
 7380TIP3   OH243630   5.202   0.499  13.880 -0.2527 -0.3013  0.0822
 7380TIP3    H143631   5.292   0.481  13.853 -0.5602 -0.5388 -0.7952
 7380TIP3    H243632   5.177   0.577  13.831 -1.1379 -1.2899 -1.0962
 7381TIP3   OH243633   1.303   5.540  13.808 -0.1599  0.2204 -0.6993
 7381TIP3    H143634   1.223   5.552  13.755 -1.3839  1.0998  1.3034
 7381TIP3    H243635   1.271   5.510  13.893  1.7387 -0.3703 -0.1687
 7382TIP3   OH243636   2.269   4.592  14.195  0.5740 -0.5120  0.1981
 7382TIP3    H143637   2.181   4.623  14.171  0.1848 -0.5836  1.4865
 7382TIP3    H243638   2.275   4.608  14.289  1.3969 -1.8696  0.3854
 7383TIP3   OH243639   3.172   2.503  15.852  0.4237 -0.5458 -0.4749
 7383TIP3    H143640   3.219   2.489  15.769 -0.3139  2.5186 -1.4920
 7383TIP3    H243641   3.086   2.537  15.825  0.3560  0.9560  1.5368
 7384TIP3   OH243642   4.521   3.551  17.062 -0.0942  0.5537  0.0249
 7384TIP3    H143643   4.512   3.644  17.083 -0.4306  0.1711  1.5714
 7384TIP3    H243644   4.497   3.505  17.142  1.5288 -0.8501 -0.2622
 7385TIP3   OH243645   3.144   6.705   0.173  0.1871 -0.1394  0.1331
 7385TIP3    H143646   3.120   6.736   0.085 -1.1502 -0.6587  0.3065
 7385TIP3    H243647   3.230   6.665   0.161  1.2284  2.1731 -0.4053
 7386TIP3   OH243648   0.994   6.234  17.236 -0.3273  0.3251 -0.1607
 7386TIP3    H143649   0.993   6.237  17.141  2.2530 -0.7750 -0.2519
 7386TIP3    H243650   1.019   6.144  17.258  0.1175  0.8372  1.5554
 7387TIP3   OH243651   1.204   5.027  17.160 -0.5245 -0.0908 -0.0458
 7387TIP3    H143652   1.249   4.970  17.097  0.8230  0.0510  0.7502
 7387TIP3    H243653   1.145   4.968  17.208 -1.0992 -0.3103 -1.0121
 7388TIP3   OH243654   4.146   4.434   2.877  0.2867  0.4743 -0.0065
 7388TIP3    H143655   4.184   4.494   2.941  0.6719 -0.0660  0.2831
 7388TIP3    H243656   4.078   4.388   2.926  0.8568 -0.2299  0.1387
 7389TIP3   OH243657   2.600   0.608  13.478 -0.6168 -0.4397  0.9454
 7389TIP3    H143658   2.624   0.614  13.385  0.1221 -0.0386  1.1573
 7389TIP3    H243659   2.510   0.575  13.477 -1.1341  0.9186  0.0253
 7390TIP3   OH243660   2.894   0.452   4.549  0.3603  0.1900 -0.1382
 7390TIP3    H143661   2.937   0.509   4.612 -0.5898  0.1476  0.5730
 7390TIP3    H243662   2.926   0.481   4.464  1.4368  0.4388  0.3529
 7391TIP3   OH243663   3.628   2.579  12.127 -0.1445  0.2643 -0.4474
 7391TIP3    H143664   3.718   2.559  12.103 -0.0046  0.2480  0.0758
 7391TIP3    H243665   3.622   2.675  12.120 -0.0690  0.2708 -0.4239
 7392TIP3   OH243666   0.551   1.421   1.784 -0.3541  0.0441 -0.0972
 7392TIP3    H143667   0.490   1.473   1.837  0.4016  0.2031  0.6354
 7392TIP3    H243668   0.608   1.380   1.848  0.9595  0.7242 -0.8183
 7393TIP3   OH243669   3.970   3.321   3.045 -0.7496  0.2860 -0.1996
 7393TIP3    H143670   3.992   3.231   3.070 -2.7809 -0.2268 -0.1611
 7393TIP3    H243671   4.054   3.367   3.047  0.4017 -1.6975 -0.6636
 7394TIP3   OH243672   2.888   2.999  16.642 -0.7344 -0.3109  0.3545
 7394TIP3    H143673   2.798   3.004  16.674 -0.6874  0.0518  0.4322
 7394TIP3    H243674   2.914   2.908  16.658 -1.1630 -0.4786  0.1177
 7395TIP3   OH243675   5.158   0.584  11.584  0.5756 -0.4553  0.2262
 7395TIP3    H143676   5.213   0.588  11.663  0.5115 -0.3252  0.2642
 7395TIP3    H243677   5.075   0.623  11.611  0.6811 -0.0713 -0.0127
 7396TIP3   OH243678   1.659   2.828  13.687  0.0263  0.4728  0.7429
 7396TIP3    H143679   1.643   2.814  13.594 -1.5224 -0.4684  1.1259
 7396TIP3    H243680   1.572   2.823  13.727  0.7343  0.3871  2.3000
 7397TIP3   OH243681   5.335   6.629   6.366 -0.1528 -0.5347  0.1798
 7397TIP3    H143682   5.382   6.566   6.313  0.4259 -2.2619  2.6339
 7397TIP3    H243683   5.274   6.576   6.418  0.6538  0.8515  2.6111
 7398TIP3   OH243684   6.770   2.895   5.211  0.3675 -0.4941  0.6497
 7398TIP3    H143685   6.860   2.879   5.184  0.4886 -1.0796  1.4076
 7398TIP3    H243686   6.718   2.871   5.134  0.8422 -0.2456  0.2463
 7399TIP3   OH243687   6.344   3.106   4.400 -0.1243 -0.6643 -0.0742
 7399TIP3    H143688   6.272   3.050   4.428  1.4021 -1.8508  1.5719
 7399TIP3    H243689   6.323   3.192   4.437 -1.2798 -0.6981 -0.6200
 7400TIP3   OH243690   1.156   1.107  15.104 -0.1572  0.2725  0.3601
 7400TIP3    H143691   1.110   1.041  15.154  1.9874 -0.2428  1.7008
 7400TIP3    H243692   1.171   1.179  15.166  3.1152 -0.6560  0.7398
 7401TIP3   OH243693   1.035   0.825  14.955 -0.2457  0.3154  0.3943
 7401TIP3    H143694   1.120   0.808  14.915 -0.5809  1.7392 -0.9510
 7401TIP3    H243695   1.007   0.740  14.989  1.2209 -0.3769 -0.1094
 7402TIP3   OH243696   1.714   3.276   0.388  0.0345 -0.4542 -0.0027
 7402TIP3    H143697   1.748   3.361   0.416  0.6812 -0.0856 -1.8523
 7402TIP3    H243698   1.665   3.244   0.464  2.1792  0.2616  1.7283
 7403TIP3   OH243699   2.821   6.225  16.682  0.3025 -0.2320  0.5917
 7403TIP3    H143700   2.787   6.310  16.711  0.3931  0.1657 -0.4698
 7403TIP3    H243701   2.768   6.161  16.730 -0.2685  0.4124  0.8333
 7404TIP3   OH243702   2.316   4.233   1.203 -0.4362  0.4591  0.2064
 7404TIP3    H143703   2.399   4.199   1.170 -0.7022  0.4152 -0.4272
 7404TIP3    H243704   2.316   4.211   1.296  0.3282  0.5918  0.2372
 7405TIP3   OH243705   0.581   3.744   0.537  0.1656 -1.2231 -0.0587
 7405TIP3    H143706   0.628   3.730   0.619  1.3973  0.2683 -0.5005
 7405TIP3    H243707   0.612   3.673   0.480 -1.1898 -2.6669  0.9345
 7406TIP3   OH243708   4.856   1.113   5.369 -0.1311 -0.0906  0.0190
 7406TIP3    H143709   4.888   1.029   5.400  1.0253  0.6168  0.8134
 7406TIP3    H243710   4.923   1.144   5.308 -0.6960  0.1253 -0.5045
 7407TIP3   OH243711   0.583   3.772  16.538  0.2240  0.1399  0.0565
 7407TIP3    H143712   0.528   3.755  16.462 -1.1365 -0.2546  1.1082
 7407TIP3    H243713   0.571   3.695  16.594 -1.5064  1.9266  2.2474
 7408TIP3   OH243714   2.135   6.255   1.129 -0.1907  0.2644  0.8005
 7408TIP3    H143715   2.155   6.336   1.177  2.1636  0.5003 -0.5053
 7408TIP3    H243716   2.216   6.234   1.083 -1.3011 -1.9397 -0.2063
 7409TIP3   OH243717   1.697   0.949  11.084 -0.4161  0.5504 -0.0265
 7409TIP3    H143718   1.716   1.024  11.028  0.3909  0.5071  0.1771
 7409TIP3    H243719   1.778   0.897  11.081 -1.1182 -0.5149 -0.4959
 7410TIP3   OH243720   0.147   5.072   1.729  0.0283  0.0408 -0.3044
 7410TIP3    H143721   0.137   5.103   1.639 -2.2741  0.7010  0.1519
 7410TIP3    H243722   0.122   4.979   1.725  5.2525 -1.4469 -1.3409
 7411TIP3   OH243723   1.991   1.261   3.961  0.7063 -0.2360  0.7709
 7411TIP3    H143724   2.052   1.334   3.950 -0.5053  0.5932 -0.5439
 7411TIP3    H243725   1.932   1.289   4.032  0.7566 -0.3012  0.8393
 7412TIP3   OH243726   4.715   5.169   5.709  0.1298 -0.3322  0.0232
 7412TIP3    H143727   4.632   5.160   5.756 -0.0923 -1.0717 -0.5086
 7412TIP3    H243728   4.700   5.241   5.648  0.6025  1.0207  1.4602
 7413TIP3   OH243729   1.203   1.718  14.331 -0.0912  0.2578 -0.4594
 7413TIP3    H143730   1.160   1.633  14.320  0.5748 -0.6145  3.1820
 7413TIP3    H243731   1.296   1.698  14.339  0.0655  1.3062  0.4742
 7414TIP3   OH243732   2.088   3.263  17.172 -0.1100 -0.1693 -0.5293
 7414TIP3    H143733   2.160   3.321  17.198  1.3108 -1.3348 -1.7438
 7414TIP3    H243734   2.089   3.192  17.236 -0.5375  0.0787 -0.2413
 7415TIP3   OH243735   3.275   4.602   2.475  0.0642 -0.3121  0.3944
 7415TIP3    H143736   3.362   4.568   2.498 -1.4204 -2.5345  2.9863
 7415TIP3    H243737   3.224   4.524   2.453 -1.1891  1.0179 -1.6009
 7416TIP3   OH243738   5.714   6.382  15.170  0.1179  0.8476 -0.1311
 7416TIP3    H143739   5.773   6.449  15.204 -0.7215  1.0822  0.8762
 7416TIP3    H243740   5.761   6.344  15.096  1.7512  0.6560  1.0003
 7417TIP3   OH243741   5.653   2.561   2.689 -0.5138  0.0076  0.8801
 7417TIP3    H143742   5.631   2.498   2.621  1.2207 -0.3813  0.6617
 7417TIP3    H243743   5.662   2.645   2.643  0.6966 -0.2622  0.6040
 7418TIP3   OH243744   4.680   3.766  15.487 -0.4038 -0.0863 -0.7122
 7418TIP3    H143745   4.585   3.771  15.494 -0.3461 -0.1225  0.1853
 7418TIP3    H243746   4.707   3.714  15.562  0.3987  0.6947 -0.4451
 7419TIP3   OH243747   5.516   5.699  13.025 -0.3485  0.2346 -0.1281
 7419TIP3    H143748   5.509   5.772  12.964 -1.8281  1.1468  1.1199
 7419TIP3    H243749   5.450   5.636  12.995 -0.9789  0.6218  0.4423
 7420TIP3   OH243750   1.120   0.860   0.114  0.3736 -0.1956  0.0848
 7420TIP3    H143751   1.025   0.846   0.113  0.3771 -0.2299  0.3739
 7420TIP3    H243752   1.157   0.777   0.083  0.2523  0.2546 -1.2985
 7421TIP3   OH243753   6.453   5.051   0.463  0.2687 -0.5524 -0.0307
 7421TIP3    H143754   6.481   4.984   0.402  1.5843  0.4074 -0.5065
 7421TIP3    H243755   6.378   5.092   0.421  0.5560 -0.5594 -0.5528
 7422TIP3   OH243756   2.827   0.449  16.199  0.2969  0.3945 -0.2105
 7422TIP3    H143757   2.873   0.379  16.154 -0.8875  0.3136 -1.3250
 7422TIP3    H243758   2.757   0.405  16.248  2.7683  0.2522  3.4068
 7423TIP3   OH243759   0.183   3.880   1.757  0.5748 -0.1326  0.2576
 7423TIP3    H143760   0.241   3.949   1.723  0.0185  0.7859  1.1403
 7423TIP3    H243761   0.216   3.862   1.845  0.8919 -1.2040 -0.0763
 7424TIP3   OH243762   5.084   6.046   5.165 -0.5879 -0.3118 -0.1416
 7424TIP3    H143763   5.129   5.964   5.184 -0.0601 -0.2121 -0.9399
 7424TIP3    H243764   5.021   6.024   5.096  1.2639  0.4470 -2.1295
 7425TIP3   OH243765   3.339   6.802  15.123 -0.3107  0.6399 -0.2789
 7425TIP3    H143766   3.407   6.825  15.186 -0.3732  2.0854 -0.7130
 7425TIP3    H243767   3.324   6.709  15.137  1.2305  0.4610  0.3328
 7426TIP3   OH243768   6.488   5.438  15.142 -0.5203  0.7628 -0.1982
 7426TIP3    H143769   6.560   5.377  15.130  1.4962  2.9794  0.1012
 7426TIP3    H243770   6.446   5.444  15.056  1.8718  2.0533 -1.3462
 7427TIP3   OH243771   6.069   5.271   1.336  0.5448  0.2825 -0.1806
 7427TIP3    H143772   6.159   5.251   1.361 -0.0154 -0.6952  1.1072
 7427TIP3    H243773   6.068   5.262   1.240  1.8125  0.3233 -0.1996
 7428TIP3   OH243774   5.171   1.246   4.738  0.2087  0.0317 -0.1710
 7428TIP3    H143775   5.247   1.304   4.739 -0.3989  0.8413  0.7271
 7428TIP3    H243776   5.104   1.294   4.690 -0.0176 -0.2997 -0.1896
 7429TIP3   OH243777   0.246   5.341   0.188  0.0760  0.1852 -0.2683
 7429TIP3    H143778   0.159   5.373   0.210  0.3140  1.1248 -0.6744
 7429TIP3    H243779   0.305   5.392   0.243  0.3853 -0.3147 -0.1321
 7430TIP3   OH243780   1.978   5.808  14.932 -0.4350 -0.6143  0.2833
 7430TIP3    H143781   1.992   5.816  14.838 -0.1561 -1.9244  0.1993
 7430TIP3    H243782   2.066   5.813  14.969 -0.3687 -1.8302  0.3232
 7431TIP3   OH243783   3.271   5.515   0.357  0.0456  0.2021  0.0279
 7431TIP3    H143784   3.234   5.507   0.445  0.1546  2.0855  0.2658
 7431TIP3    H243785   3.329   5.440   0.349  0.1816  0.1110  1.6472
 7432TIP3   OH243786   6.177   3.360   3.450 -0.0689 -0.4847  0.5509
 7432TIP3    H143787   6.147   3.331   3.536 -2.2039 -2.0076 -0.6346
 7432TIP3    H243788   6.096   3.371   3.399  1.0995  1.1063 -1.0600
 7433TIP3   OH243789   4.848   0.529   0.288 -0.1522 -0.0292 -0.4809
 7433TIP3    H143790   4.892   0.540   0.372 -1.1965  1.9403 -0.1509
 7433TIP3    H243791   4.818   0.617   0.265 -1.5806 -0.8694 -1.9621
 7434TIP3   OH243792   4.907   4.887   1.138  0.2701 -0.0242  0.0602
 7434TIP3    H143793   5.000   4.874   1.160  0.2775 -0.5464 -0.2896
 7434TIP3    H243794   4.872   4.935   1.213  0.5716 -0.7674  0.6822
 7435TIP3   OH243795   2.679   2.496  10.921 -0.0077  0.7957 -0.9206
 7435TIP3    H143796   2.625   2.465  10.994  0.1783 -1.2361 -1.6274
 7435TIP3    H243797   2.624   2.484  10.844  0.7547  0.5198 -1.4206
 7436TIP3   OH243798   6.634   5.389   4.017  0.0120  0.1124  0.0323
 7436TIP3    H143799   6.700   5.320   4.017 -1.0260 -0.8973 -1.4597
 7436TIP3    H243800   6.644   5.432   3.932 -2.1274 -0.9461 -0.8085
 7437TIP3   OH243801   6.153   5.533   5.308  0.1926  1.0278  0.3226
 7437TIP3    H143802   6.074   5.491   5.342  1.9708 -2.1828  0.6782
 7437TIP3    H243803   6.145   5.526   5.212 -0.0365  0.8318  0.3569
 7438TIP3   OH243804   1.075   2.092   1.940 -0.3186  0.1375  0.2197
 7438TIP3    H143805   1.057   2.033   1.867 -0.8921 -0.5245  0.8902
 7438TIP3    H243806   0.997   2.147   1.946  0.5126  1.4913 -0.8786
 7439TIP3   OH243807   1.957   5.877  16.776 -0.1015 -0.5409  0.1934
 7439TIP3    H143808   2.007   5.803  16.809  1.2329  0.2650  0.0108
 7439TIP3    H243809   1.986   5.887  16.686  0.2225  0.6120  0.4152
 7440TIP3   OH243810   1.928   1.556  11.673  0.5664 -0.1447 -0.5430
 7440TIP3    H143811   1.924   1.475  11.725 -0.5386 -0.7845 -1.5945
 7440TIP3    H243812   1.916   1.626  11.737 -0.3531 -0.9123  0.1403
 7441TIP3   OH243813   4.695   2.485   6.251  0.0890 -0.3293  0.5136
 7441TIP3    H143814   4.782   2.446   6.245 -0.5754 -1.7726 -0.1495
 7441TIP3    H243815   4.701   2.548   6.323  1.5769 -0.6861  0.7101
 7442TIP3   OH243816   1.222   5.280   3.327  0.2563 -0.0903 -0.0145
 7442TIP3    H143817   1.302   5.257   3.374  0.7674  1.5120 -0.0845
 7442TIP3    H243818   1.156   5.292   3.396  0.3940 -0.1254  0.1241
 7443TIP3   OH243819   4.691   3.288   0.427  0.2144  0.5611  0.0281
 7443TIP3    H143820   4.772   3.283   0.376  0.6946  0.3888  0.7957
 7443TIP3    H243821   4.697   3.372   0.474 -0.4152  0.9106 -0.5164
 7444TIP3   OH243822   4.393   5.615  15.671 -0.3610  0.0734  0.0820
 7444TIP3    H143823   4.349   5.612  15.587  0.7682 -3.4736 -0.4445
 7444TIP3    H243824   4.483   5.639  15.651 -0.4445  0.7118  0.4479
 7445TIP3   OH243825   2.844   2.199  13.009  0.5855 -0.4023  0.2048
 7445TIP3    H143826   2.780   2.260  13.045  0.7674 -0.3832  0.5094
 7445TIP3    H243827   2.929   2.240  13.027  0.7175 -0.8295  0.5810
 7446TIP3   OH243828   4.511   4.507  16.116  0.0243  0.2180  0.0780
 7446TIP3    H143829   4.421   4.480  16.134  0.1852  0.2166  0.9370
 7446TIP3    H243830   4.561   4.425  16.122  0.4543  0.5910  2.2808
 7447TIP3   OH243831   3.435   4.100  15.493 -0.0164 -0.6624 -0.0327
 7447TIP3    H143832   3.407   4.079  15.404 -0.1471 -1.1571  0.1220
 7447TIP3    H243833   3.384   4.176  15.518  1.7685  0.9824 -1.2853
 7448TIP3   OH243834   3.680   1.307  12.108  0.2356  0.2860  0.0139
 7448TIP3    H143835   3.720   1.265  12.183 -0.4842  1.6298  1.1827
 7448TIP3    H243836   3.695   1.247  12.035 -0.0036 -1.5316  1.4426
 7449TIP3   OH243837   6.380   5.394  12.736 -0.0075  0.3834  0.0826
 7449TIP3    H143838   6.410   5.308  12.765  1.6581  0.7696 -0.4601
 7449TIP3    H243839   6.459   5.446  12.728 -0.7751  1.3366 -1.6980
 7450TIP3   OH243840   6.393   0.459  15.853 -0.0585 -0.4383  0.0879
 7450TIP3    H143841   6.444   0.431  15.929  1.2202  1.1474 -0.1598
 7450TIP3    H243842   6.415   0.395  15.785  1.2017 -0.0812  0.1460
 7451TIP3   OH243843   2.222   6.111  11.189 -0.3587  0.2421 -0.1089
 7451TIP3    H143844   2.188   6.049  11.253 -0.2306  0.0628 -0.2139
 7451TIP3    H243845   2.295   6.153  11.233 -0.4110  0.2802 -0.0588
 7452TIP3   OH243846   4.261   0.975  12.565  0.0526 -0.0082  0.2861
 7452TIP3    H143847   4.307   1.048  12.606  0.4845 -0.3156  0.3436
 7452TIP3    H243848   4.200   0.945  12.631  1.8667 -1.5460  1.2879
 7453TIP3   OH243849   1.913   3.536   0.838  0.1654 -0.1965 -0.0006
 7453TIP3    H143850   1.818   3.536   0.855 -0.0805  2.5263 -1.1192
 7453TIP3    H243851   1.938   3.629   0.841  2.9488 -0.9230  0.9341
 7454TIP3   OH243852   6.809   5.524   0.547  0.2582  0.4702 -0.1363
 7454TIP3    H143853   6.787   5.617   0.552 -0.0637  0.3602  0.6783
 7454TIP3    H243854   6.879   5.513   0.611  0.1831  0.1208 -0.1153
 7455TIP3   OH243855   3.285   4.940   2.697 -0.4450 -0.0514 -0.0903
 7455TIP3    H143856   3.247   5.026   2.717  0.8593  0.7056 -0.7662
 7455TIP3    H243857   3.218   4.877   2.723 -1.4200  1.1750  0.4151
 7456TIP3   OH243858   3.412   4.169   4.689  0.1743 -0.3098  0.5357
 7456TIP3    H143859   3.363   4.158   4.771 -0.4927  0.6162  0.2717
 7456TIP3    H243860   3.400   4.087   4.642 -1.1386 -0.0981  0.4776
 7457TIP3   OH243861   3.518   4.474   2.492  0.4329 -0.3155  0.0997
 7457TIP3    H143862   3.541   4.454   2.401  0.3186  0.7583 -0.1749
 7457TIP3    H243863   3.576   4.546   2.516  1.5015 -1.5801  1.3863
 7458TIP3   OH243864   5.889   6.231  15.017 -0.5628 -0.4031  0.2797
 7458TIP3    H143865   5.830   6.220  14.943 -0.6000 -0.1314  0.2668
 7458TIP3    H243866   5.943   6.152  15.017 -1.6054 -1.1343  0.9004
 7459TIP3   OH243867   6.145   2.546  17.290 -0.3976 -0.2188 -0.1698
 7459TIP3    H143868   6.183   2.634  17.291 -0.0367 -0.3676 -0.6884
 7459TIP3    H243869   6.215   2.489  17.321 -0.7790 -0.2727  0.6190
 7460TIP3   OH243870   6.260   4.195   3.466  0.4164  0.5013 -0.4569
 7460TIP3    H143871   6.220   4.150   3.392  0.4477 -0.2148 -0.0355
 7460TIP3    H243872   6.353   4.170   3.463  0.1930 -0.4631  0.5151
 7461TIP3   OH243873   2.456   1.218  13.338  0.4388  0.8731 -0.3674
 7461TIP3    H143874   2.396   1.287  13.365  0.2205  0.4291  0.2877
 7461TIP3    H243875   2.439   1.206  13.244 -0.1959  1.0469 -0.2774
 7462TIP3   OH243876   2.076   1.699   3.870  0.3898  0.0338 -0.3286
 7462TIP3    H143877   2.025   1.779   3.883  1.0892  0.4810 -0.3480
 7462TIP3    H243878   2.036   1.636   3.930 -0.9873  0.0107 -1.2358
 7463TIP3   OH243879   2.131   5.402  12.619 -0.1645  0.0517 -0.0423
 7463TIP3    H143880   2.127   5.327  12.678 -1.2305 -1.8496 -2.4578
 7463TIP3    H243881   2.211   5.389  12.569 -0.1816  0.7313 -0.2519
 7464TIP3   OH243882   5.007   6.075  15.294  0.3522  0.3473  0.2027
 7464TIP3    H143883   5.029   6.037  15.209 -1.6541 -0.5492  0.0526
 7464TIP3    H243884   5.078   6.137  15.312  0.7335  0.6645 -2.1916
 7465TIP3   OH243885   3.337   2.292  11.712 -0.1559  0.7671  0.0470
 7465TIP3    H143886   3.334   2.377  11.669  1.3543  1.5552  1.4320
 7465TIP3    H243887   3.318   2.311  11.804  0.1100 -0.4120  0.3547
 7466TIP3   OH243888   3.143   1.728  17.034 -0.2390  0.4237  0.3722
 7466TIP3    H143889   3.104   1.641  17.023 -0.9451  0.8519 -0.5571
 7466TIP3    H243890   3.237   1.711  17.041 -0.1393 -0.2692 -2.0392
 7467TIP3   OH243891   3.156   1.262   5.090  0.2178  0.0553 -0.6179
 7467TIP3    H143892   3.119   1.340   5.049  0.4416  0.3164 -0.3298
 7467TIP3    H243893   3.125   1.190   5.036 -1.3444  0.1967  0.0541
 7468TIP3   OH243894   2.766   1.661   5.309  0.1740  0.0944  0.2455
 7468TIP3    H143895   2.810   1.576   5.311  0.5105  0.1073 -2.9711
 7468TIP3    H243896   2.838   1.725   5.300 -0.2360  0.3653 -1.4214
 7469TIP3   OH243897   0.988   5.349   2.611 -0.4608  0.0628 -0.6072
 7469TIP3    H143898   1.078   5.378   2.599 -0.4144  0.0955 -0.1906
 7469TIP3    H243899   0.943   5.425   2.650 -1.0823  0.6557 -2.4177
 7470TIP3   OH243900   3.557   2.392  14.242 -0.4453  0.3338  0.3699
 7470TIP3    H143901   3.476   2.423  14.284 -0.5901 -0.8935  1.0312
 7470TIP3    H243902   3.533   2.377  14.151 -1.7602 -2.7071  1.1415
 7471TIP3   OH243903   0.235   2.865  14.576  0.0713 -0.3312  0.6338
 7471TIP3    H143904   0.203   2.798  14.637 -0.4329 -1.1946 -0.5654
 7471TIP3    H243905   0.320   2.891  14.613  1.5857 -3.6188 -0.3294
 7472TIP3   OH243906   3.192   0.877   6.564 -0.2448 -0.3718  0.4766
 7472TIP3    H143907   3.287   0.872   6.557 -0.2836  0.8333 -1.4073
 7472TIP3    H243908   3.167   0.945   6.501 -2.3513 -0.6913  0.9266
 7473TIP3   OH243909   0.182   0.278  11.447 -0.2513 -0.2677 -0.0756
 7473TIP3    H143910   0.163   0.235  11.530 -2.4244 -0.5371 -0.6811
 7473TIP3    H243911   0.188   0.207  11.384  2.9941 -0.2052  0.0825
 7474TIP3   OH243912   5.075   5.840  13.492 -0.1904  0.1143 -0.0642
 7474TIP3    H143913   4.988   5.847  13.453 -0.5549  0.1268  0.7402
 7474TIP3    H243914   5.060   5.805  13.580  0.3553  2.5684  1.0553
 7475TIP3   OH243915   3.318   3.219  12.630  0.6678  0.3117  0.1452
 7475TIP3    H143916   3.354   3.277  12.697  0.6363  0.2649  0.2032
 7475TIP3    H243917   3.226   3.244  12.625  0.9958  1.3680 -0.9663
 7476TIP3   OH243918   0.596   4.904  13.433  0.8217  0.1454  0.6454
 7476TIP3    H143919   0.508   4.936  13.453 -0.4447 -3.1740  0.7554
 7476TIP3    H243920   0.609   4.926  13.341 -0.6635 -0.4263  0.2762
 7477TIP3   OH243921   4.224   4.669  10.891  0.2062  0.2552  0.0362
 7477TIP3    H143922   4.303   4.619  10.874  0.9306  1.2198  0.4979
 7477TIP3    H243923   4.251   4.736  10.953 -1.2840 -0.2375  1.2503
 7478TIP3   OH243924   2.147   5.264   5.850  0.5501 -0.1119 -0.0598
 7478TIP3    H143925   2.165   5.190   5.793 -0.1368  0.0485 -0.4916
 7478TIP3    H243926   2.095   5.228   5.922 -1.6632  0.3208 -1.3838
 7479TIP3   OH243927   1.367   0.176   4.547 -0.1934  0.1496  0.1294
 7479TIP3    H143928   1.417   0.204   4.471  0.3061  1.1593  0.8205
 7479TIP3    H243929   1.361   0.254   4.603 -1.7415 -0.2045  0.4878
 7480TIP3   OH243930   4.343   4.812  13.124 -0.1070 -0.2599 -0.4273
 7480TIP3    H143931   4.256   4.843  13.151  1.2150  2.3869  0.9737
 7480TIP3    H243932   4.400   4.835  13.197  1.8292 -1.8374 -1.3987
 7481TIP3   OH243933   1.556   3.503  12.974 -0.1059 -0.4508  0.4565
 7481TIP3    H143934   1.545   3.487  13.067  1.6239  0.4369  0.8251
 7481TIP3    H243935   1.650   3.510  12.961 -0.2316 -1.8425 -1.5769
 7482TIP3   OH243936   4.918   5.468   6.579  0.0942 -0.4139  0.4187
 7482TIP3    H143937   4.944   5.380   6.604  1.6782  0.6149  2.5823
 7482TIP3    H243938   4.872   5.503   6.655 -1.2851  0.3476 -0.7309
 7483TIP3   OH243939   4.401   6.719   3.582  0.2580 -0.1313  0.2634
 7483TIP3    H143940   4.483   6.743   3.538 -0.1613 -1.2766 -1.1982
 7483TIP3    H243941   4.390   6.626   3.563 -1.4056  0.0196  0.4178
 7484TIP3   OH243942   2.228   0.653   0.710 -0.4053  0.0838  0.5209
 7484TIP3    H143943   2.304   0.656   0.768  0.1184 -2.2312  0.0289
 7484TIP3    H243944   2.263   0.622   0.626 -1.3801  2.0465 -0.6350
 7485TIP3   OH243945   2.170   3.179   1.264  0.3501 -0.0209 -0.0355
 7485TIP3    H143946   2.078   3.193   1.288  0.6035 -1.4502  1.8080
 7485TIP3    H243947   2.202   3.267   1.241 -1.5344  0.4496 -1.0024
 7486TIP3   OH243948   1.190   0.369  15.533  0.4390  0.4095  0.2606
 7486TIP3    H143949   1.248   0.326  15.470  0.8243  2.1819 -0.6074
 7486TIP3    H243950   1.149   0.440  15.483 -0.3767  0.8953  1.6126
 7487TIP3   OH243951   3.327   3.885   4.544  0.0414 -0.7855 -0.2003
 7487TIP3    H143952   3.313   3.839   4.461  0.3262 -1.0149 -0.1217
 7487TIP3    H243953   3.281   3.831   4.609 -0.8853 -0.1699 -0.3276
 7488TIP3   OH243954   0.392   4.688  14.637 -0.0734 -0.0743  0.1604
 7488TIP3    H143955   0.440   4.606  14.641  0.5319  0.2360 -0.4762
 7488TIP3    H243956   0.451   4.747  14.590 -0.5857  0.6606  0.4298
 7489TIP3   OH243957   4.915   3.561  11.967 -0.0176 -0.9796 -0.4546
 7489TIP3    H143958   4.843   3.576  11.905 -1.2965 -0.4882  1.1180
 7489TIP3    H243959   4.885   3.490  12.023  0.0939  0.1653  1.1098
 7490TIP3   OH243960   0.131   5.849  12.064 -0.2736 -0.2946  0.3272
 7490TIP3    H143961   0.174   5.780  12.115 -0.0184  1.0428  1.9815
 7490TIP3    H243962   0.046   5.812  12.041  0.6948 -1.9591 -0.6537
 7491TIP3   OH243963   4.841   0.701  13.543  0.5220  0.2739  0.0919
 7491TIP3    H143964   4.812   0.768  13.606 -1.9633  0.6740 -1.3870
 7491TIP3    H243965   4.762   0.648  13.528  2.0885 -2.1260  0.1458
 7492TIP3   OH243966   0.984   5.847  11.405 -0.7998  0.3778  0.4598
 7492TIP3    H143967   0.958   5.762  11.441 -2.8699  0.3302 -1.0532
 7492TIP3    H243968   1.055   5.826  11.344 -1.1956 -0.2485  0.2086
 7493TIP3   OH243969   0.061   0.081  10.575  0.6610  0.2508  0.4311
 7493TIP3    H143970   0.087   0.089  10.484 -1.5798  0.9003 -0.1934
 7493TIP3    H243971  -0.035   0.079  10.572  0.5990 -1.6578  2.6171
 7494TIP3   OH243972   4.197   6.207  12.804  0.0817  0.5035  0.4508
 7494TIP3    H143973   4.220   6.223  12.712 -0.4785  0.5476  0.3176
 7494TIP3    H243974   4.106   6.179  12.801  0.0028  0.7116  1.0208
 7495TIP3   OH243975   0.246   3.373  13.723  0.2830  0.1236  0.2381
 7495TIP3    H143976   0.214   3.455  13.685 -0.1067  0.5194  1.3979
 7495TIP3    H243977   0.168   3.317  13.728  0.5072 -0.2461 -0.3597
 7496TIP3   OH243978   4.835   5.195  15.812 -0.2297  0.0658  0.4742
 7496TIP3    H143979   4.834   5.244  15.730  0.5589 -0.0196  0.4061
 7496TIP3    H243980   4.904   5.237  15.864  0.8629 -1.3157  0.1953
 7497TIP3   OH243981   6.771   5.669   2.374  0.4219  0.6601  0.8359
 7497TIP3    H143982   6.849   5.616   2.393 -0.6280 -0.5517  1.9031
 7497TIP3    H243983   6.775   5.741   2.437  0.9193  0.8512  0.5840
 7498TIP3   OH243984   1.770   3.248   5.764 -0.2922 -0.3744  0.1800
 7498TIP3    H143985   1.679   3.229   5.741 -0.3900 -1.5503  1.4633
 7498TIP3    H243986   1.781   3.209   5.851  1.6559 -0.9618 -0.3116
 7499TIP3   OH243987   5.459   2.580   1.106  0.5547 -0.1800  0.5292
 7499TIP3    H143988   5.489   2.510   1.048  1.4111 -0.5572  1.4133
 7499TIP3    H243989   5.434   2.535   1.187  1.7245  0.5957  1.3325
 7500TIP3   OH243990   0.959   6.394  11.702  0.5731  0.2469 -0.0291
 7500TIP3    H143991   0.963   6.381  11.797 -0.9813  1.3697  0.2100
 7500TIP3    H243992   0.924   6.311  11.668  0.5058  0.0750  0.4538
 7501TIP3   OH243993   3.556   6.046   1.145 -0.1268  0.0976  0.0699
 7501TIP3    H143994   3.502   6.123   1.164  1.2728  0.3167  3.4275
 7501TIP3    H243995   3.497   5.972   1.159 -0.3250  0.4305  1.0216
 7502TIP3   OH243996   3.131   0.792  10.768 -0.0735 -0.4410  0.1844
 7502TIP3    H143997   3.070   0.845  10.716 -0.3406 -2.3042 -1.4468
 7502TIP3    H243998   3.083   0.770  10.848 -1.2223 -1.1753 -0.7091
 7503TIP3   OH243999   5.728   1.367  10.455 -0.3505 -0.9999 -0.4107
 7503TIP3    H144000   5.792   1.302  10.487 -0.1562 -0.1790  0.8997
 7503TIP3    H244001   5.782   1.438  10.419 -0.5219 -0.3825  0.5439
 7504TIP3   OH244002   2.486   0.619   4.749  0.2727 -0.0968  0.1502
 7504TIP3    H144003   2.495   0.532   4.786 -1.2846  0.4491  1.8535
 7504TIP3    H244004   2.549   0.672   4.797 -0.8407  0.3357  1.1439
 7505TIP3   OH244005   0.678   3.511   5.374  0.8106  0.1152  0.4512
 7505TIP3    H144006   0.739   3.501   5.301  0.5349 -0.7409  0.3330
 7505TIP3    H244007   0.642   3.424   5.387  1.6019  0.0280  2.2669
 7506TIP3   OH244008   1.232   3.459   2.712 -0.2388 -0.3749 -0.3563
 7506TIP3    H144009   1.325   3.478   2.707 -0.0945 -1.5449 -2.9369
 7506TIP3    H244010   1.200   3.515   2.783  2.4887 -0.3184  0.8860
 7507TIP3   OH244011   0.424   0.605  16.465 -0.0297  0.3371  0.0723
 7507TIP3    H144012   0.366   0.677  16.440 -0.3966  0.0475  0.0988
 7507TIP3    H244013   0.507   0.626  16.422 -0.7930 -0.4390 -1.8219
 7508TIP3   OH244014   5.779   4.719   1.196 -0.1113  0.3181 -0.9089
 7508TIP3    H144015   5.872   4.740   1.210 -0.2879 -0.2498  1.2165
 7508TIP3    H244016   5.734   4.760   1.270 -1.5680  0.5123 -1.8818
 7509TIP3   OH244017   5.226   1.808   1.795 -0.4859 -0.0724 -0.2647
 7509TIP3    H144018   5.200   1.818   1.886 -1.6050 -1.3937 -0.4398
 7509TIP3    H244019   5.145   1.817   1.745 -0.0880 -0.7816 -1.0399
 7510TIP3   OH244020   0.862   0.756   0.505 -0.1855 -0.3291 -0.1469
 7510TIP3    H144021   0.804   0.806   0.562 -0.6401 -0.7243 -0.2581
 7510TIP3    H244022   0.941   0.810   0.497 -0.8816  0.6092 -0.7153
 7511TIP3   OH244023   0.064   1.223   6.017  0.1228 -0.3417  0.8904
 7511TIP3    H144024   0.141   1.229   6.073  0.1572  1.1302  0.7100
 7511TIP3    H244025   0.098   1.234   5.928 -0.2309 -0.0647  0.7850
 7512TIP3   OH244026   5.428   5.605   2.895  0.0343 -0.1194  0.3138
 7512TIP3    H144027   5.359   5.541   2.878 -0.6099  1.2321 -2.5539
 7512TIP3    H244028   5.474   5.614   2.811  3.0590 -0.2282  1.9068
 7513TIP3   OH244029   5.932   2.430   0.515  0.0972  0.2566 -0.2815
 7513TIP3    H144030   5.996   2.465   0.453 -0.9929  0.8461 -1.0972
 7513TIP3    H244031   5.868   2.385   0.460  0.1628 -0.9263  0.5812
 7514TIP3   OH244032   4.903   2.456   4.377 -0.6068 -0.3303 -0.0577
 7514TIP3    H144033   4.881   2.493   4.462  0.7091 -0.2507  0.2627
 7514TIP3    H244034   4.899   2.529   4.316  0.0575 -0.0518  0.2300
 7515TIP3   OH244035   3.253   5.287  15.379  0.1634 -0.5149 -0.0258
 7515TIP3    H144036   3.193   5.358  15.357  0.5964  0.6865  2.4872
 7515TIP3    H244037   3.214   5.245  15.456  1.1329 -1.4612 -0.0294
 7516TIP3   OH244038   6.464   6.796   5.267  0.0879  0.0889 -0.2866
 7516TIP3    H144039   6.393   6.739   5.238  0.9771 -1.2089  0.0648
 7516TIP3    H244040   6.467   6.784   5.362  0.1665  0.8555 -0.1889
 7517TIP3   OH244041   0.786   1.098   0.698  0.1523  0.0095  0.7891
 7517TIP3    H144042   0.866   1.130   0.739  0.3011 -0.3108  0.7489
 7517TIP3    H244043   0.758   1.170   0.641  0.8340 -0.1764  0.2076
 7518TIP3   OH244044   5.499   6.706   3.472  0.0134 -0.2049  0.0858
 7518TIP3    H144045   5.507   6.757   3.553  0.4694  0.3628 -0.3046
 7518TIP3    H244046   5.584   6.718   3.428  0.3008 -1.6796  0.2013
 7519TIP3   OH244047   5.085   5.494  13.661  0.1633 -0.1959  0.0490
 7519TIP3    H144048   4.994   5.525  13.659  0.4314  0.6005 -0.0039
 7519TIP3    H244049   5.098   5.452  13.576 -0.1986 -0.4479  0.1135
 7520TIP3   OH244050   4.910   1.290  16.618  0.2392  0.2174 -0.6071
 7520TIP3    H144051   4.983   1.316  16.674 -1.3944 -1.5002  2.4235
 7520TIP3    H244052   4.952   1.256  16.539  2.7219 -0.1275  0.8214
 7521TIP3   OH244053   3.943   1.769  15.033  0.1799  0.0230  0.0351
 7521TIP3    H144054   3.920   1.716  14.957  0.2749 -0.7846  0.5633
 7521TIP3    H244055   3.947   1.859  15.000 -1.5808 -0.0869 -0.5192
 7522TIP3   OH244056   3.196   4.497   2.942 -0.5626  0.2363  0.1371
 7522TIP3    H144057   3.247   4.538   3.012  1.9380 -1.8844 -0.3728
 7522TIP3    H244058   3.236   4.529   2.861 -1.1014 -0.1949 -0.3055
 7523TIP3   OH244059   2.805   0.444   0.880  0.4859 -0.5254  0.3527
 7523TIP3    H144060   2.831   0.410   0.965  2.6563  0.2383  0.0145
 7523TIP3    H244061   2.710   0.432   0.877  0.4822 -1.1312  2.6098
 7524TIP3   OH244062   6.687   3.219   0.802 -0.1194  0.1144 -0.1011
 7524TIP3    H144063   6.692   3.153   0.732  2.5997  2.4186 -2.2061
 7524TIP3    H244064   6.722   3.298   0.762 -3.3534  2.9053  2.3440
 7525TIP3   OH244065   5.343   5.493   5.467 -0.3099  0.2805 -0.4795
 7525TIP3    H144066   5.321   5.504   5.560  1.0138  0.2541 -0.1542
 7525TIP3    H244067   5.279   5.431   5.435 -0.7347  0.2256  0.4389
 7526TIP3   OH244068   6.209   5.052   0.643  0.1156  0.2299  0.1736
 7526TIP3    H144069   6.253   5.061   0.559  0.4039 -0.7942  0.2085
 7526TIP3    H244070   6.263   5.101   0.705  0.8918 -0.5483  0.1067
 7527TIP3   OH244071   0.487   1.462   1.259  0.4549 -0.1490 -0.5830
 7527TIP3    H144072   0.403   1.445   1.216  0.6481 -1.7142 -0.3872
 7527TIP3    H244073   0.535   1.517   1.197 -0.1523 -0.4850 -1.3577
 7528TIP3   OH244074   2.213   0.565   6.334 -0.3747  0.1028 -0.1334
 7528TIP3    H144075   2.172   0.613   6.261 -1.7585  0.2291  0.6963
 7528TIP3    H244076   2.147   0.568   6.403  0.2617 -1.4608  0.5466
 7529TIP3   OH244077   1.457   4.309  12.829  0.2581  0.2550  0.4851
 7529TIP3    H144078   1.461   4.404  12.816 -0.3740  0.1275 -0.7526
 7529TIP3    H244079   1.420   4.275  12.747  1.6623 -1.1846  0.4216
 7530TIP3   OH244080   0.716   5.292  13.995 -0.2381  0.3327  0.3754
 7530TIP3    H144081   0.654   5.297  13.922  1.0406  1.5500 -0.6536
 7530TIP3    H244082   0.677   5.228  14.055 -0.7482 -1.6197 -1.9273
 7531TIP3   OH244083   3.254   4.192  13.972  0.2044 -0.5258  0.5498
 7531TIP3    H144084   3.229   4.277  13.934  0.6398  0.2607  1.9625
 7531TIP3    H244085   3.203   4.128  13.923 -1.0670  0.6596  0.2757
 7532TIP3   OH244086   3.423   1.481   4.174  0.2356 -0.3590  0.2394
 7532TIP3    H144087   3.336   1.462   4.137  0.0068 -1.5031  1.3328
 7532TIP3    H244088   3.433   1.417   4.244  0.7926  1.5782  1.9451
 7533TIP3   OH244089   5.636   4.530   1.528 -0.0216  0.1761  0.0847
 7533TIP3    H144090   5.711   4.471   1.540  0.3747  0.6483 -0.0646
 7533TIP3    H244091   5.580   4.512   1.603  1.8759  2.2666  2.0604
 7534TIP3   OH244092   4.896   3.250  11.901  0.0380  0.1565  0.1602
 7534TIP3    H144093   4.912   3.181  11.837  0.2586 -0.8459  1.2725
 7534TIP3    H244094   4.810   3.285  11.878 -0.1751 -0.6368 -0.2831
 7535TIP3   OH244095   2.023   1.566  14.017  0.3709 -0.2523 -0.2274
 7535TIP3    H144096   2.020   1.478  14.054 -1.2674  0.1679  0.6906
 7535TIP3    H244097   2.116   1.584  14.004  0.7697 -1.7268  0.5060
 7536TIP3   OH244098   3.820   0.416   1.484  0.0309  0.5920  0.5937
 7536TIP3    H144099   3.902   0.367   1.492  0.7411  1.9602  1.9462
 7536TIP3    H244100   3.768   0.389   1.560 -0.5438  0.1365  0.0378
 7537TIP3   OH244101   0.650   6.192  12.783  0.2259 -0.6175 -0.0738
 7537TIP3    H144102   0.582   6.126  12.775 -0.2231 -0.3891  1.7015
 7537TIP3    H244103   0.603   6.273  12.801  0.9199 -0.3733  0.6932
 7538TIP3   OH244104   5.998   1.791   0.392  0.2697 -0.0782 -0.0248
 7538TIP3    H144105   6.065   1.825   0.451  1.5447  1.0441 -2.0344
 7538TIP3    H244106   5.919   1.840   0.414  0.2477 -0.9558  1.9397
 7539TIP3   OH244107   6.123   4.900  15.728  0.5028 -0.1457  0.3179
 7539TIP3    H144108   6.046   4.951  15.705  0.2192 -1.4085 -1.6795
 7539TIP3    H244109   6.197   4.955  15.703  0.2104 -1.8677 -4.7805
 7540TIP3   OH244110   4.247   6.299   0.647  0.5040  0.4725  0.0709
 7540TIP3    H144111   4.234   6.391   0.626 -1.6528  0.6475  2.0501
 7540TIP3    H244112   4.174   6.254   0.605  1.3635 -0.3326 -0.6096
 7541TIP3   OH244113   0.869   4.688  13.401 -0.3571  0.0452 -0.0569
 7541TIP3    H144114   0.959   4.695  13.430 -0.4158  3.0277 -0.4805
 7541TIP3    H244115   0.818   4.673  13.481  0.3116  0.3347  0.4253
 7542TIP3   OH244116   1.611   6.548  10.767 -0.2594 -0.2171 -0.1766
 7542TIP3    H144117   1.601   6.531  10.861  1.9799  2.3332  0.5965
 7542TIP3    H244118   1.529   6.590  10.741 -0.6364 -0.3420  0.7947
 7543TIP3   OH244119   4.413   0.687  13.188  0.5463 -0.6000  0.4253
 7543TIP3    H144120   4.445   0.774  13.211  0.1817 -0.3086 -0.1391
 7543TIP3    H244121   4.319   0.690  13.207 -0.0133  0.0639 -2.2044
 7544TIP3   OH244122   1.952   5.379  13.120 -0.0746 -0.7647 -0.0931
 7544TIP3    H144123   1.893   5.433  13.173 -0.3583  0.1880 -1.3347
 7544TIP3    H244124   2.036   5.423  13.126 -0.3856  0.0280 -1.3847
 7545TIP3   OH244125   5.613   4.020   2.943  0.1019  0.2114 -0.5034
 7545TIP3    H144126   5.640   4.020   3.035  2.2281  0.6231 -1.1102
 7545TIP3    H244127   5.558   3.942   2.935 -0.3927  0.3594  1.1860
 7546TIP3   OH244128   0.486   1.506  11.939  0.1276  0.5372 -0.2928
 7546TIP3    H144129   0.412   1.561  11.964 -0.4937 -0.8122  0.9386
 7546TIP3    H244130   0.471   1.485  11.847 -0.8893  0.4773 -0.1213
 7547TIP3   OH244131   3.064   0.282  16.091 -0.3980  0.0555 -0.0749
 7547TIP3    H144132   3.154   0.317  16.091  0.7966 -2.8807  0.2257
 7547TIP3    H244133   3.046   0.262  16.183 -1.8214  1.5927  0.0187
 7548TIP3   OH244134   4.831   4.665  13.079 -0.1990 -0.4903 -0.1224
 7548TIP3    H144135   4.839   4.753  13.043  2.1794 -0.8655 -0.6060
 7548TIP3    H244136   4.884   4.610  13.021  0.0312 -1.8749  1.3593
 7549TIP3   OH244137   3.084   5.910  11.507  0.2520 -0.0131 -0.0497
 7549TIP3    H144138   3.069   5.894  11.414  1.1276 -1.4932  0.0485
 7549TIP3    H244139   3.179   5.924  11.514  0.2188 -0.0773  0.6415
 7550TIP3   OH244140   6.754   5.470   4.671 -0.1287  0.1302 -0.2407
 7550TIP3    H144141   6.805   5.396   4.703  0.4867  0.5965 -0.1234
 7550TIP3    H244142   6.788   5.486   4.583  0.3694  0.8371  0.0741
 7551TIP3   OH244143   0.948   5.322   0.428 -0.1352 -0.0056 -0.5037
 7551TIP3    H144144   0.868   5.359   0.390 -0.5081  0.9191  1.1322
 7551TIP3    H244145   0.925   5.302   0.518  1.2614 -0.4513 -0.2349
 7552TIP3   OH244146   6.018   2.205   2.243 -0.1043  0.2366  0.4248
 7552TIP3    H144147   6.109   2.217   2.271 -0.0566  0.4181  0.1896
 7552TIP3    H244148   6.025   2.164   2.157 -0.2431  0.5192  0.2789
 7553TIP3   OH244149   5.011   0.904   0.228  0.8349  0.6346  0.0285
 7553TIP3    H144150   5.037   0.915   0.319  3.6664  0.2322 -0.6760
 7553TIP3    H244151   5.089   0.868   0.185 -0.6923  0.0870 -2.3933
 7554TIP3   OH244152   2.637   5.058   3.851  0.5057  0.1322 -0.1175
 7554TIP3    H144153   2.728   5.031   3.839  0.2361 -0.9131  0.1467
 7554TIP3    H244154   2.630   5.077   3.944  0.7434  1.3290 -0.3341
 7555TIP3   OH244155   5.170   4.091   4.146  0.0787  0.2775 -0.1945
 7555TIP3    H144156   5.193   4.179   4.114 -1.4868  0.7014 -0.2050
 7555TIP3    H244157   5.253   4.054   4.177  1.5329  0.1645 -3.9759
 7556TIP3   OH244158   1.415   1.110   0.677 -0.2596 -0.5920  0.2716
 7556TIP3    H144159   1.425   1.090   0.584 -0.0333  0.7674 -0.0057
 7556TIP3    H244160   1.495   1.158   0.700 -0.1758 -1.1835  1.2392
 7557TIP3   OH244161   0.010   4.109  16.046 -0.0036  0.5873 -0.5625
 7557TIP3    H144162   0.005   4.203  16.028 -0.4224  0.6288 -0.2395
 7557TIP3    H244163   0.099   4.095  16.077  0.3815  0.7008 -1.6029
 7558TIP3   OH244164   5.495   4.307   1.042 -0.2351  0.3109 -0.3400
 7558TIP3    H144165   5.501   4.347   1.128 -1.4437 -0.5492  0.1660
 7558TIP3    H244166   5.427   4.358   0.997  0.9153  1.2311 -1.0593
 7559TIP3   OH244167   6.286   3.648   2.200  0.3891 -0.5170  0.1173
 7559TIP3    H144168   6.334   3.673   2.279  1.4004 -3.9277  0.6588
 7559TIP3    H244169   6.352   3.650   2.131  0.6767 -2.3611  0.3171
 7560TIP3   OH244170   5.850   1.262  11.554 -0.2930  0.1957 -0.3722
 7560TIP3    H144171   5.806   1.339  11.518 -0.2487  0.6201  0.4545
 7560TIP3    H244172   5.876   1.289  11.642 -1.7680 -1.3134  0.5541
 7561TIP3   OH244173   1.008   0.507   6.282  0.3489 -0.3360  0.6286
 7561TIP3    H144174   1.057   0.540   6.357  2.3059 -0.3678 -0.5733
 7561TIP3    H244175   0.934   0.566   6.273  0.2867 -0.1312  2.3645
 7562TIP3   OH244176   4.938   1.076   1.522 -0.0017  0.2646  0.3118
 7562TIP3    H144177   5.032   1.088   1.511  0.1964 -2.1369 -0.8227
 7562TIP3    H244178   4.899   1.111   1.442  0.1850 -1.5863 -0.6160
 7563TIP3   OH244179   0.784   4.651   2.603 -0.2309  0.0251  0.4940
 7563TIP3    H144180   0.808   4.638   2.695 -1.2199  0.6304  0.8531
 7563TIP3    H244181   0.690   4.633   2.601 -0.7098  2.4256  0.0909
 7564TIP3   OH244182   2.272   4.876  11.557  0.3498 -0.4894 -0.3108
 7564TIP3    H144183   2.292   4.892  11.649  0.6715 -1.6121 -0.1831
 7564TIP3    H244184   2.176   4.873  11.554  0.3557 -1.9147  0.2565
 7565TIP3   OH244185   2.650   5.081   0.650  0.3880 -0.2122 -0.0931
 7565TIP3    H144186   2.716   5.013   0.634 -0.0572 -0.3906 -1.2287
 7565TIP3    H244187   2.659   5.102   0.743  0.4379 -1.9158  0.2942
 7566TIP3   OH244188   2.245   4.138   4.944  0.0085 -0.1042 -0.1844
 7566TIP3    H144189   2.255   4.161   4.852  0.3026 -1.7170 -0.5787
 7566TIP3    H244190   2.211   4.048   4.942  1.2311 -0.6126  1.2922
 7567TIP3   OH244191   1.433   1.326   4.441 -0.0310  0.0918  0.2279
 7567TIP3    H144192   1.417   1.420   4.434  0.6821  0.2722  0.9463
 7567TIP3    H244193   1.384   1.298   4.518 -0.4607 -0.1803 -0.1403
 7568TIP3   OH244194   3.830   0.601  11.715 -0.3549 -0.1908 -0.2596
 7568TIP3    H144195   3.807   0.583  11.623 -0.9750  2.5687 -0.6873
 7568TIP3    H244196   3.749   0.632  11.755 -0.0921 -1.4029  1.2445
 7569TIP3   OH244197   1.397   4.735  15.821  0.3799  0.0425 -0.1244
 7569TIP3    H144198   1.377   4.752  15.913  1.2119  0.8463 -0.0845
 7569TIP3    H244199   1.443   4.651  15.821 -0.9941 -0.7410  0.0088
 7570TIP3   OH244200   4.671   5.704  10.860  0.7920 -0.5374  0.4208
 7570TIP3    H144201   4.747   5.749  10.824  0.9327 -0.2763  1.0315
 7570TIP3    H244202   4.681   5.613  10.832  1.3223 -0.5000  0.4833
 7571TIP3   OH244203   2.089   3.772   0.104 -0.5544 -0.0712 -0.4197
 7571TIP3    H144204   2.131   3.826   0.171 -1.1040 -0.4663  0.2454
 7571TIP3    H244205   2.054   3.697   0.152 -1.0361 -0.3113 -1.1353
 7572TIP3   OH244206   5.582   4.172   1.567 -0.3276  0.1667 -0.1298
 7572TIP3    H144207   5.498   4.199   1.530 -1.8367 -1.5416  1.8894
 7572TIP3    H244208   5.567   4.173   1.662  0.7946 -3.6081  0.1667
 7573TIP3   OH244209   0.503   6.107  13.849  0.0725 -0.3476  0.9622
 7573TIP3    H144210   0.452   6.035  13.885 -0.6776  0.3828  1.3937
 7573TIP3    H244211   0.523   6.162  13.925  0.0766  0.2431  0.5346
 7574TIP3   OH244212   5.931   4.946   1.661  0.4253  0.4904 -0.5138
 7574TIP3    H144213   5.939   4.977   1.570  1.7680  0.7480 -0.3188
 7574TIP3    H244214   5.841   4.916   1.668 -0.2938  2.3587 -1.3572
 7575TIP3   OH244215   3.934   2.756  11.832  0.2025  0.1134  0.4504
 7575TIP3    H144216   4.019   2.713  11.827  1.1193  1.8123  1.1743
 7575TIP3    H244217   3.907   2.746  11.923 -0.4034 -0.4422  0.2190
 7576TIP3   OH244218   3.498   3.971  12.465 -0.0750  0.0032  0.2791
 7576TIP3    H144219   3.529   4.022  12.540 -1.8419 -0.8167  1.6222
 7576TIP3    H244220   3.575   3.926  12.433  0.8169  0.7817  1.2787
 7577TIP3   OH244221   5.132   2.758  16.275  0.3177 -0.6937 -0.5859
 7577TIP3    H144222   5.154   2.724  16.361  0.4644  1.3457  0.2220
 7577TIP3    H244223   5.103   2.682  16.225  0.2406 -1.8987  1.2607
 7578TIP3   OH244224   0.733   4.499  11.474 -0.1920  0.2559  0.6048
 7578TIP3    H144225   0.794   4.426  11.477  0.1332  0.5789  2.2374
 7578TIP3    H244226   0.741   4.534  11.385  1.3284 -0.2662  0.5282
 7579TIP3   OH244227   5.970   3.329   3.968 -0.4035 -0.1627 -0.0108
 7579TIP3    H144228   5.953   3.341   4.061 -1.0794 -1.1223 -0.0040
 7579TIP3    H244229   5.926   3.247   3.946 -0.2052  0.0331 -1.1641
 7580TIP3   OH244230   4.886   5.961   2.950  0.4253  0.1697 -0.0071
 7580TIP3    H144231   4.791   5.976   2.946  0.3665  0.0658  0.8727
 7580TIP3    H244232   4.914   5.960   2.858 -0.6268 -1.0764 -0.3291
 7581TIP3   OH244233   1.653   0.595   1.901 -0.2766 -0.4021 -0.0518
 7581TIP3    H144234   1.603   0.547   1.835  1.2890  0.4230 -1.8927
 7581TIP3    H244235   1.741   0.560   1.895 -0.0303 -0.0633  1.3797
 7582TIP3   OH244236   6.306   2.831  10.807  0.5389  0.1967  0.1361
 7582TIP3    H144237   6.224   2.842  10.854  1.0587 -0.6816  1.2760
 7582TIP3    H244238   6.334   2.742  10.828  1.2627  0.1262 -1.0757
 7583TIP3   OH244239   0.566   5.187  13.737 -0.6591  0.0489 -0.0171
 7583TIP3    H144240   0.584   5.216  13.647  1.3118 -0.3755  0.2281
 7583TIP3    H244241   0.515   5.259  13.774  2.0404  2.1649 -0.2079
 7584TIP3   OH244242   4.883   1.660  12.631 -0.4156  0.4390  0.0823
 7584TIP3    H144243   4.951   1.644  12.565 -0.1698  0.2263  0.3893
 7584TIP3    H244244   4.930   1.662  12.714 -0.5948  1.6037  0.1728
 7585TIP3   OH244245   0.749   1.419  15.049 -0.0468  0.1754 -0.3964
 7585TIP3    H144246   0.781   1.344  14.999 -1.3784 -0.7320  0.0685
 7585TIP3    H244247   0.683   1.382  15.108  0.7008  1.3876  1.2724
 7586TIP3   OH244248   1.209   1.972  15.051  0.0004  0.5319  0.1287
 7586TIP3    H144249   1.274   2.026  15.096  0.0124  0.5666  0.0688
 7586TIP3    H244250   1.260   1.910  15.000 -0.0015 -0.5818  1.4497
 7587TIP3   OH244251   3.049   1.312   4.292  0.5529  0.3402  0.4096
 7587TIP3    H144252   3.111   1.242   4.311  0.8863  1.0074  1.8388
 7587TIP3    H244253   3.092   1.364   4.224  0.5723 -0.4601 -0.2106
 7588TIP3   OH244254   1.984   1.914  15.718  0.1262  0.4921  0.7156
 7588TIP3    H144255   1.903   1.874  15.748 -0.2569 -0.6884 -1.7337
 7588TIP3    H244256   1.988   1.998  15.763 -2.7761  0.8216  0.4305
 7589TIP3   OH244257   3.043   2.641  16.893  0.0956 -0.7896  0.0374
 7589TIP3    H144258   3.053   2.734  16.915 -0.1933 -0.6345 -0.4770
 7589TIP3    H244259   3.008   2.601  16.973 -0.5262 -0.3090  0.0129
 7590TIP3   OH244260   6.390   3.318  17.122  0.0711  0.7766  0.0979
 7590TIP3    H144261   6.467   3.268  17.094 -0.3300  1.0116 -1.5062
 7590TIP3    H244262   6.408   3.342  17.212  1.1769 -0.5369  0.2444
 7591TIP3   OH244263   3.778   5.287   2.398 -0.2169  0.4419  0.8021
 7591TIP3    H144264   3.854   5.233   2.380  0.0001  1.1483 -0.4043
 7591TIP3    H244265   3.717   5.268   2.327  0.6337  3.1973 -0.7665
 7592TIP3   OH244266   5.191   0.744   5.173  0.1767 -0.1205 -0.7026
 7592TIP3    H144267   5.214   0.664   5.220 -2.4216 -1.1835 -1.1647
 7592TIP3    H244268   5.233   0.734   5.087  0.9543 -0.3554 -0.3019
 7593TIP3   OH244269   3.196   1.867   4.072 -0.0193 -0.3338  1.1258
 7593TIP3    H144270   3.153   1.843   3.990  0.7699  0.8580  0.3461
 7593TIP3    H244271   3.136   1.930   4.113  0.8591  1.2122  0.1111
 7594TIP3   OH244272   2.831   4.811   4.556  0.7431 -0.6541  0.2327
 7594TIP3    H144273   2.781   4.871   4.612 -0.0402  1.1936 -2.3123
 7594TIP3    H244274   2.765   4.760   4.510  1.2013  0.3851 -1.6552
 7595TIP3   OH244275   0.107   0.811  16.457 -0.1693 -0.4168  0.0401
 7595TIP3    H144276   0.015   0.832  16.442 -0.3808 -0.7408  0.8588
 7595TIP3    H244277   0.154   0.864  16.392 -0.9175 -0.1654 -0.3111
 7596TIP3   OH244278   1.033   4.747   1.543 -0.1966 -0.0166 -0.1709
 7596TIP3    H144279   1.071   4.807   1.608  0.2090 -1.2720  0.7811
 7596TIP3    H244280   1.108   4.719   1.490 -0.2933 -0.1117 -0.2566
 7597TIP3   OH244281   0.794   5.665  12.831 -0.0334  0.2547 -0.3049
 7597TIP3    H144282   0.774   5.736  12.891  0.4838  1.4830 -1.5680
 7597TIP3    H244283   0.787   5.585  12.884 -2.5228  1.0745  0.6799
 7598TIP3   OH244284   1.956   4.736  12.216  0.4013  0.3069  0.7258
 7598TIP3    H144285   1.868   4.769  12.198  0.1468 -0.2540  0.8959
 7598TIP3    H244286   1.995   4.724  12.130 -0.3070 -1.0438  0.5694
 7599TIP3   OH244287   5.256   4.651  15.583  0.0461  0.0658  0.3278
 7599TIP3    H144288   5.351   4.642  15.588  0.0502 -0.0695  0.0389
 7599TIP3    H244289   5.236   4.640  15.490 -0.5753 -2.9075  0.7771
 7600TIP3   OH244290   3.229   6.338  13.474 -0.2028 -0.3771 -0.3902
 7600TIP3    H144291   3.258   6.346  13.383 -2.3339  4.2618 -0.8360
 7600TIP3    H244292   3.150   6.284  13.469 -2.4537  2.8810 -1.9720
 7601TIP3   OH244293   2.224   4.643  16.017 -0.4785 -0.0053  0.3184
 7601TIP3    H144294   2.319   4.644  16.011 -0.5725 -0.6548 -1.4968
 7601TIP3    H244295   2.206   4.642  16.111  1.2885  0.6441  0.6811
 7602TIP3   OH244296   5.614   5.632  14.785  0.0849  0.2146 -0.3200
 7602TIP3    H144297   5.551   5.698  14.752  0.1848  1.4373  1.8553
 7602TIP3    H244298   5.697   5.680  14.791  0.1727 -0.1266  1.2074
 7603TIP3   OH244299   1.833   1.371   4.552 -0.5544  0.0393  0.5109
 7603TIP3    H144300   1.755   1.331   4.590 -0.0314  0.1671  1.7451
 7603TIP3    H244301   1.881   1.298   4.514  0.1473 -0.4775  2.3115
 7604TIP3   OH244302   0.864   6.087  16.985  0.2448  0.2437  0.1744
 7604TIP3    H144303   0.818   6.008  16.958  0.9211 -0.1987  0.3373
 7604TIP3    H244304   0.890   6.071  17.076 -0.2897  0.9537  0.4602
 7605TIP3   OH244305   1.968   2.064  12.507 -0.0661 -0.3637 -0.5786
 7605TIP3    H144306   1.925   2.022  12.432  0.1701  0.6811 -1.3017
 7605TIP3    H244307   1.974   2.156  12.483  0.1422 -0.0421  0.6718
 7606TIP3   OH244308   2.555   1.480   6.307  0.7145  0.3891  0.2497
 7606TIP3    H144309   2.572   1.456   6.398 -1.1034 -1.0587  0.2290
 7606TIP3    H244310   2.522   1.570   6.311 -0.7948 -0.1892  1.1937
 7607TIP3   OH244311   2.788   5.967  17.064 -0.2150  0.6558 -0.0511
 7607TIP3    H144312   2.801   5.913  17.142  2.8506  1.5889  0.1625
 7607TIP3    H244313   2.717   5.925  17.017 -1.6912 -0.2913  2.9250
 7608TIP3   OH244314   3.981   1.299   1.405 -0.1550  0.0945 -0.0871
 7608TIP3    H144315   3.887   1.291   1.421 -0.2558  0.8062 -0.3149
 7608TIP3    H244316   4.008   1.210   1.379 -0.2009 -0.8028  2.7831
 7609TIP3   OH244317   4.921   5.861  11.106  0.1761 -0.0606 -0.3955
 7609TIP3    H144318   5.005   5.827  11.075  0.2725 -1.7513  1.5666
 7609TIP3    H244319   4.942   5.946  11.145  0.6456  0.3908 -1.6198
 7610TIP3   OH244320   3.375   2.465  12.716  0.3714 -0.3154  0.5916
 7610TIP3    H144321   3.410   2.384  12.755  0.5472  0.9704  3.2160
 7610TIP3    H244322   3.408   2.464  12.626  0.2587 -3.2205  0.5287
 7611TIP3   OH244323   5.108   0.195   3.294  0.4641  0.1825 -0.0511
 7611TIP3    H144324   5.126   0.102   3.279  0.0579  0.5171 -2.7797
 7611TIP3    H244325   5.195   0.234   3.305  0.8244 -0.0359 -1.9887
 7612TIP3   OH244326   2.636   0.266  15.775 -0.1314  0.6986 -0.3110
 7612TIP3    H144327   2.692   0.199  15.736 -0.2439  0.4080  0.0222
 7612TIP3    H244328   2.603   0.316  15.701 -0.3340  0.1609 -0.5824
 7613TIP3   OH244329   3.687   5.149  11.207 -0.0753 -0.3467  0.0253
 7613TIP3    H144330   3.695   5.206  11.131  1.0999  0.5834  0.8225
 7613TIP3    H244331   3.593   5.134  11.217 -0.4334  1.7320 -0.0026
 7614TIP3   OH244332   1.337   2.490   0.566 -0.1398 -0.1981  0.7478
 7614TIP3    H144333   1.392   2.536   0.628  2.2286 -1.1290 -0.5931
 7614TIP3    H244334   1.398   2.446   0.507 -2.3127 -0.9659 -1.0311
 7615TIP3   OH244335   4.972   3.306   0.564 -0.4384  0.0786 -1.0458
 7615TIP3    H144336   5.054   3.256   0.559 -0.5687 -0.1481 -0.9084
 7615TIP3    H244337   4.915   3.264   0.499 -0.4705  0.1938 -1.0924
 7616TIP3   OH244338   1.173   1.817  12.137  0.3409 -0.6341  0.0936
 7616TIP3    H144339   1.213   1.782  12.216  0.3164 -1.0499 -0.0779
 7616TIP3    H244340   1.079   1.814  12.153  0.3290 -0.8931 -0.0256
 7617TIP3   OH244341   2.563   3.454   3.796 -0.4783 -0.4327  0.0166
 7617TIP3    H144342   2.620   3.401   3.741  0.9340  1.8711 -0.8158
 7617TIP3    H244343   2.498   3.393   3.830  2.5967 -3.1944  1.1514
 7618TIP3   OH244344   0.712   3.219   2.463  0.5526  0.0619  0.0512
 7618TIP3    H144345   0.744   3.204   2.552 -0.9443 -2.3885  0.2326
 7618TIP3    H244346   0.626   3.257   2.475 -0.3944 -1.9034 -0.2865
 7619TIP3   OH244347   4.419   3.169   1.250 -0.5339 -0.2142 -0.3637
 7619TIP3    H144348   4.350   3.219   1.208 -0.7953  0.3639  0.7200
 7619TIP3    H244349   4.497   3.224   1.244 -0.7043  0.1134  0.3943
 7620TIP3   OH244350   0.326   0.568   3.781  0.0308 -0.1122  0.4624
 7620TIP3    H144351   0.388   0.619   3.833  0.1039  0.1651  0.1019
 7620TIP3    H244352   0.279   0.633   3.728 -0.4178 -0.3404  0.5715
 7621TIP3   OH244353   0.294   2.071  13.588  0.1900  0.1446  0.2651
 7621TIP3    H144354   0.373   2.073  13.641  0.6368 -0.8334 -0.3607
 7621TIP3    H244355   0.261   2.161  13.591  1.7769  0.7508 -0.1793
 7622TIP3   OH244356   1.446   1.942   5.675 -0.2281  0.1839  0.2133
 7622TIP3    H144357   1.372   1.887   5.647 -0.8233  1.0039  0.1421
 7622TIP3    H244358   1.428   1.962   5.767 -0.7163  1.3384 -0.1168
 7623TIP3   OH244359   3.051   3.556  10.997  0.3276 -0.2526 -0.1596
 7623TIP3    H144360   3.037   3.527  10.907 -0.8754  1.1922 -0.4549
 7623TIP3    H244361   3.120   3.621  10.991  1.3846 -1.3212  0.1949
 7624TIP3   OH244362   5.139   6.577  16.020 -0.0628  0.0874 -0.3899
 7624TIP3    H144363   5.222   6.597  16.063  0.2848  0.1289 -1.0774
 7624TIP3    H244364   5.117   6.656  15.972 -1.0695  0.4698  0.6814
 7625TIP3   OH244365   2.983   2.088   2.887  0.0168  0.0511 -0.1048
 7625TIP3    H144366   2.965   2.039   2.967  0.9984  2.1015  1.4084
 7625TIP3    H244367   2.896   2.114   2.855 -0.2783  1.3828  1.6993
 7626TIP3   OH244368   3.112   5.649   5.127  0.1820 -0.0091 -0.5085
 7626TIP3    H144369   3.126   5.741   5.153 -1.8351  0.2106 -0.1801
 7626TIP3    H244370   3.165   5.639   5.048  0.6664  1.3544 -0.3752
 7627TIP3   OH244371   2.283   1.982  13.375  0.2740 -0.7787  0.6446
 7627TIP3    H144372   2.206   1.925  13.373 -0.7345  0.4408  2.7869
 7627TIP3    H244373   2.248   2.070  13.362  1.5996 -0.4154 -0.7067
 7628TIP3   OH244374   5.956   6.798  12.669  0.3013 -0.5388 -0.1743
 7628TIP3    H144375   6.034   6.792  12.615  0.9089  0.7871  0.5555
 7628TIP3    H244376   5.940   6.708  12.699  1.0303 -0.9514 -1.0414
 7629TIP3   OH244377   6.489   3.566  13.523 -0.4201 -0.2087 -0.0971
 7629TIP3    H144378   6.513   3.519  13.443  4.0324 -0.8116  1.4470
 7629TIP3    H244379   6.513   3.506  13.594  0.6674  2.3583  1.7772
 7630TIP3   OH244380   0.357   1.387  15.865 -0.2670  0.1508  0.2389
 7630TIP3    H144381   0.441   1.363  15.826 -0.1759 -1.8026  1.5962
 7630TIP3    H244382   0.303   1.414  15.790  1.8499  2.4243 -0.5340
 7631TIP3   OH244383   4.163   3.296  14.835 -0.1865 -0.2852  0.4489
 7631TIP3    H144384   4.245   3.257  14.865  1.2526  1.7342 -0.7590
 7631TIP3    H244385   4.151   3.262  14.746  0.9765  1.8277 -0.5395
 7632TIP3   OH244386   2.998   2.921   0.495 -0.0932 -0.1998 -0.2024
 7632TIP3    H144387   3.063   2.988   0.515 -0.8698  0.8983 -1.2596
 7632TIP3    H244388   3.037   2.870   0.425 -0.5495  0.7934 -1.2134
 7633TIP3   OH244389   4.908   0.856   2.732 -0.0329 -0.3536 -0.1595
 7633TIP3    H144390   4.915   0.894   2.645 -0.1942 -0.1599 -0.0896
 7633TIP3    H244391   4.816   0.829   2.740 -0.4217  1.0936  0.5392
 7634TIP3   OH244392   5.545   1.003   5.441  0.4680 -0.0550  0.0910
 7634TIP3    H144393   5.573   0.922   5.484 -0.2139 -0.1469  0.3744
 7634TIP3    H244394   5.450   0.994   5.433  0.5775 -0.0167 -1.4039
 7635TIP3   OH244395   0.602   1.232  14.000 -0.0589  0.5847  0.3784
 7635TIP3    H144396   0.557   1.152  13.971  1.5044 -0.0359 -0.4047
 7635TIP3    H244397   0.607   1.224  14.095 -0.1325 -0.1366  0.3227
 7636TIP3   OH244398   0.229   4.480  12.307 -0.3740 -0.3139  0.0981
 7636TIP3    H144399   0.238   4.408  12.369 -1.6854 -0.1148  0.5422
 7636TIP3    H244400   0.209   4.438  12.224  1.6177 -0.5943 -0.2561
 7637TIP3   OH244401   0.729   6.555  14.178 -0.1456 -0.0844  0.1421
 7637TIP3    H144402   0.795   6.621  14.201 -0.7059  0.4219  0.2851
 7637TIP3    H244403   0.687   6.532  14.261 -0.7130  0.1932 -0.0675
 7638TIP3   OH244404   3.152   5.098   5.475  0.3995 -0.2301 -0.5366
 7638TIP3    H144405   3.106   5.181   5.470 -0.9423 -0.9223  0.0299
 7638TIP3    H244406   3.154   5.065   5.385  0.4089  0.1248 -0.6653
 7639TIP3   OH244407   0.547   5.554  14.882  0.4049  0.7882  0.1365
 7639TIP3    H144408   0.462   5.596  14.871  0.4989  1.1588  0.8166
 7639TIP3    H244409   0.575   5.578  14.971 -0.1212 -1.7418  1.0271
 7640TIP3   OH244410   5.437   0.785   1.304  0.0927  0.0327 -0.7208
 7640TIP3    H144411   5.433   0.706   1.358  0.1499  0.0096 -0.7507
 7640TIP3    H244412   5.525   0.784   1.266 -0.1780 -0.3027 -1.3483
 7641TIP3   OH244413   0.253   0.835  15.936 -0.8731  0.1595  0.9001
 7641TIP3    H144414   0.237   0.830  15.841 -2.9406  0.4452  1.1955
 7641TIP3    H244415   0.308   0.759  15.955 -1.1286 -0.3834 -0.4197
 7642TIP3   OH244416   2.366   0.277  15.826  0.1832  1.0360  0.1455
 7642TIP3    H144417   2.343   0.338  15.755  0.9652  0.3677 -0.6895
 7642TIP3    H244418   2.460   0.264  15.816 -0.1972 -1.3574 -0.5150
 7643TIP3   OH244419   0.114   6.048  16.038 -0.6629  0.1989 -0.4763
 7643TIP3    H144420   0.074   5.985  15.978 -1.5999  0.9069 -0.5977
 7643TIP3    H244421   0.112   6.006  16.123 -1.3817  0.1000 -0.5391
 7644TIP3   OH244422   2.654   4.995   4.630  0.2495  0.3451  0.0788
 7644TIP3    H144423   2.692   5.074   4.668  0.7866 -0.3685  1.0574
 7644TIP3    H244424   2.599   5.026   4.559  2.1361  1.4404 -0.9353
 7645TIP3   OH244425   3.710   4.728  11.401  0.2673 -0.3549  0.1551
 7645TIP3    H144426   3.745   4.675  11.473  0.6316  1.2709  1.2289
 7645TIP3    H244427   3.778   4.726  11.334  0.7036 -0.4511  0.5952
 7646TIP3   OH244428   3.187   2.917  12.576 -0.0838 -0.0728  0.1888
 7646TIP3    H144429   3.162   3.006  12.600  0.4646  0.2758 -0.5082
 7646TIP3    H244430   3.228   2.882  12.655 -0.9540  0.0311  0.6985
 7647TIP3   OH244431   2.150   1.920  12.920 -0.1521  0.3539  0.3619
 7647TIP3    H144432   2.207   1.849  12.893 -1.0411 -1.0430  2.0600
 7647TIP3    H244433   2.209   1.987  12.955  0.6582  0.3650 -1.0125
 7648TIP3   OH244434   6.091   1.474   4.545  0.4668  0.1566  0.0976
 7648TIP3    H144435   6.162   1.421   4.581  0.8328 -0.0605 -0.9322
 7648TIP3    H244436   6.128   1.561   4.534 -0.1227  0.6405  1.7494
 7649TIP3   OH244437   5.447   2.268  13.766  0.4404  0.2268  0.4790
 7649TIP3    H144438   5.481   2.183  13.737 -0.1213  0.3158 -0.4442
 7649TIP3    H244439   5.445   2.261  13.862  1.0300 -0.5572  0.4431
 7650TIP3   OH244440   0.102   2.492   5.994 -0.7887  0.4294  0.0590
 7650TIP3    H144441   0.175   2.533   6.040 -0.3465 -0.6105  0.3203
 7650TIP3    H244442   0.045   2.459   6.064  0.1994 -1.7152 -0.0899
 7651TIP3   OH244443   6.719   0.994  10.929  0.3629 -0.6909  0.1142
 7651TIP3    H144444   6.745   0.918  10.980  2.0916  0.0127  0.3151
 7651TIP3    H244445   6.706   0.961  10.840  0.2667 -1.3630  0.3777
 7652TIP3   OH244446   1.166   0.267   6.382 -0.5877  0.3321 -0.2746
 7652TIP3    H144447   1.121   0.190   6.416  1.3111 -0.2944  0.8657
 7652TIP3    H244448   1.207   0.307   6.459  0.3146  1.2105 -1.1939
 7653TIP3   OH244449   6.251   5.333  17.202 -0.0944 -0.0324  0.2977
 7653TIP3    H144450   6.306   5.399  17.244  0.1909  0.2107 -0.4585
 7653TIP3    H244451   6.269   5.342  17.109 -0.5358 -0.7487  0.1411
 7654TIP3   OH244452   2.133   6.593  13.152  0.4125 -0.2293  0.0112
 7654TIP3    H144453   2.170   6.670  13.196  1.6950 -0.6164 -0.3540
 7654TIP3    H244454   2.062   6.628  13.098  0.6570  0.6402  0.2354
 7655TIP3   OH244455   4.015   4.104  14.244 -0.3751  0.8753  0.4048
 7655TIP3    H144456   4.036   4.197  14.237  0.1832  0.8876  2.0136
 7655TIP3    H244457   4.099   4.059  14.231 -0.3771  0.6690  1.0759
 7656TIP3   OH244458   3.445   4.386  16.255 -0.4183 -0.1223 -0.7469
 7656TIP3    H144459   3.533   4.365  16.287 -0.2266 -0.1918 -1.3271
 7656TIP3    H244460   3.437   4.480  16.267 -0.5485 -0.2246  0.0109
 7657TIP3   OH244461   6.261   2.778  12.712  0.4533 -0.2384 -0.2022
 7657TIP3    H144462   6.215   2.694  12.708  0.1674 -0.0848 -0.1464
 7657TIP3    H244463   6.198   2.838  12.753  0.2567  0.2590 -1.2103
 7658TIP3   OH244464   4.646   4.269  16.726  0.1407  0.5036 -0.2052
 7658TIP3    H144465   4.722   4.211  16.718  0.5283  0.9170  0.3985
 7658TIP3    H244466   4.645   4.318  16.644  0.7509  0.7609 -0.0628
 7659TIP3   OH244467   4.595   1.291   2.534  0.0237  0.1565 -0.1268
 7659TIP3    H144468   4.577   1.198   2.548 -0.2501 -0.0050 -1.4656
 7659TIP3    H244469   4.512   1.327   2.502  0.5493  0.5338 -1.1033
 7660TIP3   OH244470   4.953   3.768  14.553 -0.0269  0.2193 -0.0225
 7660TIP3    H144471   4.877   3.797  14.502  0.9722  0.1776 -1.5599
 7660TIP3    H244472   5.026   3.819  14.519  0.4854  0.9424  2.1083
 7661TIP3   OH244473   2.320   1.503  12.696 -0.1915  0.6377  0.4294
 7661TIP3    H144474   2.310   1.420  12.648 -1.0354  0.7727  0.3722
 7661TIP3    H244475   2.338   1.476  12.786 -0.7907  0.3971  0.4755
 7662TIP3   OH244476   1.461   1.973   6.261 -0.3642  0.3342  0.5670
 7662TIP3    H144477   1.506   2.035   6.204 -0.5074 -0.1655 -0.0854
 7662TIP3    H244478   1.525   1.904   6.277 -1.5591 -1.4549 -2.0645
 7663TIP3   OH244479   2.735   4.676  11.893  0.4294 -0.8134  0.5379
 7663TIP3    H144480   2.796   4.750  11.894 -0.8708  0.2746  0.8205
 7663TIP3    H244481   2.770   4.616  11.958 -0.0643  0.8731  2.4261
 7664TIP3   OH244482   2.737   4.364   5.840  0.0300  0.2292 -0.7881
 7664TIP3    H144483   2.796   4.316   5.899 -0.7636 -0.5763 -0.6459
 7664TIP3    H244484   2.789   4.438   5.810  0.2464  1.0072  1.4213
 7665TIP3   OH244485   1.412   3.552  14.209 -0.2857  0.7671 -0.1042
 7665TIP3    H144486   1.440   3.565  14.299 -1.7802  0.9090  0.3565
 7665TIP3    H244487   1.321   3.581  14.208 -0.4869  0.1270 -1.5017
 7666TIP3   OH244488   2.423   4.515  16.910 -0.1051  0.1810 -0.4224
 7666TIP3    H144489   2.482   4.467  16.852 -1.1538 -0.5964 -0.8729
 7666TIP3    H244490   2.461   4.506  16.997  1.4784  1.3500 -0.9729
 7667TIP3   OH244491   5.686   2.517  17.246 -0.6459  0.1402  0.3230
 7667TIP3    H144492   5.655   2.427  17.261 -0.3372 -0.0292 -0.0473
 7667TIP3    H244493   5.769   2.521  17.293  0.8093 -0.6926 -2.1007
 7668TIP3   OH244494   0.912   5.294  13.419 -0.0034 -0.1773  0.2319
 7668TIP3    H144495   0.997   5.278  13.462  0.0622 -3.0769 -0.8581
 7668TIP3    H244496   0.858   5.334  13.487  1.4743 -0.5853  1.6867
 7669TIP3   OH244497   4.002   0.562   4.215 -0.0995  0.9942  0.5014
 7669TIP3    H144498   3.994   0.582   4.309 -1.8441 -1.0058  0.8033
 7669TIP3    H244499   4.078   0.613   4.187  0.4862  1.6017  3.0151
 7670TIP3   OH244500   6.027   2.301   5.811  0.3860 -0.0525 -0.7384
 7670TIP3    H144501   5.979   2.294   5.893  2.5336 -1.5418  0.4568
 7670TIP3    H244502   6.047   2.394   5.803  0.1406  0.1067  0.4212
 7671TIP3   OH244503   4.494   5.897   1.041 -0.1177  0.0898  0.2135
 7671TIP3    H144504   4.448   5.926   0.963  0.9307 -2.1017 -1.2682
 7671TIP3    H244505   4.427   5.858   1.096 -0.7542  1.0808  0.1527
 7672TIP3   OH244506   1.792   6.358   2.838  0.3849 -0.2572  0.1248
 7672TIP3    H144507   1.804   6.413   2.761  2.6447  1.6070  1.7706
 7672TIP3    H244508   1.838   6.277   2.817 -0.5907 -0.4927 -1.1870
 7673TIP3   OH244509   5.806   4.384  12.216  0.0434 -0.0485 -0.3652
 7673TIP3    H144510   5.781   4.404  12.126  0.8411 -2.5228 -1.1812
 7673TIP3    H244511   5.876   4.319  12.208  0.8008  0.4185  2.0322
 7674TIP3   OH244512   2.776   6.121  12.176  0.2824  0.4530 -0.4008
 7674TIP3    H144513   2.826   6.199  12.201  0.7268  0.7298 -2.0440
 7674TIP3    H244514   2.709   6.112  12.243 -0.2662  2.7091 -0.6070
 7675TIP3   OH244515   5.455   5.481   4.653 -0.1684 -0.3545 -0.1799
 7675TIP3    H144516   5.440   5.443   4.740 -0.5234  1.1642  0.4468
 7675TIP3    H244517   5.491   5.409   4.601 -0.7967 -1.5235  0.9704
 7676TIP3   OH244518   2.723   0.038  16.275 -0.0763  0.6739 -0.0271
 7676TIP3    H144519   2.692   0.114  16.225  0.4721 -0.5039 -2.2111
 7676TIP3    H244520   2.686  -0.037  16.229  2.0082 -0.5298  0.2128
 7677TIP3   OH244521   3.362   3.182  11.292  0.5265 -0.5075 -0.0918
 7677TIP3    H144522   3.389   3.272  11.273 -0.1778 -0.2831 -0.0156
 7677TIP3    H244523   3.316   3.154  11.214  0.3161 -0.6325  0.0768
 7678TIP3   OH244524   6.806   0.027  16.199  0.0667 -0.1080 -0.3411
 7678TIP3    H144525   6.844  -0.027  16.268  0.0064  0.0590 -0.1755
 7678TIP3    H244526   6.798   0.115  16.238  0.0761 -0.0025 -0.5732
 7679TIP3   OH244527   3.697   6.445  13.639  0.2021 -0.2725 -0.0718
 7679TIP3    H144528   3.620   6.403  13.678 -0.1187  0.7377  0.3768
 7679TIP3    H244529   3.771   6.401  13.681 -0.1287 -0.8302 -0.0660
 7680TIP3   OH244530   1.013   4.848   3.363 -0.1511 -0.7213  0.0186
 7680TIP3    H144531   1.071   4.859   3.438  0.0670  0.6407 -0.3278
 7680TIP3    H244532   0.925   4.844   3.400 -0.2280  1.9061  0.2521
 7681TIP3   OH244533   3.490   5.822  15.564  0.7728  0.3188  0.5821
 7681TIP3    H144534   3.497   5.855  15.654  1.6592  1.2095  0.1943
 7681TIP3    H244535   3.443   5.739  15.573  1.8942 -0.1979  2.0120
 7682TIP3   OH244536   2.105   3.412   3.431 -0.0740  0.2724  0.2704
 7682TIP3    H144537   2.060   3.346   3.483  1.4429  2.0789  4.1412
 7682TIP3    H244538   2.198   3.394   3.445  0.3863  0.7864 -1.9383
 7683TIP3   OH244539   2.190   2.081   0.757  0.1861 -0.4923  0.3981
 7683TIP3    H144540   2.154   2.045   0.837  0.4244 -1.3791  0.1158
 7683TIP3    H244541   2.125   2.061   0.690  0.6451 -1.0418  0.1085
 7684TIP3   OH244542   0.077   6.800   0.019  0.2284  0.2032  0.3279
 7684TIP3    H144543   0.170   6.788  -0.003  0.4244  2.3481 -0.1050
 7684TIP3    H244544   0.031   6.751  -0.049  1.0189 -0.8239  0.5011
 7685TIP3   OH244545   3.684   4.746  11.859 -0.0262 -0.5481 -0.5351
 7685TIP3    H144546   3.625   4.763  11.934 -1.2779 -0.3214 -1.5456
 7685TIP3    H244547   3.626   4.746  11.783  1.2881 -0.4335 -1.5539
 7686TIP3   OH244548   4.595   5.315   2.371 -0.1462  0.0103 -0.3570
 7686TIP3    H144549   4.649   5.259   2.427 -0.6066 -0.1403 -0.0693
 7686TIP3    H244550   4.557   5.255   2.307 -0.0839  0.1000 -0.4802
 7687TIP3   OH244551   0.865   5.389  13.772 -0.2303 -0.2178 -0.1833
 7687TIP3    H144552   0.789   5.386  13.830  0.9396  0.2232  1.3924
 7687TIP3    H244553   0.853   5.469  13.721 -0.0624  0.6310  1.1107
 7688TIP3   OH244554   5.278   5.259  11.783  0.0057 -0.4053 -0.2963
 7688TIP3    H144555   5.227   5.181  11.764  0.8425 -0.7184 -1.2908
 7688TIP3    H244556   5.237   5.328  11.731 -0.5915 -0.2255  0.4037
 7689TIP3   OH244557   3.960   5.549   0.284 -0.5202  0.0228  0.7876
 7689TIP3    H144558   4.021   5.480   0.308  0.7495  0.5621 -0.7801
 7689TIP3    H244559   3.949   5.540   0.189 -2.2197  0.4714  0.9101
 7690TIP3   OH244560   4.010   0.666  14.395 -0.0637 -0.0321 -0.3201
 7690TIP3    H144561   3.998   0.637  14.486  0.9879  1.6374  0.3752
 7690TIP3    H244562   4.060   0.595  14.354 -1.4731 -1.2891  0.0987
 7691TIP3   OH244563   6.544   1.290   4.745  0.3948  0.1576 -0.3867
 7691TIP3    H144564   6.605   1.364   4.748  1.2117 -0.4737 -1.3502
 7691TIP3    H244565   6.553   1.249   4.831 -0.9817  1.8914  0.6295
 7692TIP3   OH244566   0.134   3.364  14.946  0.1720 -0.1455  0.2078
 7692TIP3    H144567   0.052   3.368  14.896  0.3233  2.5264  0.1173
 7692TIP3    H244568   0.107   3.364  15.037  0.0585  0.0701  0.1745
 7693TIP3   OH244569   6.796   4.597   0.696 -0.6844 -0.3661 -0.1841
 7693TIP3    H144570   6.775   4.562   0.609 -0.7758  1.7020 -1.0201
 7693TIP3    H244571   6.838   4.524   0.742 -0.2797 -1.3690 -2.0968
 7694TIP3   OH244572   0.742   1.155  17.016  0.1496  0.1391 -0.4583
 7694TIP3    H144573   0.710   1.203  17.093 -1.1701 -2.7574  0.8836
 7694TIP3    H244574   0.837   1.152  17.027 -0.0452 -0.3854  1.1571
 7695TIP3   OH244575   1.359   5.973   1.740 -0.6449 -0.1835 -0.4487
 7695TIP3    H144576   1.359   6.063   1.706  0.2992  0.4274  1.1193
 7695TIP3    H244577   1.434   5.932   1.699  0.0109  0.3023  0.2599
 7696TIP3   OH244578   6.382   1.053  16.937 -0.0584 -0.2657 -0.2785
 7696TIP3    H144579   6.360   0.996  17.010 -2.4219  1.3091  0.2861
 7696TIP3    H244580   6.476   1.071  16.949  0.1595 -2.0601  0.8969
 7697TIP3   OH244581   4.585   1.053  15.296  0.1599 -0.1622  0.1509
 7697TIP3    H144582   4.513   1.034  15.236 -0.6524  0.0024  1.0620
 7697TIP3    H244583   4.607   1.144  15.279 -0.0359 -0.1308  0.0664
 7698TIP3   OH244584   6.030   4.078  15.158  0.4423  0.0772  0.3047
 7698TIP3    H144585   6.034   4.174  15.167  0.7051  0.2262 -1.2675
 7698TIP3    H244586   5.951   4.053  15.205  1.8559  0.7442  3.1624
 7699TIP3   OH244587   2.582   2.508  14.136  0.4080  0.5051 -0.2624
 7699TIP3    H144588   2.674   2.499  14.160  0.4738  1.4040 -0.1794
 7699TIP3    H244589   2.536   2.513  14.220 -0.0968 -3.3537 -0.1984
 7700TIP3   OH244590   3.460   4.710  17.178  0.8124 -0.0215  0.1152
 7700TIP3    H144591   3.395   4.660  17.228  1.4346 -0.5459  0.4200
 7700TIP3    H244592   3.443   4.686  17.087  0.8236 -0.4611  0.2251
 7701TIP3   OH244593   5.298   0.558   5.615  0.2583  0.1572 -0.5817
 7701TIP3    H144594   5.386   0.543   5.649  0.8427  1.0638 -1.6484
 7701TIP3    H244595   5.251   0.477   5.634  1.3581 -0.3793 -0.0958
 7702TIP3   OH244596   1.618   1.310   4.904 -0.0327 -0.1337  0.3483
 7702TIP3    H144597   1.541   1.339   4.856  0.3347  0.4949  0.1235
 7702TIP3    H244598   1.673   1.267   4.839  0.2965  0.3889  0.2749
 7703TIP3   OH244599   2.570   3.960  15.999 -0.0411 -0.5809 -0.2759
 7703TIP3    H144600   2.485   3.988  15.967 -0.3465 -1.5997 -0.3805
 7703TIP3    H244601   2.628   3.970  15.924 -0.4946 -1.7708 -0.7998
 7704TIP3   OH244602   1.627   2.155   5.012  0.9383 -0.3539  0.3209
 7704TIP3    H144603   1.708   2.115   4.980  1.2573  2.5654 -2.7843
 7704TIP3    H244604   1.559   2.124   4.953  0.9569  2.4398 -1.2458
 7705TIP3   OH244605   6.121   5.643   4.562  0.1997  1.0022 -0.1057
 7705TIP3    H144606   6.102   5.629   4.469  1.2194 -0.4323 -0.1165
 7705TIP3    H244607   6.045   5.690   4.596 -1.9104 -1.7915 -0.8181
 7706TIP3   OH244608   6.210   3.595  13.601  0.2250  0.0256 -0.0418
 7706TIP3    H144609   6.224   3.641  13.684  2.6832 -1.7890  0.6165
 7706TIP3    H244610   6.298   3.574  13.570 -0.7660 -3.0695 -0.9552
 7707TIP3   OH244611   6.770   3.112  11.354 -0.2138 -0.0755 -0.1081
 7707TIP3    H144612   6.756   3.106  11.259 -1.3658  1.6432 -0.0621
 7707TIP3    H244613   6.691   3.073  11.392 -0.2417  0.2338  0.1491
 7708TIP3   OH244614   4.327   4.660   1.958  0.4990 -0.4654  0.8985
 7708TIP3    H144615   4.401   4.714   1.928 -0.3855 -0.2945 -1.0619
 7708TIP3    H244616   4.309   4.602   1.883 -1.2078 -0.6536  1.4545
 7709TIP3   OH244617   4.822   2.465   0.324 -0.0918 -0.0396  0.8178
 7709TIP3    H144618   4.736   2.485   0.361 -0.1840 -1.2794  1.2841
 7709TIP3    H244619   4.873   2.546   0.336 -1.5050  1.0732 -0.4349
 7710TIP3   OH244620   2.499   5.908   1.619  0.4740 -0.0236  0.0128
 7710TIP3    H144621   2.491   5.863   1.535 -0.9210 -1.4125  0.8502
 7710TIP3    H244622   2.552   5.849   1.673  0.0441  0.1218  0.5975
 7711TIP3   OH244623   0.528   5.155  15.562  0.3280  1.0254  0.5452
 7711TIP3    H144624   0.481   5.178  15.642 -0.3619  1.1293  0.1161
 7711TIP3    H244625   0.545   5.239  15.520  1.4146  1.0333  0.9761
 7712TIP3   OH244626   2.268   4.109  13.204  0.4210 -0.7556  0.4440
 7712TIP3    H144627   2.272   4.024  13.160 -0.3924 -0.3990 -0.3610
 7712TIP3    H244628   2.230   4.091  13.289 -0.8216 -1.0598 -0.1597
 7713TIP3   OH244629   6.136   6.236   2.938  0.0339  0.2769 -0.2420
 7713TIP3    H144630   6.182   6.153   2.952  1.5433  1.2603  0.7379
 7713TIP3    H244631   6.124   6.240   2.843  0.7536 -0.6398 -0.3870
 7714TIP3   OH244632   0.000   5.859  12.357 -0.3257  0.0186 -0.5796
 7714TIP3    H144633   0.072   5.911  12.320 -0.8347  0.5901 -0.7849
 7714TIP3    H244634  -0.073   5.921  12.362 -0.5272 -0.3121  0.5288
 7715TIP3   OH244635   0.368   2.207  17.269  0.1481 -0.2808  0.1138
 7715TIP3    H144636   0.441   2.262  17.239  1.0122 -1.6319 -0.2825
 7715TIP3    H244637   0.326   2.178  17.188 -1.4907  1.3359  0.3504
 7716TIP3   OH244638   1.293   2.832  13.677 -0.2016 -0.0901 -0.2608
 7716TIP3    H144639   1.215   2.881  13.649 -0.9347 -1.4410 -0.6273
 7716TIP3    H244640   1.260   2.744  13.696  1.3332 -0.8410 -1.0082
 7717TIP3   OH244641   4.773   4.661   2.674 -0.1146  0.1970  0.0049
 7717TIP3    H144642   4.766   4.667   2.579  0.8214  1.0876 -0.0210
 7717TIP3    H244643   4.845   4.600   2.690 -1.8188 -1.7976  0.1742
 7718TIP3   OH244644   3.878   3.718   3.861 -0.1631 -0.3312  0.6278
 7718TIP3    H144645   3.847   3.708   3.951  0.2648 -1.0368  0.7005
 7718TIP3    H244646   3.936   3.643   3.847 -1.8588 -1.3844 -0.9300
 7719TIP3   OH244647   4.020   0.779  13.111 -0.0250  0.5792  0.1376
 7719TIP3    H144648   3.940   0.749  13.067 -0.1763  1.5910 -0.2999
 7719TIP3    H244649   4.018   0.874  13.100  1.6326  0.5464 -0.5415
 7720TIP3   OH244650   0.544   3.192  13.245 -0.2474  0.2141 -0.8508
 7720TIP3    H144651   0.518   3.260  13.182 -2.8679 -0.5666 -0.6679
 7720TIP3    H244652   0.488   3.207  13.321 -0.3902 -1.7443 -0.5426
 7721TIP3   OH244653   1.740   2.209   2.121  0.3406 -0.2545  0.2955
 7721TIP3    H144654   1.740   2.197   2.026 -0.9727 -0.2012  0.2820
 7721TIP3    H244655   1.821   2.167   2.151  1.2240  0.5623 -0.9464
 7722TIP3   OH244656   2.460   2.855   3.105  0.3753 -0.5497  0.2334
 7722TIP3    H144657   2.379   2.809   3.086 -0.1440  0.4129  0.0648
 7722TIP3    H244658   2.526   2.813   3.050 -0.3532 -0.2330 -0.8797
 7723TIP3   OH244659   5.289   5.252   5.202  0.0926  0.3799 -0.0794
 7723TIP3    H144660   5.242   5.247   5.286  0.8238 -1.7466  0.2341
 7723TIP3    H244661   5.220   5.244   5.136 -0.0832 -2.3878  0.3700
 7724TIP3   OH244662   4.837   5.391  16.138  0.6036 -0.0365  0.6234
 7724TIP3    H144663   4.870   5.473  16.175  0.3053  1.1524 -1.6490
 7724TIP3    H244664   4.895   5.374  16.064 -0.1976 -1.1350  0.2390
 7725TIP3   OH244665   5.916   1.606   2.320 -0.1095 -0.6410  0.3918
 7725TIP3    H144666   5.868   1.680   2.282  1.3167  0.2052  0.2106
 7725TIP3    H244667   5.848   1.540   2.338 -1.1410 -0.0067 -1.1126
 7726TIP3   OH244668   0.847   3.679   1.661 -0.0884  0.2175  0.4056
 7726TIP3    H144669   0.855   3.596   1.708  2.4311 -0.1979 -0.6690
 7726TIP3    H244670   0.881   3.661   1.574  1.4969  2.6354  0.4691
 7727TIP3   OH244671   1.396   1.546   5.764  0.7595  0.4336  0.1019
 7727TIP3    H144672   1.340   1.620   5.739  0.4586  0.9500  2.2022
 7727TIP3    H244673   1.485   1.582   5.763  0.8206  0.2840 -0.7586
 7728TIP3   OH244674   1.942   0.682   0.735 -0.4104  0.4553 -0.2021
 7728TIP3    H144675   1.883   0.615   0.701  0.3376 -0.8950  1.0827
 7728TIP3    H244676   2.030   0.654   0.708 -0.1784  1.4948 -0.5756
 7729TIP3   OH244677   1.005   0.389   0.344 -0.4370 -0.3336 -0.0366
 7729TIP3    H144678   1.033   0.389   0.436 -0.5699  2.2648  0.0359
 7729TIP3    H244679   0.952   0.468   0.335  1.2254  0.5507 -2.8355
 7730TIP3   OH244680   5.485   0.081   4.267  0.4702  0.3562  0.1493
 7730TIP3    H144681   5.507   0.159   4.216 -0.9005 -0.0469 -1.1143
 7730TIP3    H244682   5.502   0.008   4.207 -0.1001 -0.1947  0.6542
 7731TIP3   OH244683   3.679   3.274   3.076  0.1316  0.1929 -0.1718
 7731TIP3    H144684   3.734   3.304   3.004  0.8659 -0.3006  0.1854
 7731TIP3    H244685   3.637   3.194   3.043 -0.4139  0.5905 -0.4577
 7732TIP3   OH244686   2.819   5.624  16.134  0.3432  0.2868 -0.2011
 7732TIP3    H144687   2.815   5.596  16.042  0.0181 -0.8686  0.1529
 7732TIP3    H244688   2.787   5.714  16.134  0.9430  0.5054 -1.3115
 7733TIP3   OH244689   2.392   6.714   3.826 -0.1064 -0.0796 -0.0718
 7733TIP3    H144690   2.340   6.663   3.764  0.0947 -0.9722  0.4800
 7733TIP3    H244691   2.418   6.792   3.777  1.8798 -1.7790 -1.8201
 7734TIP3   OH244692   4.522   6.345  11.063  0.1273 -0.0450  0.1029
 7734TIP3    H144693   4.585   6.273  11.071 -1.7013 -1.6598  0.4018
 7734TIP3    H244694   4.475   6.327  10.982 -0.5505  0.6353  0.3391
 7735TIP3   OH244695   5.807   2.913  10.380  0.0602  0.8050  0.1059
 7735TIP3    H144696   5.719   2.946  10.359 -1.5044 -1.9214  2.0878
 7735TIP3    H244697   5.815   2.832  10.330  0.9939  0.4610  0.7946
 7736TIP3   OH244698   1.205   0.788   3.392  0.8387  0.4781 -0.6808
 7736TIP3    H144699   1.222   0.770   3.485  1.6644 -0.9038 -1.0785
 7736TIP3    H244700   1.166   0.875   3.391  1.4677  0.7954  0.9034
 7737TIP3   OH244701   5.482   4.646   5.870 -0.4048  0.6266 -0.3963
 7737TIP3    H144702   5.498   4.726   5.919  1.1350  0.6787 -0.9567
 7737TIP3    H244703   5.430   4.673   5.794 -2.9110  0.5256  1.2099
 7738TIP3   OH244704   3.919   5.473  14.101 -0.1027 -0.2078  0.8168
 7738TIP3    H144705   3.862   5.502  14.030  1.2631  0.0570 -0.1714
 7738TIP3    H244706   4.007   5.473  14.064  0.5803 -0.4386  2.3926
 7739TIP3   OH244707   0.167   1.038   5.609 -0.7231  0.7377  0.0323
 7739TIP3    H144708   0.260   1.017   5.599 -0.4177  1.5488  1.1531
 7739TIP3    H244709   0.143   1.081   5.527 -0.1903  0.2641 -0.3764
 7740TIP3   OH244710   5.350   6.454   0.996  0.3022 -0.7624 -0.0104
 7740TIP3    H144711   5.341   6.365   0.961 -0.4420 -0.4868 -0.5239
 7740TIP3    H244712   5.417   6.495   0.941  0.3552 -0.8773 -0.0316
 7741TIP3   OH244713   3.439   4.348  14.743  0.4487  0.5452  0.4184
 7741TIP3    H144714   3.383   4.391  14.808  1.1327 -2.3104  3.0364
 7741TIP3    H244715   3.378   4.301  14.686 -0.0098  0.1945  1.1876
 7742TIP3   OH244716   1.443   3.075  12.086 -0.2618  0.2118 -0.5938
 7742TIP3    H144717   1.532   3.048  12.108 -0.7138 -0.6974  0.1487
 7742TIP3    H244718   1.448   3.105  11.995  0.9539  0.9070 -0.3097
 7743TIP3   OH244719   4.599   0.250   2.213  0.1341 -0.1786 -0.5399
 7743TIP3    H144720   4.527   0.310   2.230  1.9292  1.9340 -0.2692
 7743TIP3    H244721   4.647   0.288   2.140  0.3306 -2.1874 -1.5117
 7744TIP3   OH244722   1.319   1.753  12.356  0.1119  0.6230  0.1498
 7744TIP3    H144723   1.369   1.680  12.393 -0.2215  0.0880 -0.4390
 7744TIP3    H244724   1.379   1.827  12.360  0.5882  0.2281  0.4112
 7745TIP3   OH244725   1.436   6.689  15.833  0.4988 -0.1130  0.8817
 7745TIP3    H144726   1.362   6.629  15.830  0.4310 -0.0268  0.8120
 7745TIP3    H244727   1.499   6.654  15.769 -1.5557  2.4960 -2.8066
 7746TIP3   OH244728   5.551   5.713   1.811 -0.8453 -0.3292 -0.1605
 7746TIP3    H144729   5.582   5.672   1.892 -1.6351 -1.0303 -0.1937
 7746TIP3    H244730   5.502   5.643   1.767 -0.5962  0.1097 -1.1450
 7747TIP3   OH244731   1.522   6.392   3.346 -0.3390 -0.0074 -0.1314
 7747TIP3    H144732   1.588   6.458   3.327 -0.5555  0.2952  0.1560
 7747TIP3    H244733   1.493   6.412   3.435 -2.0223  0.9028 -0.8701
 7748TIP3   OH244734   3.686   0.723  13.599  0.3933  0.2400  0.5215
 7748TIP3    H144735   3.712   0.632  13.615 -0.7008 -0.0592  0.6007
 7748TIP3    H244736   3.768   0.773  13.607  1.1198 -0.8171 -0.1945
 7749TIP3   OH244737   6.618   3.186  12.707  0.1374 -0.0116 -0.1051
 7749TIP3    H144738   6.531   3.148  12.691  0.1092 -1.1001  2.3684
 7749TIP3    H244739   6.602   3.280  12.715 -0.5486 -0.0099 -1.3916
 7750TIP3   OH244740   4.696   4.448  16.923  0.1460 -0.0029  0.2715
 7750TIP3    H144741   4.678   4.364  16.881  0.6001  0.3543 -0.6628
 7750TIP3    H244742   4.789   4.464  16.905  0.5666 -0.2416  2.1376
 7751TIP3   OH244743   0.370   2.176  16.174  0.1823  0.2374 -0.2040
 7751TIP3    H144744   0.371   2.085  16.146 -0.4360  0.1789 -0.0460
 7751TIP3    H244745   0.453   2.212  16.143  1.0028 -0.7157  0.8543
 7752TIP3   OH244746   0.786   0.154   1.278 -0.4346  0.6703  0.0650
 7752TIP3    H144747   0.859   0.111   1.323  0.0006  1.1473 -0.1692
 7752TIP3    H244748   0.793   0.124   1.188 -1.2416 -0.2009  0.2843
 7753TIP3   OH244749   6.659   3.656   0.402 -0.2477  0.2274  0.2094
 7753TIP3    H144750   6.675   3.670   0.495 -1.5639  0.8546  0.3485
 7753TIP3    H244751   6.607   3.575   0.399  2.1076 -1.3230 -0.1812
 7754TIP3   OH244752   6.572   4.791  15.035 -0.2340 -0.4535  0.0500
 7754TIP3    H144753   6.641   4.736  15.072 -0.6420 -1.2592 -0.3525
 7754TIP3    H244754   6.596   4.802  14.944 -0.2087 -0.0579  0.1056
 7755TIP3   OH244755   3.968   0.098   0.225 -0.3951 -0.3994 -0.0230
 7755TIP3    H144756   4.046   0.144   0.195  0.2829 -0.7640  1.1494
 7755TIP3    H244757   3.990   0.005   0.213  0.1524 -0.5757  2.2158
 7756TIP3   OH244758   3.782   0.694  11.230  0.1262  0.2258 -0.0196
 7756TIP3    H144759   3.771   0.651  11.315  0.4496 -0.5857 -0.3861
 7756TIP3    H244760   3.844   0.638  11.183 -0.3671  0.4527 -0.9428
 7757TIP3   OH244761   0.612   1.269  14.600 -0.3922 -0.0846  0.4059
 7757TIP3    H144762   0.658   1.239  14.678 -0.5446 -0.6414  0.2865
 7757TIP3    H244763   0.520   1.269  14.625 -0.2538  1.9770  0.9591
 7758TIP3   OH244764   5.387   2.234  15.875  0.0764  0.5484  0.1744
 7758TIP3    H144765   5.450   2.275  15.934 -0.6250  0.6928  0.8303
 7758TIP3    H244766   5.410   2.266  15.788  0.3988  1.2296  0.5124
 7759TIP3   OH244767   4.609   0.548   0.679  0.0978 -0.6898 -0.1254
 7759TIP3    H144768   4.660   0.608   0.623 -0.2710 -0.3140 -0.0635
 7759TIP3    H244769   4.652   0.553   0.764 -0.2432 -0.1064  0.0185
 7760TIP3   OH244770   6.080   4.367  11.655  0.9482 -0.1550  0.4078
 7760TIP3    H144771   6.102   4.418  11.577  1.5660  0.4188  0.9533
 7760TIP3    H244772   6.101   4.424  11.729 -0.8035 -0.2168  0.9865
 7761TIP3   OH244773   5.204   0.911   3.947  0.2279  0.2270 -0.2591
 7761TIP3    H144774   5.195   0.914   3.852  0.4485 -0.4863 -0.3079
 7761TIP3    H244775   5.166   0.993   3.977 -0.0026  0.3800 -0.9498
 7762TIP3   OH244776   6.507   3.782  16.130 -0.5557 -0.6728  0.5290
 7762TIP3    H144777   6.578   3.718  16.137 -1.2223 -1.4297  0.4999
 7762TIP3    H244778   6.442   3.752  16.194 -0.2751  0.7728  1.5322
 7763TIP3   OH244779   3.238   1.589  13.377 -0.3304 -1.0196 -0.4809
 7763TIP3    H144780   3.198   1.511  13.414  0.8395 -1.9703 -1.2089
 7763TIP3    H244781   3.176   1.619  13.311 -1.7434 -0.1445  1.1918
 7764TIP3   OH244782   4.448   6.282   5.542  0.0209  0.4056 -0.0727
 7764TIP3    H144783   4.365   6.289   5.496  0.8012 -0.6008 -1.6949
 7764TIP3    H244784   4.512   6.265   5.472  1.0392 -2.5523  1.5255
 7765TIP3   OH244785   3.849   6.479   0.227 -0.1825  0.0862 -0.1580
 7765TIP3    H144786   3.777   6.417   0.217 -0.5315  0.3101  0.8672
 7765TIP3    H244787   3.815   6.562   0.192 -0.5982  0.3086  0.7545
 7766TIP3   OH244788   3.947   0.724   0.993  0.2311 -0.6984 -0.3350
 7766TIP3    H144789   3.982   0.634   0.994  0.8813 -0.4734 -1.9140
 7766TIP3    H244790   3.906   0.733   0.907 -2.0940 -0.3129  0.7883
 7767TIP3   OH244791   4.616   6.700   5.901  0.7154 -0.3206 -0.5898
 7767TIP3    H144792   4.669   6.622   5.921  1.0201  0.1465  0.4888
 7767TIP3    H244793   4.587   6.687   5.811  0.0333 -2.1104 -0.1318
 7768TIP3   OH244794   1.056   6.239  12.592  0.0258 -0.5877 -0.0328
 7768TIP3    H144795   1.081   6.202  12.507  0.2358 -0.4121 -0.0470
 7768TIP3    H244796   0.962   6.255  12.585  0.7000  3.0408 -1.6008
 7769TIP3   OH244797   4.794   0.861  13.047  0.0322  0.7181  0.3885
 7769TIP3    H144798   4.833   0.947  13.030  0.1858  0.2779 -1.7130
 7769TIP3    H244799   4.703   0.880  13.070  0.2555  1.4860  0.6551
 7770TIP3   OH244800   0.154   0.096  11.192  0.2708  0.0267 -0.4123
 7770TIP3    H144801   0.154   0.015  11.141 -0.7756 -0.0385 -0.3306
 7770TIP3    H244802   0.145   0.165  11.128 -0.0875  0.0009 -0.3914
 7771TIP3   OH244803   1.486   5.094   0.317  0.0787  0.3893  0.0137
 7771TIP3    H144804   1.537   5.089   0.398 -0.7964  1.3877  0.6592
 7771TIP3    H244805   1.529   5.162   0.265 -0.2742  0.8542  0.3257
 7772TIP3   OH244806   2.819   4.058   2.138  0.3789 -0.1258  0.1795
 7772TIP3    H144807   2.848   3.997   2.206 -0.4048  0.8614  1.4307
 7772TIP3    H244808   2.726   4.070   2.156 -0.0327 -0.5201 -1.6110
 7773TIP3   OH244809   6.781   1.338  15.934  0.2377  0.3748 -0.0187
 7773TIP3    H144810   6.770   1.432  15.919  0.5971  0.2544 -1.0574
 7773TIP3    H244811   6.764   1.298  15.849  2.4804 -0.3097 -0.1753
 7774TIP3   OH244812   2.478   4.738  12.365 -0.8937 -0.1502  0.0326
 7774TIP3    H144813   2.561   4.732  12.411 -0.7050 -0.1169 -0.3004
 7774TIP3    H244814   2.423   4.792  12.421 -0.3079  0.7969 -0.3041
 7775TIP3   OH244815   1.414   0.799  13.307 -0.0644  0.3349 -0.4541
 7775TIP3    H144816   1.466   0.733  13.262  0.5702  0.8331 -0.4548
 7775TIP3    H244817   1.435   0.881  13.263 -1.5621  0.4039 -1.0655
 7776TIP3   OH244818   1.567   5.626   1.868  0.1621  0.5948  0.1931
 7776TIP3    H144819   1.471   5.626   1.875  0.0110  2.8451 -1.5172
 7776TIP3    H244820   1.585   5.605   1.777  1.2205  2.3490 -0.0308
 7777TIP3   OH244821   6.766   0.825   6.266 -0.1807  0.4477  0.0247
 7777TIP3    H144822   6.748   0.753   6.327  2.3501 -0.2175  0.0082
 7777TIP3    H244823   6.726   0.901   6.308  0.2211 -0.2872  1.7921
 7778TIP3   OH244824   4.220   5.935  11.300  0.2248 -0.4405  0.8747
 7778TIP3    H144825   4.282   5.869  11.268  2.1981  3.3863 -3.7413
 7778TIP3    H244826   4.269   5.983  11.367  1.3326  0.8277 -0.8209
 7779TIP3   OH244827   2.160   4.574   5.172  0.3048 -0.1846  0.1196
 7779TIP3    H144828   2.210   4.641   5.219  0.3274 -0.4956  0.5394
 7779TIP3    H244829   2.226   4.515   5.136  0.3872  1.2086 -2.0652
 7780TIP3   OH244830   4.420   4.690  11.297  0.6324  0.2693  0.3460
 7780TIP3    H144831   4.493   4.633  11.321  2.3359  1.4458 -1.9041
 7780TIP3    H244832   4.370   4.640  11.233 -0.5825 -0.5300  1.8759
 7781TIP3   OH244833   2.120   4.169  13.622  0.2828 -0.1536 -0.1078
 7781TIP3    H144834   2.143   4.129  13.706  2.3796  0.7362 -0.2250
 7781TIP3    H244835   2.102   4.261  13.643 -0.0222 -0.1210 -0.5024
 7782TIP3   OH244836   4.421   0.579  14.976 -0.2814 -0.5279  0.1536
 7782TIP3    H144837   4.462   0.509  14.926  1.3412  1.3517 -1.2364
 7782TIP3    H244838   4.494   0.624  15.018 -1.2647  0.4710  0.8105
 7783TIP3   OH244839   4.722   3.128   1.473 -0.1034  0.0544 -0.1422
 7783TIP3    H144840   4.704   3.066   1.402 -0.5878 -0.6761  0.5960
 7783TIP3    H244841   4.817   3.122   1.486 -0.0517 -0.0209 -0.5372
 7784TIP3   OH244842   6.766   3.653  16.133  0.4244 -0.3421  0.6390
 7784TIP3    H144843   6.795   3.564  16.112 -0.2755 -0.6571  1.0067
 7784TIP3    H244844   6.840   3.693  16.179  0.4651 -0.9758  1.1261
 7785TIP3   OH244845   5.944   2.283   3.858 -0.0177  0.5130 -0.3198
 7785TIP3    H144846   6.019   2.343   3.857 -0.8312  1.5409 -0.7052
 7785TIP3    H244847   5.907   2.290   3.771 -0.9423  0.5051  0.0710
 7786TIP3   OH244848   6.240   6.721   3.150 -0.5918  0.1580 -0.7124
 7786TIP3    H144849   6.326   6.762   3.141 -0.5464  0.3244  0.3973
 7786TIP3    H244850   6.257   6.627   3.142 -0.0874  0.0926  0.9605
 7787TIP3   OH244851   0.373   5.103   0.199  0.3894  0.2548  0.1319
 7787TIP3    H144852   0.307   5.169   0.181 -0.1106 -0.1169  0.5811
 7787TIP3    H244853   0.407   5.126   0.286 -1.4839 -1.4594  1.3485
 7788TIP3   OH244854   3.223   6.646  13.788  0.7094 -0.3897  0.2659
 7788TIP3    H144855   3.200   6.569  13.735 -0.8408 -0.5741  1.1589
 7788TIP3    H244856   3.164   6.715  13.758  0.8521 -0.0696  0.7088
 7789TIP3   OH244857   3.154   4.593  16.840 -0.4326 -0.7662 -0.4074
 7789TIP3    H144858   3.104   4.564  16.916  0.2296 -0.8105  0.0144
 7789TIP3    H244859   3.145   4.689  16.841 -1.2662 -0.8368 -0.8662
 7790TIP3   OH244860   3.469   2.858  13.828 -0.3565  0.4615 -0.8032
 7790TIP3    H144861   3.377   2.872  13.806 -1.0732 -2.1093  0.3672
 7790TIP3    H244862   3.500   2.796  13.762 -0.0728 -0.3441  0.0774
 7791TIP3   OH244863   0.837   3.525   0.396  0.3996 -0.4771 -0.2567
 7791TIP3    H144864   0.791   3.575   0.329  0.9033  1.2598  0.6490
 7791TIP3    H244865   0.883   3.457   0.348  1.1415  1.0240 -1.7228
 7792TIP3   OH244866   1.638   0.018  12.159 -0.0037  0.0270 -0.6783
 7792TIP3    H144867   1.681   0.011  12.245  0.3386 -0.8850 -0.9186
 7792TIP3    H244868   1.656  -0.066  12.116 -2.5114 -0.6446 -0.5427
 7793TIP3   OH244869   0.135   2.961  15.644 -0.2054  0.0452 -0.7880
 7793TIP3    H144870   0.060   2.942  15.587 -2.3931  2.4713  1.1560
 7793TIP3    H244871   0.103   2.942  15.732  1.3256  1.4743  0.1049
 7794TIP3   OH244872   5.884   1.159  16.300  0.1015  0.4325 -0.5145
 7794TIP3    H144873   5.831   1.184  16.376  0.6171 -2.3542  0.8334
 7794TIP3    H244874   5.821   1.148  16.229 -1.1259 -2.1217  0.8896
 7795TIP3   OH244875   5.234   2.089  17.083 -0.2341  0.5520  0.2639
 7795TIP3    H144876   5.299   2.155  17.057  0.0723  0.3560  0.5234
 7795TIP3    H244877   5.163   2.098  17.019  0.8498 -0.4385 -1.1259
 7796TIP3   OH244878   2.298   2.817  16.074  0.2523  0.1353 -0.4425
 7796TIP3    H144879   2.317   2.735  16.028 -0.2376 -0.5797  0.5988
 7796TIP3    H244880   2.243   2.867  16.014 -0.5332 -0.8624 -0.5621
 7797TIP3   OH244881   0.569   0.164   4.274 -0.2552 -0.2733  0.1153
 7797TIP3    H144882   0.484   0.127   4.299 -0.1389 -1.0851 -0.6837
 7797TIP3    H244883   0.628   0.089   4.270  0.1251  0.0656 -0.9300
 7798TIP3   OH244884   5.186   4.110  16.563 -0.6097 -0.2347  0.5316
 7798TIP3    H144885   5.235   4.151  16.491 -2.9155  1.3648 -0.1729
 7798TIP3    H244886   5.174   4.019  16.534 -2.3591  0.6186 -1.6322
 7799TIP3   OH244887   1.582   1.696  15.988  0.4556  0.1409  0.7429
 7799TIP3    H144888   1.512   1.753  16.020  0.4465  0.2715  0.4926
 7799TIP3    H244889   1.571   1.615  16.037 -0.5151 -0.2035 -0.0600
 7800TIP3   OH244890   3.282   4.655   0.724  0.1805 -0.0823 -0.3232
 7800TIP3    H144891   3.290   4.749   0.706  3.0638 -0.1149  0.4583
 7800TIP3    H244892   3.294   4.613   0.639 -1.1889  0.2531 -0.6872
 7801TIP3   OH244893   6.079   2.059  14.605  0.0955 -0.0065 -0.2696
 7801TIP3    H144894   6.161   2.021  14.574  0.0340 -1.0347  0.7885
 7801TIP3    H244895   6.067   2.022  14.693 -1.3765  0.3266 -0.3155
 7802TIP3   OH244896   6.431   3.526  14.302  0.2189 -0.3030 -0.5168
 7802TIP3    H144897   6.482   3.446  14.293  1.5546  0.2506  1.6942
 7802TIP3    H244898   6.370   3.509  14.374 -0.6413  0.1084 -1.1283
 7803TIP3   OH244899   0.664   5.598  14.626 -0.0911 -0.7740  0.1077
 7803TIP3    H144900   0.747   5.645  14.633  0.6569 -1.6635 -2.2250
 7803TIP3    H244901   0.649   5.563  14.713  2.9186 -2.0630  0.1812
 7804TIP3   OH244902   6.153   3.265  15.664 -0.2588  0.0646  0.0760
 7804TIP3    H144903   6.106   3.310  15.734  1.8781 -0.7063  2.0759
 7804TIP3    H244904   6.134   3.172  15.678 -2.1411  0.0655 -2.1544
 7805TIP3   OH244905   1.575   3.923  12.125  0.5490 -0.4882  0.5213
 7805TIP3    H144906   1.611   4.008  12.149  1.0610 -0.2133 -1.1439
 7805TIP3    H244907   1.589   3.868  12.202 -0.7733  1.2095  2.0154
 7806TIP3   OH244908   0.972   3.255   6.312 -0.0623 -0.5384  0.0669
 7806TIP3    H144909   1.031   3.322   6.345  0.6759 -1.2454  0.2034
 7806TIP3    H244910   0.982   3.182   6.373 -0.1119 -1.1410 -0.6354
 7807TIP3   OH244911   0.351   6.552   5.744 -0.0582  0.3550 -0.4421
 7807TIP3    H144912   0.264   6.584   5.766  0.6364  1.0048  1.4918
 7807TIP3    H244913   0.411   6.609   5.792  1.3355 -1.8997  0.5945
 7808TIP3   OH244914   2.941   6.566   5.206  0.7002  0.2059 -0.2572
 7808TIP3    H144915   2.996   6.489   5.194 -0.2400 -0.5476  0.1787
 7808TIP3    H244916   2.929   6.572   5.301 -1.3189 -0.6288 -0.4273
 7809TIP3   OH244917   0.425   6.124   2.499  0.5044  0.1373 -0.1324
 7809TIP3    H144918   0.507   6.173   2.491  1.0220 -1.0503 -2.4295
 7809TIP3    H244919   0.357   6.186   2.472  0.5227  1.3606  2.4853
 7810TIP3   OH244920   3.795   6.116  16.111  0.3939  0.4780  0.1456
 7810TIP3    H144921   3.880   6.123  16.069  1.2816 -0.9624  1.6328
 7810TIP3    H244922   3.812   6.139  16.203 -1.5249  3.7127 -0.2392
 7811TIP3   OH244923   2.181   6.298   4.178  0.5907  0.0784  0.5298
 7811TIP3    H144924   2.157   6.298   4.085  0.0038  1.2510  0.6666
 7811TIP3    H244925   2.153   6.213   4.210  1.9287 -0.8280 -0.6451
 7812TIP3   OH244926   1.891   3.873   1.043  0.3306 -0.0388  0.3117
 7812TIP3    H144927   1.899   3.968   1.039 -0.2614 -0.0389 -1.2076
 7812TIP3    H244928   1.981   3.840   1.046  0.5928  0.4983 -1.2950
 7813TIP3   OH244929   0.104   2.670   6.656 -0.8310 -0.0342  0.4813
 7813TIP3    H144930   0.087   2.586   6.613  1.7582 -0.7671  0.8006
 7813TIP3    H244931   0.136   2.727   6.586  1.0911 -0.5033  0.9511
 7814TIP3   OH244932   0.515   1.414   3.413  1.1997 -0.1104 -0.0205
 7814TIP3    H144933   0.559   1.478   3.469  1.3878  1.2795 -1.7168
 7814TIP3    H244934   0.521   1.451   3.325 -2.2752 -0.4632 -0.4918
 7815TIP3   OH244935   4.068   5.587   5.232  0.2633 -0.6439 -0.2061
 7815TIP3    H144936   4.046   5.539   5.152 -1.0768 -1.9655  0.9164
 7815TIP3    H244937   3.990   5.578   5.287  0.5841  1.5263  0.6599
 7816TIP3   OH244938   4.303   1.465  15.994  0.3963 -0.3835  0.1408
 7816TIP3    H144939   4.270   1.385  16.036 -1.4751  0.9297  1.2452
 7816TIP3    H244940   4.234   1.490  15.933  1.1381  0.1870 -0.4681
 7817TIP3   OH244941   4.598   3.317  11.898  0.2287  0.3175  0.5904
 7817TIP3    H144942   4.565   3.250  11.958 -1.1511 -1.2376 -1.8044
 7817TIP3    H244943   4.543   3.394  11.914 -0.7433 -0.3913  0.6637
 7818TIP3   OH244944   2.614   3.016  12.858  0.3827 -0.4917  0.0871
 7818TIP3    H144945   2.558   2.974  12.923  1.6790 -3.5607 -0.7251
 7818TIP3    H244946   2.694   2.965  12.859  1.0050  0.3723 -2.8562
 7819TIP3   OH244947   1.904   0.160   3.339  0.0968  0.1253 -0.0860
 7819TIP3    H144948   1.961   0.237   3.339 -1.7901  1.5826 -2.0934
 7819TIP3    H244949   1.818   0.194   3.364 -0.5860 -1.4619 -0.2410
 7820TIP3   OH244950   6.206   3.835  14.270  0.0243  0.1427 -0.1092
 7820TIP3    H144951   6.136   3.776  14.241  2.2611 -3.1600  0.9429
 7820TIP3    H244952   6.258   3.850  14.192 -1.6741  2.4303 -0.8446
 7821TIP3   OH244953   1.320   5.967  13.978 -0.3390 -0.0372  0.4912
 7821TIP3    H144954   1.397   5.980  13.923 -1.3181  1.2582 -0.5854
 7821TIP3    H244955   1.344   6.006  14.062  0.0558  0.6559  0.0590
 7822TIP3   OH244956   2.340   4.638   4.499 -0.5436  0.1123  0.2033
 7822TIP3    H144957   2.262   4.600   4.540 -0.1864 -1.6696 -0.7251
 7822TIP3    H244958   2.355   4.719   4.548 -1.3542 -0.9027  2.2062
 7823TIP3   OH244959   3.140   5.116   2.485 -0.3455 -0.2588 -0.1192
 7823TIP3    H144960   3.049   5.130   2.511  0.1122  0.5457  1.0901
 7823TIP3    H244961   3.135   5.048   2.418 -2.1091  1.6838 -2.0985
 7824TIP3   OH244962   0.946   2.362   4.518  0.5554 -0.6745  0.2801
 7824TIP3    H144963   1.018   2.357   4.456  1.8374  1.8991  1.4418
 7824TIP3    H244964   0.894   2.436   4.487 -0.3579 -1.1436  0.6921
 7825TIP3   OH244965   1.551   6.407   2.147 -0.1238 -0.3854 -0.6683
 7825TIP3    H144966   1.546   6.503   2.142 -0.4734 -0.4564 -1.8202
 7825TIP3    H244967   1.604   6.382   2.071  1.1637 -1.0184  0.4230
 7826TIP3   OH244968   2.921   2.907   1.926 -0.0687  0.0510 -0.2981
 7826TIP3    H144969   2.958   2.958   1.998  1.0944  0.7500 -1.3712
 7826TIP3    H244970   2.837   2.876   1.960 -0.2207  1.6157  0.8315
 7827TIP3   OH244971   2.735   1.977  14.396  0.8312  0.1971 -0.1357
 7827TIP3    H144972   2.809   2.039  14.391  0.9344  0.3332  2.6472
 7827TIP3    H244973   2.742   1.938  14.483 -1.3725 -1.0920 -0.5153
 7828TIP3   OH244974   0.503   2.890   0.223  0.2828  0.0368 -0.4904
 7828TIP3    H144975   0.599   2.884   0.221  0.6254  3.4897  0.7041
 7828TIP3    H244976   0.478   2.912   0.133  1.1025  3.3696  0.0074
 7829TIP3   OH244977   6.085   5.887  16.541  0.2332  0.0209 -0.0566
 7829TIP3    H144978   6.160   5.943  16.520  0.7883 -0.4917  0.5736
 7829TIP3    H244979   6.114   5.834  16.614 -0.2241 -1.2416 -0.7828
 7830TIP3   OH244980   4.974   4.408  13.822  0.6729 -0.5918 -0.0294
 7830TIP3    H144981   4.955   4.491  13.780  0.5429 -0.5846  0.0450
 7830TIP3    H244982   4.965   4.426  13.916  0.7552 -0.6611 -0.0080
 7831TIP3   OH244983   6.417   0.260   6.003  0.3941  0.2732 -0.1215
 7831TIP3    H144984   6.451   0.273   6.092 -0.3186  3.5710 -0.2697
 7831TIP3    H244985   6.482   0.302   5.946  0.9782 -2.0541 -1.2037
 7832TIP3   OH244986   1.539   4.956   5.321  0.0494  0.1151 -0.0059
 7832TIP3    H144987   1.629   4.978   5.296  0.8422 -0.8543  1.8707
 7832TIP3    H244988   1.537   4.861   5.325 -1.2433  0.1031 -0.5984
 7833TIP3   OH244989   1.753   1.088   5.733  1.0783  0.0272  0.0256
 7833TIP3    H144990   1.835   1.138   5.730  0.4335  1.0978  0.1708
 7833TIP3    H244991   1.706   1.124   5.808  0.9855 -1.3982  0.6608
 7834TIP3   OH244992   2.280   2.372   4.986  0.0568  0.1890 -0.4776
 7834TIP3    H144993   2.347   2.316   5.025 -0.3113 -0.7351 -1.1374
 7834TIP3    H244994   2.275   2.448   5.043  1.2781  0.0062 -0.1262
 7835TIP3   OH244995   1.660   1.972  15.456  0.0806 -0.5626 -0.4411
 7835TIP3    H144996   1.630   1.934  15.539  0.2973  0.6764  0.2085
 7835TIP3    H244997   1.751   1.997  15.472 -0.3735  1.1923 -0.5202
 7836TIP3   OH244998   0.217   0.417  17.148 -0.2066  0.2171 -0.1940
 7836TIP3    H144999   0.303   0.376  17.142 -0.7570 -0.5922 -2.8155
 7836TIP3    H245000   0.188   0.398  17.237  2.0284 -0.0517  0.5211
 7837TIP3   OH245001   1.893   4.102   1.394  0.4887  0.5663 -0.1925
 7837TIP3    H145002   1.853   4.188   1.394 -0.8380 -0.0321 -2.0550
 7837TIP3    H245003   1.820   4.041   1.382  1.3593 -0.8580  1.4480
 7838TIP3   OH245004   1.509   6.309  17.091 -0.6802 -0.2665  0.0984
 7838TIP3    H145005   1.451   6.364  17.143 -0.4651 -0.0021  0.0616
 7838TIP3    H245006   1.467   6.223  17.091 -1.7210  0.2167 -0.9763
 7839TIP3   OH245007   5.410   4.542   4.809  0.2139  0.0983 -0.5313
 7839TIP3    H145008   5.437   4.452   4.793 -0.6592  0.0624 -1.8695
 7839TIP3    H245009   5.373   4.540   4.898 -0.6445 -1.0633 -0.9052
 7840TIP3   OH245010   2.797   2.038   3.951  0.4743 -0.0767 -0.3653
 7840TIP3    H145011   2.807   1.950   3.987  0.1405 -0.1203 -0.3790
 7840TIP3    H245012   2.708   2.064   3.975  0.0219 -0.3599 -1.7086
 7841TIP3   OH245013   1.577   6.427   5.732  0.2129  0.8069  0.9329
 7841TIP3    H145014   1.506   6.446   5.793 -0.3264  0.5617  0.3983
 7841TIP3    H245015   1.549   6.346   5.688  1.0727  0.4181  1.0882
 7842TIP3   OH245016   6.207   0.372   6.455  0.3777  0.2405  0.2921
 7842TIP3    H145017   6.139   0.371   6.522  0.1728 -0.1675  0.0810
 7842TIP3    H245018   6.272   0.309   6.486 -1.3334 -2.5568 -1.5316
 7843TIP3   OH245019   4.980   6.778  16.800 -0.5148 -0.1301  0.3979
 7843TIP3    H145020   5.015   6.757  16.713  1.8052 -1.6255  1.6363
 7843TIP3    H245021   5.051   6.754  16.861 -1.5721  2.1462  2.6165
 7844TIP3   OH245022   5.268   3.863   0.703 -0.5538  0.3134  0.6491
 7844TIP3    H145023   5.257   3.787   0.760 -0.7806  0.3263  0.6197
 7844TIP3    H245024   5.196   3.921   0.726  0.3729  1.0984  1.5964
 7845TIP3   OH245025   2.636   4.858   4.312  0.5901  0.3116 -0.1708
 7845TIP3    H145026   2.583   4.936   4.330 -0.2595 -0.6888  1.7476
 7845TIP3    H245027   2.575   4.796   4.272  1.2162  0.5043 -1.4831
 7846TIP3   OH245028   1.337   2.929   0.196 -0.0013 -0.4496  0.0825
 7846TIP3    H145029   1.282   2.877   0.138  0.6236  1.8321 -2.6093
 7846TIP3    H245030   1.277   2.965   0.261 -1.1241 -0.8224 -0.7460
 7847TIP3   OH245031   6.571   1.620   1.467  0.0834 -0.0562 -0.6488
 7847TIP3    H145032   6.606   1.533   1.449 -0.2154 -0.7614  2.0462
 7847TIP3    H245033   6.476   1.607   1.472  0.0231  0.4794 -0.4028
 7848TIP3   OH245034   0.764   2.129   5.595  0.1434 -0.0944 -0.5787
 7848TIP3    H145035   0.675   2.135   5.631  0.9377 -0.2325  1.5061
 7848TIP3    H245036   0.768   2.041   5.557 -0.1842 -0.5938  0.5222
 7849TIP3   OH245037   2.352   0.192   1.725  0.3165  0.3926 -0.1522
 7849TIP3    H145038   2.406   0.116   1.704 -0.7025 -0.9328  1.8120
 7849TIP3    H245039   2.409   0.249   1.777  0.3765 -0.1816  0.4225
 7850TIP3   OH245040   0.098   2.132  16.299  0.6562  0.0884  0.1824
 7850TIP3    H145041   0.174   2.179  16.266  0.7315 -0.5032 -0.5102
 7850TIP3    H245042   0.051   2.196  16.353  0.1947  1.2804 -1.6015
 7851TIP3   OH245043   6.642   6.236   4.562 -0.4783 -0.5707 -0.9088
 7851TIP3    H145044   6.734   6.216   4.580 -0.8820 -0.5884  1.2903
 7851TIP3    H245045   6.627   6.319   4.606 -1.6657 -0.8355 -0.8009
 7852TIP3   OH245046   1.408   4.157  15.321 -0.9209  0.4418  0.1301
 7852TIP3    H145047   1.394   4.063  15.316 -0.3652  0.4136 -1.1192
 7852TIP3    H245048   1.503   4.167  15.322 -0.9692  1.0131 -0.5260
 7853TIP3   OH245049   0.432   0.491   5.444 -0.5997  0.6563  0.3143
 7853TIP3    H145050   0.380   0.555   5.395 -0.6132  0.4916  0.1156
 7853TIP3    H245051   0.399   0.406   5.416 -1.2367  0.5727  1.2716
 7854TIP3   OH245052   2.712   3.199  12.020  0.6298  0.2616 -0.5940
 7854TIP3    H145053   2.636   3.257  12.014 -0.0228 -0.6209 -0.8998
 7854TIP3    H245054   2.735   3.180  11.929  0.1259 -0.8823 -0.4917
 7855TIP3   OH245055   6.617   2.699  13.519  0.2006 -1.0580 -0.0251
 7855TIP3    H145056   6.596   2.674  13.429  1.1487  2.4943 -1.3448
 7855TIP3    H245057   6.540   2.747  13.549 -0.1983 -2.4263  1.1635
 7856TIP3   OH245058   3.794   2.421  11.416 -0.2125  0.1506  0.6238
 7856TIP3    H145059   3.879   2.461  11.394 -0.5778  1.2526  1.1719
 7856TIP3    H245060   3.791   2.423  11.512  0.3397 -2.4504  0.7132
 7857TIP3   OH245061   5.428   4.898   4.535 -0.0367  0.1165  0.0912
 7857TIP3    H145062   5.524   4.899   4.543 -0.0551 -0.7747  0.4810
 7857TIP3    H245063   5.410   4.839   4.463 -0.2660  0.9707 -0.5570
 7858TIP3   OH245064   0.928   1.073  11.826 -0.5635  0.2716  0.4873
 7858TIP3    H145065   0.886   1.147  11.780 -0.3535  0.3985  0.4991
 7858TIP3    H245066   0.991   1.114  11.885 -0.0019  0.0519  0.0408
 7859TIP3   OH245067   0.628   3.551   2.122  0.1490 -0.1496  0.1030
 7859TIP3    H145068   0.635   3.455   2.122 -1.1816 -0.2488 -0.0176
 7859TIP3    H245069   0.568   3.570   2.050 -1.8282  0.6136  1.9240
 7860TIP3   OH245070   5.862   2.824   1.234  0.3906 -0.1913  0.0783
 7860TIP3    H145071   5.823   2.863   1.312  0.8508  0.1824  0.1225
 7860TIP3    H245072   5.787   2.797   1.181 -0.0145  4.0855 -1.6806
 7861TIP3   OH245073   5.019   5.865   1.246 -0.7878 -0.0151  0.2284
 7861TIP3    H145074   5.052   5.933   1.304  0.8894  1.2464 -2.1268
 7861TIP3    H245075   5.084   5.859   1.176 -1.2577 -3.5619 -0.0023
 7862TIP3   OH245076   3.608   0.285   3.320  0.4818  0.5169 -0.0312
 7862TIP3    H145077   3.538   0.327   3.270  1.7860  1.7525 -0.8638
 7862TIP3    H245078   3.573   0.278   3.409 -0.7409  0.9780 -0.4589
 7863TIP3   OH245079   6.716   3.455  14.398 -0.3408  0.2025  0.1601
 7863TIP3    H145080   6.803   3.489  14.417 -0.3777  1.4227 -1.7658
 7863TIP3    H245081   6.727   3.402  14.319 -1.4882  0.9882 -0.5373
 7864TIP3   OH245082   1.984   3.309  14.837  0.0567 -0.7046  0.1733
 7864TIP3    H145083   2.056   3.247  14.841 -0.0528 -0.9628 -1.5517
 7864TIP3    H245084   2.025   3.392  14.814  0.0594 -0.3725  1.3357
 7865TIP3   OH245085   0.722   6.045   4.494 -0.1646 -0.7624  0.4767
 7865TIP3    H145086   0.772   5.995   4.429  1.9651  3.3737 -1.2809
 7865TIP3    H245087   0.789   6.080   4.553 -1.6460 -0.2486  1.8846
 7866TIP3   OH245088   0.751   6.296   6.319  0.5258  0.1219 -0.0073
 7866TIP3    H145089   0.778   6.371   6.267  0.9529 -0.5011 -0.6752
 7866TIP3    H245090   0.832   6.260   6.355  0.3268 -0.0672  0.2618
 7867TIP3   OH245091   0.877   3.912   5.418 -0.1914 -0.2205 -0.0548
 7867TIP3    H145092   0.927   3.990   5.442 -2.9289  1.2601  1.1790
 7867TIP3    H245093   0.816   3.942   5.350 -0.0407 -1.7358 -0.8900
 7868TIP3   OH245094   1.476   1.791   5.397 -0.1118  0.4266 -0.1420
 7868TIP3    H145095   1.534   1.796   5.473 -0.2682 -0.4157  0.0415
 7868TIP3    H245096   1.527   1.828   5.325  0.0420  1.2182  0.3701
 7869TIP3   OH245097   0.373   0.303   3.682 -0.2757 -0.0085 -0.0602
 7869TIP3    H145098   0.453   0.309   3.630  1.0009 -0.7406  1.7856
 7869TIP3    H245099   0.364   0.389   3.723 -2.1992  1.1389 -2.7276
 7870TIP3   OH245100   2.375   2.799  15.444  0.4903  0.3518  0.2479
 7870TIP3    H145101   2.318   2.762  15.377  0.1124  2.1271 -0.4380
 7870TIP3    H245102   2.444   2.734  15.455 -1.0822 -1.3518  0.3319
 7871TIP3   OH245103   5.464   6.475   2.076 -0.1311  0.3963  0.2867
 7871TIP3    H145104   5.392   6.414   2.060  0.7612 -0.5006 -0.2935
 7871TIP3    H245105   5.484   6.464   2.169 -2.1794  2.2227  0.9926
 7872TIP3   OH245106   4.389   0.132   5.382 -0.5506  0.7108  0.3468
 7872TIP3    H145107   4.461   0.122   5.444 -0.6981  0.9048  0.5510
 7872TIP3    H245108   4.402   0.219   5.344 -0.7262  0.7817  0.4477
 7873TIP3   OH245109   4.208   2.932   3.539  0.2245 -0.1500 -0.0890
 7873TIP3    H145110   4.151   2.860   3.565  1.6559 -2.1644 -2.2893
 7873TIP3    H245111   4.157   2.982   3.475 -0.4413  0.2826  0.7722
 7874TIP3   OH245112   5.478   2.445   0.329  0.1203  0.0886  0.4532
 7874TIP3    H145113   5.475   2.521   0.271  2.1621 -1.4799 -1.7944
 7874TIP3    H245114   5.571   2.427   0.340 -0.3118 -1.2315  2.1372
 7875TIP3   OH245115   0.281   3.094  14.073 -0.0881  0.2520 -0.6399
 7875TIP3    H145116   0.225   3.134  14.007  1.1292 -0.1788 -1.9658
 7875TIP3    H245117   0.274   3.152  14.148 -2.6657 -0.0547 -0.6057
 7876TIP3   OH245118   0.456   2.012   1.878 -0.3167  0.0253  0.2165
 7876TIP3    H145119   0.439   1.992   1.786 -0.2273 -0.0906  0.2245
 7876TIP3    H245120   0.449   2.107   1.884  0.2403  0.0864 -0.0305
 7877TIP3   OH245121   4.404   1.306  14.892  0.3001  0.2380  0.1345
 7877TIP3    H145122   4.464   1.265  14.828  1.2841 -1.7079  2.2332
 7877TIP3    H245123   4.445   1.391  14.911  2.4855 -1.0629  1.5411
 7878TIP3   OH245124   4.590   5.975  14.785 -0.1990  0.2048  0.2057
 7878TIP3    H145125   4.651   5.970  14.712  1.9562 -3.7086  2.1065
 7878TIP3    H245126   4.632   6.034  14.848 -0.2275  0.5307 -0.0780
 7879TIP3   OH245127   3.486   0.922  16.896 -0.1268 -0.0219  0.2071
 7879TIP3    H145128   3.400   0.963  16.903  0.4446  0.8823  2.3838
 7879TIP3    H245129   3.503   0.886  16.984  1.7174 -0.1442 -0.1699
 7880TIP3   OH245130   6.023   4.697   2.549 -0.2755  0.1506  0.9048
 7880TIP3    H145131   6.095   4.642   2.579 -1.0710 -1.8876 -0.7393
 7880TIP3    H245132   6.058   4.743   2.472 -0.1281  0.6765  1.2837
 7881TIP3   OH245133   5.621   4.896  13.000  0.1359 -0.3930 -0.1899
 7881TIP3    H145134   5.710   4.931  12.990 -0.1550  0.6721  0.7634
 7881TIP3    H245135   5.586   4.942  13.077 -0.2221 -2.8720  1.1950
 7882TIP3   OH245136   6.628   6.520  14.348  0.5135 -0.0132  0.2006
 7882TIP3    H145137   6.703   6.491  14.296  0.0438 -0.1113 -0.4262
 7882TIP3    H245138   6.650   6.610  14.374  1.2976 -0.3976  0.8731
 7883TIP3   OH245139   3.899   6.052  14.191 -0.1267 -0.4948  0.5574
 7883TIP3    H145140   3.931   6.142  14.190 -1.2063 -0.0981  0.6991
 7883TIP3    H245141   3.827   6.052  14.128  0.2921 -1.4246  0.0688
 7884TIP3   OH245142   5.407   0.453  13.312  0.2026 -0.1248  0.0582
 7884TIP3    H145143   5.333   0.394  13.297 -0.6999  0.4333  2.1124
 7884TIP3    H245144   5.480   0.414  13.263 -1.2238 -1.1457 -1.2815
 7885TIP3   OH245145   5.935   0.091   5.110  0.2661  0.2580 -0.3897
 7885TIP3    H145146   5.875   0.142   5.056  1.2313  1.6396 -0.1908
 7885TIP3    H245147   5.948   0.144   5.189 -0.1505 -1.1641  0.6525
 7886TIP3   OH245148   3.065   0.617  16.551  0.6092  0.2721  0.7851
 7886TIP3    H145149   3.066   0.521  16.547 -2.4787  0.2632 -0.8611
 7886TIP3    H245150   3.125   0.644  16.481  1.4668 -0.4197  1.2302
 7887TIP3   OH245151   3.515   6.308  15.867 -0.2718  0.6288 -0.1269
 7887TIP3    H145152   3.561   6.392  15.869  0.7077  0.0780  2.2456
 7887TIP3    H245153   3.583   6.243  15.851 -0.8732  0.1920 -0.9490
 7888TIP3   OH245154   4.816   4.730   4.886 -0.2618  0.4564 -0.1702
 7888TIP3    H145155   4.721   4.725   4.880 -0.3242  0.2853  0.8822
 7888TIP3    H245156   4.834   4.746   4.979  0.6851  1.8023 -0.5752
 7889TIP3   OH245157   5.310   2.920  16.138  0.0241  0.6093  0.3305
 7889TIP3    H145158   5.261   2.844  16.171  0.2120  0.3543  0.0296
 7889TIP3    H245159   5.300   2.915  16.043  0.0000  0.9866  0.3117
 7890TIP3   OH245160   1.799   5.033  16.149  0.0347 -0.4198  0.1492
 7890TIP3    H145161   1.790   5.128  16.138  0.6091 -0.4291 -0.4055
 7890TIP3    H245162   1.783   5.018  16.242 -1.7430  0.0288 -0.0676
 7891TIP3   OH245163   0.169   4.317   0.615  0.5156 -0.2026  0.5618
 7891TIP3    H145164   0.217   4.392   0.580  1.4057 -1.9680 -2.1283
 7891TIP3    H245165   0.215   4.296   0.696  1.2186  1.1523  0.5387
 7892TIP3   OH245166   3.322   2.825  15.438  0.2327 -0.5020 -0.3364
 7892TIP3    H145167   3.260   2.817  15.510  0.5378 -0.7188 -0.1005
 7892TIP3    H245168   3.407   2.807  15.477  0.4551 -0.1417 -0.6459
 7893TIP3   OH245169   3.064   2.582   2.079 -0.1393 -0.3731 -0.1994
 7893TIP3    H145170   3.072   2.526   2.002 -1.6300  0.5657 -1.0605
 7893TIP3    H245171   3.072   2.522   2.153  0.9684 -1.3338 -1.0833
 7894TIP3   OH245172   4.515   1.352   0.171  0.0307 -0.1578 -0.2446
 7894TIP3    H145173   4.427   1.334   0.139 -0.0605  0.9422 -0.6357
 7894TIP3    H245174   4.551   1.414   0.108  1.6269 -1.7256 -0.9249
 7895TIP3   OH245175   5.873   0.038  14.070 -0.1519  0.0884 -0.1140
 7895TIP3    H145176   5.783   0.010  14.052 -0.6067 -0.1134  2.4148
 7895TIP3    H245177   5.875   0.058  14.163  2.6570 -0.7361  0.0588
 7896TIP3   OH245178   2.792   5.985  13.389  0.1314 -0.1743  0.8946
 7896TIP3    H145179   2.761   6.063  13.435 -0.4209 -0.5606  1.1854
 7896TIP3    H245180   2.833   5.931  13.457  0.4451 -0.1715  0.7077
 7897TIP3   OH245181   1.704   5.441  16.951  0.5351 -0.2133  0.0124
 7897TIP3    H145182   1.609   5.428  16.949  0.6573 -1.0376 -1.1394
 7897TIP3    H245183   1.740   5.354  16.968  1.1945 -0.6156 -3.0687
 7898TIP3   OH245184   1.705   6.295  15.469 -0.5232 -0.5911 -0.0545
 7898TIP3    H145185   1.749   6.218  15.433  2.1395  0.6527  0.4276
 7898TIP3    H245186   1.764   6.326  15.538 -1.5852  1.8704 -0.2095
 7899TIP3   OH245187   2.128   1.535  10.487  0.4333 -0.2020 -0.3446
 7899TIP3    H145188   2.200   1.569  10.435  0.1083 -1.6023 -1.7577
 7899TIP3    H245189   2.090   1.612  10.529  1.6803  0.7518 -0.9260
 7900TIP3   OH245190   2.096   5.253   1.326  0.0219 -0.0706  0.0516
 7900TIP3    H145191   2.185   5.217   1.325 -0.0164 -0.1603 -0.4492
 7900TIP3    H245192   2.096   5.317   1.255 -0.7722 -1.2284 -1.0153
 7901TIP3   OH245193   6.145   1.868   6.270  0.6288  0.4853 -0.0303
 7901TIP3    H145194   6.131   1.928   6.197  3.8013  0.3134 -0.8436
 7901TIP3    H245195   6.151   1.926   6.347 -2.1740  0.7027  0.0641
 7902TIP3   OH245196   1.659   3.248   1.445 -0.3172  0.5015  0.0505
 7902TIP3    H145197   1.624   3.308   1.510 -0.5570 -1.5049  1.8113
 7902TIP3    H245198   1.613   3.166   1.459  3.9750 -1.8357  1.5358
 7903TIP3   OH245199   3.655   5.711  10.637  0.0731 -0.5645 -0.0705
 7903TIP3    H145200   3.568   5.679  10.610 -0.3187 -0.1104  0.6383
 7903TIP3    H245201   3.700   5.633  10.669  0.1440 -0.9097 -0.9833
 7904TIP3   OH245202   1.642   0.124   3.667  0.0783  0.3487 -0.1448
 7904TIP3    H145203   1.727   0.170   3.663 -0.8529  2.3620  1.7533
 7904TIP3    H245204   1.630   0.088   3.580  2.6302  0.5399 -0.6240
 7905TIP3   OH245205   5.799   1.257   3.622 -0.1939  0.1455 -0.0367
 7905TIP3    H145206   5.865   1.218   3.680 -1.1288  0.0076  0.9554
 7905TIP3    H245207   5.840   1.336   3.588  1.1256 -0.8375 -0.7942
 7906TIP3   OH245208   2.041   5.466  12.383 -0.5028  0.2679  0.6198
 7906TIP3    H145209   2.073   5.445  12.471 -0.7676  0.3946  0.7481
 7906TIP3    H245210   2.101   5.532  12.351 -0.4385  0.2631  0.7273
 7907TIP3   OH245211   3.147   5.073  11.381  0.5032 -0.2221  0.1588
 7907TIP3    H145212   3.151   5.036  11.469 -1.0496 -1.9146 -0.4608
 7907TIP3    H245213   3.094   5.011  11.331 -0.5198  1.8662 -1.4138
 7908TIP3   OH245214   0.415   5.770  14.198  0.5769 -0.1683  0.0894
 7908TIP3    H145215   0.497   5.817  14.215  0.7861 -0.6790  0.5009
 7908TIP3    H245216   0.412   5.703  14.265 -0.4347  0.1633  0.3784
 7909TIP3   OH245217   6.519   5.887   5.543  0.0031  0.3303  0.0205
 7909TIP3    H145218   6.504   5.974   5.504 -0.4868 -0.5331 -1.7612
 7909TIP3    H245219   6.441   5.837   5.521  1.3062 -1.2812 -1.0076
 7910TIP3   OH245220   4.857   6.758   2.124 -0.0922 -0.2223 -0.3657
 7910TIP3    H145221   4.935   6.808   2.099  0.2536 -0.5355  0.0653
 7910TIP3    H245222   4.840   6.785   2.215  0.0299 -0.7924 -0.1692
 7911TIP3   OH245223   0.523   0.043   1.463  0.2206 -0.1815  0.2192
 7911TIP3    H145224   0.618   0.029   1.468  0.0353 -1.1110  1.3255
 7911TIP3    H245225   0.491  -0.031   1.412  0.4986  2.1671 -3.6337
 7912TIP3   OH245226   1.438   3.991   3.110  0.4916  0.3870  0.0557
 7912TIP3    H145227   1.381   3.915   3.103 -0.6449  1.0218  2.0444
 7912TIP3    H245228   1.474   3.987   3.198  1.9766  1.1002 -0.4925
 7913TIP3   OH245229   0.819   2.351  14.560  0.0118 -0.1336 -0.5400
 7913TIP3    H145230   0.795   2.417  14.495 -2.7853 -0.7278 -0.1368
 7913TIP3    H245231   0.736   2.323  14.599  1.4468 -1.4329  1.6967
 7914TIP3   OH245232   5.224   3.358  12.259  0.3915 -0.4437 -0.2451
 7914TIP3    H145233   5.181   3.274  12.246 -0.3983 -0.2848  1.2087
 7914TIP3    H245234   5.174   3.420  12.207  1.1744 -0.9117 -1.5872
 7915TIP3   OH245235   3.212   2.561  13.083 -0.0029  0.2045 -0.2785
 7915TIP3    H145236   3.298   2.541  13.045  0.6408  1.0772  0.7140
 7915TIP3    H245237   3.230   2.590  13.172 -1.2386  1.4583 -0.4121
 7916TIP3   OH245238   4.609   0.775  16.337  0.0264 -0.0579 -0.2679
 7916TIP3    H145239   4.664   0.697  16.343  1.0633  0.7832  1.6568
 7916TIP3    H245240   4.538   0.750  16.279  2.4611 -1.1622 -2.8922
 7917TIP3   OH245241   3.187   6.384   0.123 -0.0108 -0.2277 -0.3209
 7917TIP3    H145242   3.092   6.371   0.113  0.1587 -1.7794 -0.1043
 7917TIP3    H245243   3.195   6.441   0.199 -0.7302 -1.2123  0.5133
 7918TIP3   OH245244   3.977   1.648  11.514  0.4135  0.0217  0.2322
 7918TIP3    H145245   3.927   1.689  11.444  0.1068 -1.6120 -0.5131
 7918TIP3    H245246   4.044   1.597  11.470  0.2805 -0.9478  1.1283
 7919TIP3   OH245247   4.898   3.699   5.664  0.4931  0.4459 -0.2818
 7919TIP3    H145248   4.883   3.671   5.755 -1.8422  1.1871 -0.4003
 7919TIP3    H245249   4.907   3.794   5.670 -1.3395  0.6795 -0.9984
 7920TIP3   OH245250   5.109   2.423   2.101 -0.1826 -0.2894  0.5216
 7920TIP3    H145251   5.133   2.507   2.062  0.6314  0.4429  2.5700
 7920TIP3    H245252   5.082   2.444   2.190 -0.9685 -2.0814  0.7322
 7921TIP3   OH245253   2.544   3.830   5.010 -0.6462  0.4660 -0.5783
 7921TIP3    H145254   2.506   3.918   5.011 -0.6051  0.5097 -2.2510
 7921TIP3    H245255   2.607   3.831   4.939 -0.5920 -0.9028 -0.5668
 7922TIP3   OH245256   2.021   0.759  14.850  0.2877  0.1313 -0.4126
 7922TIP3    H145257   1.953   0.722  14.793 -0.8139  0.2700  0.8033
 7922TIP3    H245258   2.004   0.721  14.936  1.2493  0.8228  0.0968
 7923TIP3   OH245259   0.541   3.634   3.586 -0.2613 -0.1532  0.0006
 7923TIP3    H145260   0.629   3.644   3.548 -0.8127  0.7475 -1.0634
 7923TIP3    H245261   0.504   3.722   3.583 -0.8022 -0.3129  1.4774
 7924TIP3   OH245262   3.130   1.675   2.380  0.2768  0.6069 -0.3976
 7924TIP3    H145263   3.055   1.719   2.421 -0.0828 -0.4675  0.0924
 7924TIP3    H245264   3.175   1.745   2.333  0.8440  1.9285  2.0059
 7925TIP3   OH245265   3.512   3.897  12.005 -0.4408 -0.0669  0.6102
 7925TIP3    H145266   3.461   3.860  11.933  0.7170  1.2671 -0.9332
 7925TIP3    H245267   3.465   3.978  12.027  0.6528  0.8779 -0.4437
 7926TIP3   OH245268   2.278   1.564  10.896 -0.9390  0.7959 -0.0776
 7926TIP3    H145269   2.296   1.547  10.989  0.7914  1.0281 -0.3630
 7926TIP3    H245270   2.272   1.659  10.890 -0.9591  0.7850 -0.2221
 7927TIP3   OH245271   0.824   2.896  15.309 -0.2394 -0.1737  0.0187
 7927TIP3    H145272   0.854   2.986  15.291  0.3974 -0.6718 -1.5013
 7927TIP3    H245273   0.904   2.846  15.319 -0.5995 -0.5638  1.0331
 7928TIP3   OH245274   0.655   2.953   2.498  0.4708 -0.4720 -0.0702
 7928TIP3    H145275   0.562   2.956   2.477  0.7929 -0.9004 -1.6100
 7928TIP3    H245276   0.681   3.045   2.504 -0.1584 -0.3411  0.9691
 7929TIP3   OH245277   2.747   6.654   0.118  0.4078  0.0584 -0.0155
 7929TIP3    H145278   2.733   6.572   0.167  0.2772 -0.8834 -1.5953
 7929TIP3    H245279   2.663   6.700   0.124  0.5184  0.1446  0.9861
 7930TIP3   OH245280   6.694   4.322   4.693  0.6895  0.1845  0.0411
 7930TIP3    H145281   6.763   4.372   4.737 -0.9347  1.0649  1.6377
 7930TIP3    H245282   6.664   4.379   4.622  0.7039  0.3317  0.1549
 7931TIP3   OH245283   3.398   0.376  14.467 -0.6242 -0.1982  0.1193
 7931TIP3    H145284   3.459   0.445  14.443 -1.8887  0.5804 -0.8624
 7931TIP3    H245285   3.411   0.308  14.401  0.5633 -0.8831  1.0375
 7932TIP3   OH245286   5.282   4.166   1.516 -0.0789  0.1004 -0.1752
 7932TIP3    H145287   5.271   4.071   1.529 -1.4598  0.3792  0.7674
 7932TIP3    H245288   5.235   4.185   1.435 -1.3680  0.2737  0.6038
 7933TIP3   OH245289   3.963   6.243  11.773 -0.3520 -0.0456 -0.1199
 7933TIP3    H145290   3.914   6.223  11.853  0.9684  0.5954  0.8883
 7933TIP3    H245291   3.898   6.279  11.713 -1.2572  0.0212  0.8860
 7934TIP3   OH245292   6.353   1.909   0.941  0.9291 -0.0654  0.4801
 7934TIP3    H145293   6.307   1.923   1.023 -1.2364 -0.9927 -0.5305
 7934TIP3    H245294   6.446   1.904   0.966  0.3685  0.2800  2.7570
 7935TIP3   OH245295   5.847   1.157  12.990 -0.5684  0.5358  0.0180
 7935TIP3    H145296   5.838   1.069  13.026 -0.9524  0.9864  1.0750
 7935TIP3    H245297   5.867   1.212  13.066  1.4855  1.0840 -0.8962
 7936TIP3   OH245298   6.567   1.852   5.522  0.0797  0.8540  0.4605
 7936TIP3    H145299   6.487   1.903   5.533  0.5333  1.9119 -0.9856
 7936TIP3    H245300   6.614   1.897   5.452  0.9384 -1.0138 -0.1838
 7937TIP3   OH245301   3.173   6.391  12.103 -0.2257 -0.0794  0.4283
 7937TIP3    H145302   3.205   6.443  12.177  0.4339 -0.0837  0.1483
 7937TIP3    H245303   3.222   6.309  12.109  0.3762  0.2098 -0.4547
 7938TIP3   OH245304   6.465   1.765  13.179  0.0322 -0.3299 -0.3090
 7938TIP3    H145305   6.465   1.677  13.217  3.4838 -0.5038 -0.5089
 7938TIP3    H245306   6.458   1.751  13.085  1.4053 -0.4788 -0.4032
 7939TIP3   OH245307   5.007   2.455  11.257 -0.5280 -0.3585 -0.6243
 7939TIP3    H145308   4.990   2.522  11.323  0.9040 -1.1173  0.5607
 7939TIP3    H245309   4.978   2.373  11.298 -1.8238 -0.5391 -1.8741
 7940TIP3   OH245310   2.021   3.114   5.986  0.0012  1.0522 -0.4414
 7940TIP3    H145311   2.090   3.054   5.960  0.4704  1.4988 -0.2329
 7940TIP3    H245312   1.941   3.060   5.986  0.7509 -0.1361  1.8857
 7941TIP3   OH245313   3.132   5.967  11.970  0.2482 -0.2089 -0.4512
 7941TIP3    H145314   3.041   5.942  11.981  0.2409 -0.3670 -0.8924
 7941TIP3    H245315   3.178   5.885  11.953  0.2621  0.0472 -1.6465
 7942TIP3   OH245316   3.304   4.363  13.076  0.0347  0.1382 -0.0181
 7942TIP3    H145317   3.231   4.409  13.034 -0.1299 -0.9098 -0.9022
 7942TIP3    H245318   3.275   4.272  13.081  0.5353  0.0470  1.3244
 7943TIP3   OH245319   5.788   6.105  14.792 -0.4179  0.1298 -0.4319
 7943TIP3    H145320   5.696   6.119  14.771 -0.8813 -1.6161  0.3621
 7943TIP3    H245321   5.836   6.146  14.720 -1.7926  1.2274 -0.7450
 7944TIP3   OH245322   2.131   3.568  14.698 -0.4196  0.1361 -0.3762
 7944TIP3    H145323   2.207   3.511  14.690 -1.0992 -1.2638  2.5710
 7944TIP3    H245324   2.162   3.642  14.751 -0.5645  0.5749 -0.9025
 7945TIP3   OH245325   6.748   3.445  14.736  0.9660  0.1662  0.3091
 7945TIP3    H145326   6.705   3.437  14.821 -1.2976  1.6540 -0.6437
 7945TIP3    H245327   6.756   3.356  14.704  0.8178 -0.3197  1.6026
 7946TIP3   OH245328   6.680   2.812   3.016  0.3374 -0.4801 -0.0871
 7946TIP3    H145329   6.707   2.904   3.015  0.4066 -0.4615  1.3196
 7946TIP3    H245330   6.694   2.782   2.927 -2.8272  1.7646 -1.4326
 7947TIP3   OH245331   5.041   6.368   3.060 -0.4333  0.2779 -0.2393
 7947TIP3    H145332   5.088   6.290   3.089 -3.4073 -1.4452  0.2471
 7947TIP3    H245333   5.043   6.427   3.136 -1.0014 -0.7356  0.5846
 7948TIP3   OH245334   4.406   1.304  17.098  0.3714 -0.5789 -0.5270
 7948TIP3    H145335   4.365   1.269  17.019  0.3666  0.6233 -1.0653
 7948TIP3    H245336   4.387   1.240  17.165  1.0463 -2.0184 -1.6793
 7949TIP3   OH245337   3.697   4.751  13.703  0.0706 -0.1515 -1.0470
 7949TIP3    H145338   3.669   4.660  13.716  0.0348 -0.0139 -0.1017
 7949TIP3    H245339   3.669   4.796  13.783  0.7484  0.5305 -1.1885
 7950TIP3   OH245340   0.895   4.995  14.058 -0.8123 -0.2858 -0.2940
 7950TIP3    H145341   0.886   5.039  14.143  1.0254 -0.0866 -0.1932
 7950TIP3    H245342   0.914   5.066  13.996  1.6267 -0.8591 -0.2229
 7951TIP3   OH245343   1.904   5.894   2.575  0.0612 -0.1034 -0.3535
 7951TIP3    H145344   1.829   5.867   2.522 -1.2723 -1.4252  2.1518
 7951TIP3    H245345   1.946   5.812   2.602  1.6319  0.5909 -0.5957
 7952TIP3   OH245346   0.036   3.289  12.598 -0.3471  0.4098  0.0672
 7952TIP3    H145347  -0.042   3.244  12.628  0.2251  0.7173  2.1225
 7952TIP3    H245348   0.049   3.360  12.661  0.3570  1.7074 -1.4950
 7953TIP3   OH245349   0.002   4.477  14.336  0.1081  0.2746  0.2543
 7953TIP3    H145350   0.081   4.472  14.281  0.3818 -0.2478  0.6864
 7953TIP3    H245351  -0.062   4.422  14.292  0.1539  0.2833  0.1769
 7954TIP3   OH245352   0.456   4.257  14.565  0.3789  0.8636  0.3680
 7954TIP3    H145353   0.532   4.199  14.570  0.4836  0.9806  0.1677
 7954TIP3    H245354   0.406   4.224  14.490  1.1062  1.8152 -0.5659
 7955TIP3   OH245355   0.133   4.600  15.219  0.1853  0.1098 -0.6035
 7955TIP3    H145356   0.086   4.681  15.198 -1.0250 -0.9801 -2.2138
 7955TIP3    H245357   0.220   4.613  15.182 -0.2175  0.4141 -1.4659
 7956TIP3   OH245358   4.498   2.560   0.498 -0.2307 -0.0694  0.2939
 7956TIP3    H145359   4.546   2.626   0.447 -0.4424  0.4846  0.8020
 7956TIP3    H245360   4.406   2.578   0.478 -0.1788 -2.4246 -2.2768
 7957TIP3   OH245361   6.772   6.419  15.064 -0.1506 -0.4609  0.6007
 7957TIP3    H145362   6.766   6.405  15.158  1.1590  1.7903  1.0458
 7957TIP3    H245363   6.846   6.479  15.053  1.0659 -2.3566 -2.0356
 7958TIP3   OH245364   2.218   4.947  12.967  0.0816 -0.1422 -0.4837
 7958TIP3    H145365   2.248   5.019  12.911 -0.6334  0.6645  0.1588
 7958TIP3    H245366   2.206   4.874  12.907  0.6418  0.3234 -1.1778
 7959TIP3   OH245367   6.498   6.554  14.584  0.6795 -0.8616 -0.1047
 7959TIP3    H145368   6.403   6.560  14.588  0.7928  1.3853 -0.0368
 7959TIP3    H245369   6.517   6.523  14.496 -0.0727  0.0527 -0.5917
 7960TIP3   OH245370   1.536   4.614  11.194 -0.3325 -0.0942  0.7728
 7960TIP3    H145371   1.572   4.698  11.164 -0.9202 -0.1095  0.0036
 7960TIP3    H245372   1.444   4.617  11.166 -0.1028 -1.4223 -0.1555
 7961TIP3   OH245373   4.702   1.199  15.940 -0.0752  0.0807 -0.5483
 7961TIP3    H145374   4.769   1.142  15.976  0.3113  0.9669  0.1565
 7961TIP3    H245375   4.636   1.139  15.903 -0.2821 -0.8311  1.2473
 7962TIP3   OH245376   2.906   5.504   0.367 -0.0310 -0.0023  0.2651
 7962TIP3    H145377   2.848   5.530   0.438 -1.0711 -0.9960 -0.2019
 7962TIP3    H245378   2.978   5.457   0.410 -0.3957 -0.1590  0.7043
 7963TIP3   OH245379   6.667   3.300   2.969 -0.3878  0.3046 -0.1950
 7963TIP3    H145380   6.679   3.321   2.876 -0.1561  3.2769  0.4337
 7963TIP3    H245381   6.579   3.265   2.975 -0.0845 -0.7572 -1.6615
 7964TIP3   OH245382   1.660   3.884   2.002  0.5888 -0.5970  0.6647
 7964TIP3    H145383   1.644   3.930   1.920 -0.8038 -0.3918  1.0457
 7964TIP3    H245384   1.688   3.797   1.975  1.3490 -0.1395 -0.0389
 7965TIP3   OH245385   0.080   3.321   1.848 -0.6326  0.1598  0.6793
 7965TIP3    H145386   0.085   3.404   1.895 -1.4612  0.3824  0.3829
 7965TIP3    H245387   0.166   3.311   1.807  0.2327 -0.2359  2.5559
 7966TIP3   OH245388   1.265   6.340   3.225  0.5467 -0.2661 -0.2995
 7966TIP3    H145389   1.257   6.250   3.256  3.1563 -0.3438  0.2627
 7966TIP3    H245390   1.354   6.366   3.249  0.8791  1.4424 -3.1064
 7967TIP3   OH245391   5.667   4.401  16.492  0.3424 -0.0822  0.2776
 7967TIP3    H145392   5.722   4.336  16.535 -0.4298 -1.9867 -1.5269
 7967TIP3    H245393   5.649   4.364  16.405 -2.1869  1.3605  0.1300
 7968TIP3   OH245394   2.804   5.438  11.606 -0.1329  0.0206  0.0694
 7968TIP3    H145395   2.744   5.479  11.545 -0.7145 -0.9200 -0.0055
 7968TIP3    H245396   2.891   5.453  11.568 -0.5319 -1.1362 -1.3590
 7969TIP3   OH245397   5.000   4.874   0.383 -0.4768 -0.2615  0.1456
 7969TIP3    H145398   5.020   4.905   0.472 -0.6316 -1.0992  0.4787
 7969TIP3    H245399   4.938   4.803   0.396 -2.1634  1.0225 -0.7761
 7970TIP3   OH245400   4.095   4.345   2.471  0.2693 -0.1982  0.1847
 7970TIP3    H145401   4.019   4.295   2.440  0.0080  0.6829 -0.6230
 7970TIP3    H245402   4.118   4.402   2.397  0.3025  1.1711  1.2320
 7971TIP3   OH245403   4.564   0.788  11.911 -0.7011  0.0971  0.1683
 7971TIP3    H145404   4.586   0.773  12.003  1.1237  0.5400 -0.1875
 7971TIP3    H245405   4.493   0.853  11.914  1.3676  2.3923  1.1685
 7972TIP3   OH245406   0.431   1.290   0.977 -0.0038  0.0747 -0.0269
 7972TIP3    H145407   0.482   1.371   0.988  0.3340  0.0562 -1.2914
 7972TIP3    H245408   0.394   1.298   0.889 -0.9208 -0.6279  0.2935
 7973TIP3   OH245409   3.816   6.608   5.545  0.8265  0.1890 -0.2333
 7973TIP3    H145410   3.911   6.592   5.550  0.6031 -1.2668 -0.4774
 7973TIP3    H245411   3.787   6.606   5.636  0.7510 -1.2170 -0.2731
 7974TIP3   OH245412   0.278   0.386  16.720  0.1529 -0.4890  0.1904
 7974TIP3    H145413   0.231   0.459  16.680  0.2839 -1.2382 -1.3669
 7974TIP3    H245414   0.371   0.409  16.709  0.2631 -2.1912 -2.8751
 7975TIP3   OH245415   2.857   3.623  17.103  0.3274 -0.1768 -0.0597
 7975TIP3    H145416   2.940   3.600  17.144  0.8191  3.1680  0.9485
 7975TIP3    H245417   2.878   3.629  17.009  1.5513  1.7565  0.3015
 7976TIP3   OH245418   1.767   1.840  15.859 -0.0344  0.2707 -0.0689
 7976TIP3    H145419   1.687   1.810  15.901 -0.8096  0.1629 -1.5959
 7976TIP3    H245420   1.785   1.925  15.900 -1.4380  0.7200 -0.3666
 7977TIP3   OH245421   5.600   6.614  11.379 -0.2292 -0.1432 -0.1587
 7977TIP3    H145422   5.655   6.539  11.400  0.6687  0.5332 -0.0798
 7977TIP3    H245423   5.642   6.654  11.302 -1.3271 -0.3661 -0.8849
 7978TIP3   OH245424   4.709   1.930  11.514 -0.0903 -0.0437 -0.3988
 7978TIP3    H145425   4.702   1.838  11.537 -1.7033  0.2566  0.3988
 7978TIP3    H245426   4.803   1.947  11.509  0.2220 -1.5146  0.2942
 7979TIP3   OH245427   6.444   2.361   0.597  0.3496 -0.2199  0.0287
 7979TIP3    H145428   6.360   2.342   0.640  0.4845 -1.1794 -0.1201
 7979TIP3    H245429   6.496   2.405   0.664  0.3756 -1.2572  0.7043
 7980TIP3   OH245430   1.995   0.914   0.329  0.4263  0.2493  0.1557
 7980TIP3    H145431   2.031   0.975   0.265  1.6552 -1.4881 -0.8321
 7980TIP3    H245432   2.062   0.908   0.397  0.8922 -1.0234 -0.4133
 7981TIP3   OH245433   5.291   3.185   4.139 -0.1465 -0.7189 -0.2366
 7981TIP3    H145434   5.385   3.165   4.138 -0.0191 -0.1224  0.1041
 7981TIP3    H245435   5.259   3.150   4.055 -0.0878 -3.1271  0.7035
 7982TIP3   OH245436   6.137   4.547  14.979  0.3584  0.4822 -0.6031
 7982TIP3    H145437   6.231   4.561  14.976  0.2232  2.0543  1.6603
 7982TIP3    H245438   6.099   4.635  14.976 -1.0984 -0.1670 -2.5607
 7983TIP3   OH245439   5.381   6.737  11.868  0.5837 -0.2661 -0.5858
 7983TIP3    H145440   5.368   6.715  11.776  0.4639  0.9061 -0.8568
 7983TIP3    H245441   5.438   6.814  11.866  1.2979 -0.7607  0.3463
 7984TIP3   OH245442   4.964   3.884   5.026 -0.2403 -0.0915 -0.3837
 7984TIP3    H145443   4.959   3.929   5.110  0.3748  1.8425 -1.3460
 7984TIP3    H245444   5.010   3.802   5.045  0.3512  0.5594  1.0570
 7985TIP3   OH245445   4.507   1.597  14.939 -0.2698  0.2643 -0.1944
 7985TIP3    H145446   4.421   1.612  14.900 -0.4756 -0.9883 -0.2683
 7985TIP3    H245447   4.542   1.684  14.956 -2.0577  0.7933  0.9346
 7986TIP3   OH245448   1.599   3.184   3.572 -0.3748  0.7948  0.3195
 7986TIP3    H145449   1.577   3.191   3.665  0.1691  4.3802  0.2524
 7986TIP3    H245450   1.524   3.222   3.527 -0.2365 -0.0890 -0.6806
 7987TIP3   OH245451   4.925   2.902   5.866  0.8198  0.1171 -0.3193
 7987TIP3    H145452   4.894   2.988   5.892  2.3330  1.0532 -1.5312
 7987TIP3    H245453   4.863   2.873   5.799 -0.0661 -0.0306  0.5582
 7988TIP3   OH245454   1.792   1.943   2.357  0.2793  0.0793  0.1131
 7988TIP3    H145455   1.859   1.887   2.398 -0.1983 -0.4349  0.1995
 7988TIP3    H245456   1.783   1.909   2.268  1.1026  1.0098 -0.3342
 7989TIP3   OH245457   0.566   4.594  16.844 -0.3293 -0.2823  0.0395
 7989TIP3    H145458   0.496   4.659  16.835  0.7250  0.6962 -1.2905
 7989TIP3    H245459   0.640   4.644  16.879  0.0935 -1.0448  0.2306
 7990TIP3   OH245460   5.544   0.429  14.388  0.2153 -0.2511  0.0880
 7990TIP3    H145461   5.511   0.365  14.451 -1.5752 -0.9111 -1.4793
 7990TIP3    H245462   5.517   0.513  14.424  0.5847 -0.5068  0.9955
 7991TIP3   OH245463   6.241   2.745   0.509 -0.1218  0.4406  0.1329
 7991TIP3    H145464   6.154   2.785   0.509 -0.4229 -0.1908  1.0532
 7991TIP3    H245465   6.255   2.717   0.599  0.6207 -0.3602 -0.2182
 7992TIP3   OH245466   3.758   4.933   6.028  0.0177  0.2481  0.5562
 7992TIP3    H145467   3.694   4.961   5.963 -1.5993 -1.4143  1.3853
 7992TIP3    H245468   3.753   4.999   6.097 -2.5471 -1.0631  1.7118
 7993TIP3   OH245469   3.873   2.060   1.518  0.4941 -0.7412 -0.1451
 7993TIP3    H145470   3.822   2.035   1.594 -0.5651 -0.8154 -0.8678
 7993TIP3    H245471   3.941   2.118   1.553  0.2646 -1.0880  0.8990
 7994TIP3   OH245472   0.826   4.178  16.725  0.7717 -0.0916 -0.3197
 7994TIP3    H145473   0.812   4.202  16.634  0.2716 -0.3047 -0.2999
 7994TIP3    H245474   0.816   4.083  16.726 -1.6589  0.1230  0.3719
 7995TIP3   OH245475   6.261   3.528   0.714 -0.2924 -0.1197  0.0353
 7995TIP3    H145476   6.179   3.478   0.716 -0.3948  0.0625  0.5671
 7995TIP3    H245477   6.264   3.572   0.799  0.2533  0.0466 -0.0680
 7996TIP3   OH245478   4.648   5.653  15.599  0.3391 -0.5398  0.3320
 7996TIP3    H145479   4.649   5.728  15.541 -0.9334 -0.5892  0.2245
 7996TIP3    H245480   4.726   5.663  15.654 -0.5296  1.5856  1.2358
 7997TIP3   OH245481   4.809   6.132   2.388  0.2829  0.1629  0.5806
 7997TIP3    H145482   4.717   6.154   2.404  0.7091  0.7332  2.4244
 7997TIP3    H245483   4.806   6.066   2.319 -1.5467 -0.1479  0.9141
 7998TIP3   OH245484   4.912   2.744  11.345 -0.2444  0.5982 -0.8269
 7998TIP3    H145485   4.819   2.736  11.369 -0.2159 -1.2048 -1.2901
 7998TIP3    H245486   4.911   2.787  11.259 -0.6521  0.4599 -0.8921
 7999TIP3   OH245487   0.645   1.453   0.822  0.5424 -0.2019 -0.0306
 7999TIP3    H145488   0.579   1.502   0.871 -0.1784 -0.0946 -1.0702
 7999TIP3    H245489   0.719   1.513   0.815 -0.7023  1.1625 -2.1489
 8000TIP3   OH245490   6.047   2.542  14.810  0.1844 -0.3492  0.6480
 8000TIP3    H145491   6.118   2.507  14.756  0.2573 -0.8372  1.0521
 8000TIP3    H245492   5.982   2.471  14.814  0.6013 -0.6801  1.9596
 8001TIP3   OH245493   1.247   2.479   1.499 -0.3751 -0.1107  0.3517
 8001TIP3    H145494   1.215   2.429   1.573 -0.7450  1.1621  1.0687
 8001TIP3    H245495   1.256   2.569   1.532 -1.3521  0.6462 -1.3602
 8002TIP3   OH245496   5.031   1.415   1.131  0.0129  0.3249 -0.3569
 8002TIP3    H145497   5.117   1.383   1.103 -0.4941 -0.0355 -1.5472
 8002TIP3    H245498   4.975   1.404   1.054 -1.0144  0.8951  0.2920
 8003TIP3   OH245499   4.803   4.486   5.586  0.1897  0.0502 -0.1579
 8003TIP3    H145500   4.813   4.438   5.668 -1.8426  0.6170  0.4363
 8003TIP3    H245501   4.771   4.572   5.613 -0.2771  0.3081 -1.5246
 8004TIP3   OH245502   0.782   2.549   6.263  0.0655  0.4116 -0.6681
 8004TIP3    H145503   0.810   2.537   6.354 -1.7497 -1.0959 -0.2768
 8004TIP3    H245504   0.737   2.633   6.263 -1.1820 -0.2440  0.1558
 8005TIP3   OH245505   1.705   0.512  12.197 -0.3674  0.0640 -0.5943
 8005TIP3    H145506   1.763   0.499  12.123  0.1606 -0.2701 -0.1262
 8005TIP3    H245507   1.669   0.425  12.215 -1.9947  0.4934 -1.6765
 8006TIP3   OH245508   1.637   3.463  15.742 -0.2316 -0.5066  0.2841
 8006TIP3    H145509   1.553   3.494  15.708  0.4030  2.1149  0.9946
 8006TIP3    H245510   1.613   3.402  15.813 -1.5172 -1.3625 -0.8611
 8007TIP3   OH245511   6.349   4.414   3.930  0.0333 -0.1364 -0.1663
 8007TIP3    H145512   6.257   4.418   3.906 -0.1203 -0.3284  0.3870
 8007TIP3    H245513   6.387   4.351   3.869  0.0969  1.0147 -1.3344
 8008TIP3   OH245514   6.204   0.560   3.157 -0.0048  0.7393 -0.2071
 8008TIP3    H145515   6.141   0.600   3.097  0.4922 -0.2399 -1.3960
 8008TIP3    H245516   6.169   0.578   3.244 -1.6488  0.6432 -0.8357
 8009TIP3   OH245517   5.772   1.173  15.067 -0.1845 -0.0341 -0.1887
 8009TIP3    H145518   5.813   1.145  14.985  1.8287 -1.5050  1.2867
 8009TIP3    H245519   5.706   1.237  15.040  0.0377 -0.9300 -3.0071
 8010TIP3   OH245520   6.378   5.076  16.157  0.5021 -0.2051 -0.6809
 8010TIP3    H145521   6.431   5.120  16.090 -0.7190  0.2769 -1.3496
 8010TIP3    H245522   6.300   5.046  16.110 -1.1480  1.5770  0.8410
 8011TIP3   OH245523   1.996   0.118   0.739  0.1809  0.3425 -0.0286
 8011TIP3    H145524   1.971   0.028   0.761 -1.1435  0.4294 -1.0571
 8011TIP3    H245525   1.991   0.166   0.821 -2.2337  0.1442 -0.0196
 8012TIP3   OH245526   3.631   6.223   3.619  0.4032 -0.0986  0.3736
 8012TIP3    H145527   3.596   6.289   3.678 -1.5607 -1.2632  0.5859
 8012TIP3    H245528   3.562   6.212   3.553  1.0759 -1.2828 -0.1417
 8013TIP3   OH245529   3.620   5.072   2.762 -0.7080  0.2532  0.4410
 8013TIP3    H145530   3.589   5.157   2.793  0.4798  0.4253  1.1645
 8013TIP3    H245531   3.690   5.048   2.823 -0.7503 -1.0502 -0.0065
 8014TIP3   OH245532   3.327   3.652  13.274  0.0098  1.0442 -0.0032
 8014TIP3    H145533   3.249   3.628  13.223 -0.1229  0.3192  0.5326
 8014TIP3    H245534   3.293   3.674  13.361  0.3801  1.0039  0.1504
 8015TIP3   OH245535   3.821   5.515   1.442  0.1099 -0.6044  0.2021
 8015TIP3    H145536   3.742   5.541   1.395 -0.1789  0.3391  1.1815
 8015TIP3    H245537   3.789   5.468   1.520  0.4779  0.4461  0.9986
 8016TIP3   OH245538   2.078   3.860  16.335 -0.1746  0.2682 -0.0382
 8016TIP3    H145539   2.132   3.854  16.413 -0.3494  1.9864  0.2381
 8016TIP3    H245540   2.022   3.936  16.350 -1.8172 -0.7498 -0.8478
 8017TIP3   OH245541   1.469   2.970  13.976 -0.1899  0.3431  0.0312
 8017TIP3    H145542   1.541   3.020  13.939  0.7095 -1.9291 -1.3399
 8017TIP3    H245543   1.485   2.971  14.071  0.9085  0.9387 -0.1529
 8018TIP3   OH245544   3.239   1.607  16.037  0.1154 -0.1181 -0.0213
 8018TIP3    H145545   3.203   1.695  16.031  2.1178  0.7007 -0.5070
 8018TIP3    H245546   3.264   1.598  16.129  0.4065  0.0490 -0.0816
 8019TIP3   OH245547   3.031   1.409   2.661 -0.4775 -0.6473  0.6744
 8019TIP3    H145548   3.065   1.423   2.572  1.7400  2.5219  1.8876
 8019TIP3    H245549   3.014   1.315   2.666  1.9344 -1.3393 -2.2425
 8020TIP3   OH245550   4.963   3.846   2.563 -1.1045  0.1443 -0.2082
 8020TIP3    H145551   5.049   3.876   2.536 -1.0439  1.5806  1.4919
 8020TIP3    H245552   4.913   3.840   2.481  0.2374  0.4252 -1.0673
 8021TIP3   OH245553   4.512   0.669   2.499  0.5225  0.0749 -0.4053
 8021TIP3    H145554   4.460   0.593   2.473  0.4981 -0.9010  2.3384
 8021TIP3    H245555   4.483   0.739   2.440 -1.5877 -1.2890 -1.0341
 8022TIP3   OH245556   2.452   4.826  13.438  0.1546 -0.1434  0.1699
 8022TIP3    H145557   2.384   4.893  13.428  0.1549  0.0227  1.2064
 8022TIP3    H245558   2.458   4.785  13.352 -1.2860 -0.1850  0.0742
 8023TIP3   OH245559   3.255   6.157  13.841  0.1966 -0.0540 -0.4435
 8023TIP3    H145560   3.298   6.100  13.905  0.3362 -1.3921 -1.6919
 8023TIP3    H245561   3.162   6.136  13.849 -0.0309  1.3698  0.8374
 8024TIP3   OH245562   5.072   4.044   3.152  0.0567 -0.0461 -0.0038
 8024TIP3    H145563   5.034   3.975   3.098  1.5678 -0.6685 -0.2824
 8024TIP3    H245564   5.000   4.072   3.209 -1.4721  0.4478 -2.1402
 8025TIP3   OH245565   2.836   2.606  13.035 -0.7175  0.3708 -0.5333
 8025TIP3    H145566   2.927   2.584  13.013 -0.0709  3.3967 -1.0496
 8025TIP3    H245567   2.790   2.606  12.951 -1.3026 -1.4454 -0.2397
 8026TIP3   OH245568   5.783   3.449  13.739 -0.4553  0.1389 -0.0184
 8026TIP3    H145569   5.763   3.358  13.716 -1.2210 -0.2656  2.1328
 8026TIP3    H245570   5.825   3.484  13.661 -1.2383 -1.7113 -1.3240
 8027TIP3   OH245571   1.677   3.755  14.387 -0.4969 -0.2740  0.2424
 8027TIP3    H145572   1.769   3.769  14.409 -0.8056  2.7844 -0.2099
 8027TIP3    H245573   1.638   3.843  14.385 -3.2835 -1.4379 -0.2327
 8028TIP3   OH245574   3.787   3.002   5.292 -0.0596 -0.5181  0.2491
 8028TIP3    H145575   3.807   2.914   5.259 -1.0831 -0.4084 -0.6799
 8028TIP3    H245576   3.855   3.018   5.358  0.0621 -2.0521  0.5302
 8029TIP3   OH245577   1.269   5.885  12.749  0.3686 -0.1157  0.4014
 8029TIP3    H145578   1.302   5.945  12.816  0.8925 -1.3403  1.2675
 8029TIP3    H245579   1.175   5.904  12.744  0.3688  0.1827  1.2921
 8030TIP3   OH245580   5.014   4.622   0.674  0.5523 -0.2092 -0.4969
 8030TIP3    H145581   5.028   4.534   0.640 -1.2296  0.1204 -2.1618
 8030TIP3    H245582   5.101   4.663   0.671  0.7731 -0.8240 -2.8454
 8031TIP3   OH245583   1.347   5.198   2.551 -0.6716  0.3585 -0.0259
 8031TIP3    H145584   1.430   5.159   2.578 -2.1312 -1.6249  1.7587
 8031TIP3    H245585   1.351   5.200   2.455  1.3441  0.1359  0.0467
 8032TIP3   OH245586   1.118   2.181   5.668  0.2545  0.3282  0.0164
 8032TIP3    H145587   1.095   2.260   5.716  0.1240 -0.4360  1.2464
 8032TIP3    H245588   1.117   2.112   5.734  1.8880 -0.4447 -0.7336
 8033TIP3   OH245589   2.345   2.391  14.314 -0.1820 -0.3887 -0.1752
 8033TIP3    H145590   2.267   2.335  14.313 -0.7469  0.3686  0.6347
 8033TIP3    H245591   2.312   2.477  14.288  0.5749 -0.2908 -0.8265
 8034TIP3   OH245592   6.008   0.933   4.394  0.0759  0.3831 -0.1654
 8034TIP3    H145593   6.074   0.906   4.458 -0.1670  0.6603  0.2047
 8034TIP3    H245594   5.927   0.937   4.444 -0.4449 -1.0547 -0.8757
 8035TIP3   OH245595   4.204   3.757   3.394 -0.2173  0.5707 -0.0648
 8035TIP3    H145596   4.235   3.816   3.462 -0.7931  1.1501 -0.2969
 8035TIP3    H245597   4.120   3.725   3.426 -1.6771  2.7018 -1.5169
 8036TIP3   OH245598   4.242   1.023   3.049  0.3048  0.6514 -0.3180
 8036TIP3    H145599   4.304   1.024   3.122 -0.0088  1.7684 -0.0574
 8036TIP3    H245600   4.173   0.963   3.077  0.1097  1.1939  0.3717
 8037TIP3   OH245601   3.762   0.088  16.645 -0.2465  0.5553 -0.1500
 8037TIP3    H145602   3.808   0.021  16.594 -0.9276  0.2263 -0.3420
 8037TIP3    H245603   3.809   0.091  16.728  0.5585  0.7378 -0.6094
 8038TIP3   OH245604   6.036   6.631   0.071 -0.0353  0.2794 -0.3145
 8038TIP3    H145605   6.069   6.542   0.086 -2.1697 -0.6860 -1.1293
 8038TIP3    H245606   6.046   6.644  -0.023  0.6962  1.1058 -0.1311
 8039TIP3   OH245607   3.914   3.610   5.742 -0.4246 -0.2257 -0.7593
 8039TIP3    H145608   3.937   3.643   5.829  2.4065 -3.0211 -0.3439
 8039TIP3    H245609   3.905   3.689   5.688 -1.2046  1.5081  1.8028
 8040TIP3   OH245610   6.705   2.588   5.223 -0.2212 -0.1015 -0.2676
 8040TIP3    H145611   6.690   2.649   5.296 -1.5461 -0.3790 -0.2913
 8040TIP3    H245612   6.785   2.620   5.181 -1.4159  2.2371 -0.8908
 8041TIP3   OH245613   0.292   0.302  15.319  0.4752  0.3103 -0.2517
 8041TIP3    H145614   0.384   0.309  15.293  0.7146  1.9255  0.9945
 8041TIP3    H245615   0.243   0.331  15.242  0.9812 -0.8113 -1.0132
 8042TIP3   OH245616   4.145   6.030   0.098 -0.0032 -0.0647  0.1149
 8042TIP3    H145617   4.189   6.091   0.156  1.3944 -1.1208  0.1845
 8042TIP3    H245618   4.207   6.016   0.026 -0.1820 -1.6167  0.2452
 8043TIP3   OH245619   3.095   3.644  14.470  0.4297  0.5323 -0.2009
 8043TIP3    H145620   3.109   3.729  14.430 -0.7469  0.8582  0.0672
 8043TIP3    H245621   3.025   3.658  14.533 -0.3289 -0.8134 -0.7198
 8044TIP3   OH245622   3.035   1.870   3.576  0.5050  0.3551  0.6098
 8044TIP3    H145623   2.967   1.884   3.511 -0.2837 -1.9223  0.8930
 8044TIP3    H245624   3.116   1.868   3.525  0.1172  0.6600 -0.0319
 8045TIP3   OH245625   3.182   0.531  11.939  0.2641 -0.1008 -0.2245
 8045TIP3    H145626   3.099   0.519  11.986  0.1312 -0.0746 -0.4493
 8045TIP3    H245627   3.192   0.451  11.887  1.0799 -0.7140  0.8606
 8046TIP3   OH245628   6.665   3.714   1.271  0.0189 -0.3607 -0.0682
 8046TIP3    H145629   6.754   3.707   1.306  0.3516 -1.5520 -1.1143
 8046TIP3    H245630   6.677   3.729   1.177 -0.8606 -3.3386 -0.7173
 8047TIP3   OH245631   3.153   5.508   4.030  0.5850  0.2501 -0.6638
 8047TIP3    H145632   3.168   5.416   4.053 -0.1850  0.5969  1.3488
 8047TIP3    H245633   3.236   5.538   3.994  1.4504 -0.6862  0.5349
 8048TIP3   OH245634   6.438   2.041   3.162  0.2805  0.0281 -0.2428
 8048TIP3    H145635   6.395   2.066   3.080 -0.3741  0.4413  0.2238
 8048TIP3    H245636   6.468   2.124   3.198 -0.5831 -0.0127  0.5812
 8049TIP3   OH245637   5.026   4.129   1.726 -0.2856  0.1946  0.1770
 8049TIP3    H145638   5.056   4.046   1.764 -0.9906 -0.0878  0.1294
 8049TIP3    H245639   5.101   4.187   1.732  0.9549 -1.1194 -1.8314
 8050TIP3   OH245640   4.888   0.909  13.366 -0.6813 -0.3740 -0.2695
 8050TIP3    H145641   4.879   0.821  13.402 -0.7305 -0.4847 -0.5487
 8050TIP3    H245642   4.958   0.901  13.301  0.0408  0.0273  0.4510
 8051TIP3   OH245643   2.466   2.048   2.383 -0.7129  0.6131  0.0594
 8051TIP3    H145644   2.373   2.062   2.398 -0.9028 -0.5742  0.0603
 8051TIP3    H245645   2.509   2.126   2.419 -1.7758  1.6826 -0.9359
 8052TIP3   OH245646   3.510   2.489  16.284 -0.3466 -0.8804 -0.0022
 8052TIP3    H145647   3.432   2.478  16.230  0.1659 -0.1815 -0.8889
 8052TIP3    H245648   3.528   2.583  16.283  0.8720 -1.1132 -0.3126
 8053TIP3   OH245649   0.540   2.329  12.344  1.0455  0.0498 -0.5400
 8053TIP3    H145650   0.604   2.293  12.283  0.3635 -1.8850 -0.1501
 8053TIP3    H245651   0.472   2.262  12.351  0.9355  0.3673  2.0715
 8054TIP3   OH245652   6.518   1.032  12.150  0.2445 -0.1153  0.3994
 8054TIP3    H145653   6.502   1.126  12.141  1.4064  0.1581  1.1220
 8054TIP3    H245654   6.532   1.001  12.060 -1.6427  0.1052 -0.0003
 8055TIP3   OH245655   1.729   2.366  16.076  0.0568  0.8885 -0.1135
 8055TIP3    H145656   1.725   2.271  16.062 -1.9430  0.6839  1.7109
 8055TIP3    H245657   1.781   2.377  16.155 -2.9378  1.0245  1.9423
 8056TIP3   OH245658   4.779   4.656  14.869 -0.0900  0.4270  0.7468
 8056TIP3    H145659   4.711   4.720  14.848  0.2569  0.6134  0.1984
 8056TIP3    H245660   4.849   4.708  14.909  0.0376  0.3418  0.6340
 8057TIP3   OH245661   3.692   3.654   4.090 -0.3214  0.2389 -0.2931
 8057TIP3    H145662   3.718   3.585   4.151 -0.1920 -0.3165 -0.9592
 8057TIP3    H245663   3.597   3.646   4.083 -0.3568  0.4359 -0.0021
 8058TIP3   OH245664   6.196   2.419  16.110 -0.2446 -0.0279 -0.1284
 8058TIP3    H145665   6.158   2.438  16.196  0.5049  1.6356 -0.1507
 8058TIP3    H245666   6.141   2.466  16.048  0.6881  0.8043 -0.3329
 8059TIP3   OH245667   2.620   2.785   0.779  0.4147  0.1558 -0.1414
 8059TIP3    H145668   2.602   2.739   0.861 -0.4966 -0.2409 -0.5648
 8059TIP3    H245669   2.544   2.841   0.764  1.7863  2.2961  0.6857
 8060TIP3   OH245670   1.429   4.183  14.593  0.4008 -0.4444  0.2937
 8060TIP3    H145671   1.478   4.265  14.604  0.7846 -0.5629 -0.5038
 8060TIP3    H245672   1.339   4.212  14.575  0.7507 -0.1582 -1.0947
 8061TIP3   OH245673   5.922   0.776  13.410  0.0541  0.1910  1.2028
 8061TIP3    H145674   5.957   0.831  13.340  0.6355  0.8641  2.0086
 8061TIP3    H245675   5.951   0.819  13.491  1.6717 -2.0384  1.8369
 8062TIP3   OH245676   3.446   3.076  15.634  0.2052  0.0722 -0.1658
 8062TIP3    H145677   3.506   3.150  15.624  1.5692 -0.8552  1.0479
 8062TIP3    H245678   3.467   3.018  15.561 -0.6387  0.6879 -0.9235
 8063TIP3   OH245679   6.536   3.343  15.248 -0.0466  0.0253 -0.2614
 8063TIP3    H145680   6.564   3.263  15.203 -0.9350  0.1383 -1.0359
 8063TIP3    H245681   6.475   3.312  15.315  0.9155 -0.1004  0.5580
 8064TIP3   OH245682   6.550   4.988   6.094  0.1047 -0.7921  0.2762
 8064TIP3    H145683   6.477   4.935   6.126  0.7602 -1.3069  0.9493
 8064TIP3    H245684   6.621   4.971   6.156  0.0412  1.6447  1.0568
 8065TIP3   OH245685   1.593   4.658   2.415  0.2187  0.0084 -0.5855
 8065TIP3    H145686   1.504   4.621   2.417  0.5205 -0.8379 -1.6626
 8065TIP3    H245687   1.621   4.659   2.506 -1.3609  1.4336 -0.1078
 8066TIP3   OH245688   0.685   2.855   3.103 -0.4608  0.2432  0.1176
 8066TIP3    H145689   0.658   2.935   3.149  1.2279  0.2338  1.1872
 8066TIP3    H245690   0.774   2.873   3.075 -0.5162 -0.8094 -0.7539
 8067TIP3   OH245691   4.677   1.094   2.932 -0.2077 -0.4962  0.7107
 8067TIP3    H145692   4.618   1.042   2.876  0.2790  0.9538 -1.1811
 8067TIP3    H245693   4.700   1.034   3.003 -0.1038 -2.7099 -1.1199
 8068TIP3   OH245694   2.719   0.731  15.657 -0.0574  0.7923  0.1477
 8068TIP3    H145695   2.687   0.770  15.738 -1.5962  2.4385 -1.2183
 8068TIP3    H245696   2.650   0.746  15.593 -0.9215 -4.4845 -0.4498
 8069TIP3   OH245697   3.902   1.861   4.379 -0.4071 -0.7752 -0.0965
 8069TIP3    H145698   3.821   1.812   4.392 -1.4753  0.7249 -0.9983
 8069TIP3    H245699   3.880   1.951   4.402  0.6577 -0.1206 -1.5310
 8070TIP3   OH245700   2.584   1.506  16.710 -0.5851  0.0197  0.1901
 8070TIP3    H145701   2.635   1.455  16.774 -2.0649 -0.1888  1.2400
 8070TIP3    H245702   2.547   1.578  16.762 -1.3703  0.1500 -0.5487
 8071TIP3   OH245703   2.720   5.147   2.425  0.2442 -0.5569 -0.4830
 8071TIP3    H145704   2.663   5.146   2.349 -0.7757 -0.4083  0.2736
 8071TIP3    H245705   2.719   5.238   2.455  2.2550 -0.1723 -1.4793
 8072TIP3   OH245706   2.894   4.380   4.950  0.3951 -0.3926  0.0878
 8072TIP3    H145707   2.881   4.293   4.912 -0.3904  0.3200 -1.2972
 8072TIP3    H245708   2.812   4.426   4.933  1.2873  1.0555 -0.3625
 8073TIP3   OH245709   2.750   0.958   1.551  0.2681 -0.3742 -0.1224
 8073TIP3    H145710   2.752   0.881   1.607  3.2327  0.6588  1.3317
 8073TIP3    H245711   2.800   0.933   1.473  1.7318  0.1954  0.6026
 8074TIP3   OH245712   4.323   6.714   0.374  0.1717  0.0869 -0.5773
 8074TIP3    H145713   4.278   6.798   0.380  1.2077  0.6313 -0.2775
 8074TIP3    H245714   4.297   6.666   0.452 -2.2066 -0.7810 -1.8475
 8075TIP3   OH245715   2.809   2.513   3.369 -0.1340 -0.3632 -0.6236
 8075TIP3    H145716   2.821   2.506   3.274  2.5977 -0.1131 -0.3346
 8075TIP3    H245717   2.788   2.605   3.384  0.8405 -0.0973 -0.8611
 8076TIP3   OH245718   5.849   0.106  10.927  0.5933 -0.6356  0.3992
 8076TIP3    H145719   5.925   0.155  10.894  0.0639 -0.2023 -0.1852
 8076TIP3    H245720   5.885   0.048  10.993  1.6572 -1.3793 -0.8119
 8077TIP3   OH245721   2.657   2.903   2.041  0.1689  0.3832  0.4159
 8077TIP3    H145722   2.644   2.931   2.131  1.6225  0.6987  0.5389
 8077TIP3    H245723   2.613   2.817   2.036 -1.2411  1.0495  0.9845
 8078TIP3   OH245724   4.456   1.170   6.318  0.2889  0.4415 -0.1734
 8078TIP3    H145725   4.516   1.101   6.346  3.8322  3.2541 -0.5052
 8078TIP3    H245726   4.410   1.132   6.243  0.4257 -2.3225  1.0479
 8079TIP3   OH245727   4.609   1.538  14.653 -0.8062 -0.0697  0.3279
 8079TIP3    H145728   4.690   1.488  14.644 -1.6925 -1.4302 -0.1718
 8079TIP3    H245729   4.601   1.553  14.748  0.5496  0.9733  0.2987
 8080TIP3   OH245730   1.711   0.618   4.064 -0.0249  0.1339  0.3899
 8080TIP3    H145731   1.772   0.689   4.044 -0.8924  0.4187 -1.3438
 8080TIP3    H245732   1.626   0.650   4.035 -1.5129  0.6876  4.9291
 8081TIP3   OH245733   3.821   3.625  15.846  0.6967  0.0997 -0.1004
 8081TIP3    H145734   3.736   3.587  15.871  0.1085  0.8574 -0.8956
 8081TIP3    H245735   3.883   3.553  15.853  0.1002 -0.3060  1.1168
 8082TIP3   OH245736   4.875   5.581  11.075 -0.2480  0.3018  0.0398
 8082TIP3    H145737   4.845   5.639  11.006  2.1638  0.5368 -0.8569
 8082TIP3    H245738   4.883   5.495  11.034  0.8361  0.3650  0.0877
 8083TIP3   OH245739   2.299   4.075  14.143 -0.1253 -0.4662 -0.1139
 8083TIP3    H145740   2.344   4.073  14.228 -1.9335  1.5326  0.9643
 8083TIP3    H245741   2.215   4.033  14.160  0.0355 -1.2510 -1.2609
 8084TIP3   OH245742   1.045   5.733   4.202  0.1358  0.8620  0.9456
 8084TIP3    H145743   0.956   5.720   4.235  0.2380  2.8833  2.0655
 8084TIP3    H245744   1.098   5.671   4.252 -0.9054 -1.8708 -1.2068
 8085TIP3   OH245745   0.157   4.721  11.841  0.1200  0.4869  0.0638
 8085TIP3    H145746   0.247   4.690  11.845 -0.2199 -0.3831  0.8719
 8085TIP3    H245747   0.161   4.796  11.780  0.9589 -0.9825 -1.7429
 8086TIP3   OH245748   4.421   1.894  16.811  0.8461  0.9232  0.2544
 8086TIP3    H145749   4.487   1.872  16.877 -0.1151  3.0426  1.9937
 8086TIP3    H245750   4.471   1.933  16.739  1.5993  1.5878  1.1232
 8087TIP3   OH245751   2.745   1.351  16.846  0.0930  0.2709  0.2348
 8087TIP3    H145752   2.721   1.305  16.926 -0.7378  0.5411  0.1445
 8087TIP3    H245753   2.811   1.295  16.805 -1.0403 -0.9368  0.0309
 8088TIP3   OH245754   3.613   1.488  11.562 -0.0653  0.1623  0.0336
 8088TIP3    H145755   3.535   1.518  11.609  0.7830  0.0119  1.5528
 8088TIP3    H245756   3.581   1.467  11.474 -1.8529 -0.4642  0.8169
 8089TIP3   OH245757   1.080   0.335   6.023 -0.1321 -0.8489 -0.2465
 8089TIP3    H145758   1.021   0.406   5.996 -0.1217 -0.3342  1.0500
 8089TIP3    H245759   1.071   0.269   5.955 -1.4054 -0.3059 -0.6161
 8090TIP3   OH245760   4.532   3.286  12.261  0.5254 -0.2771 -0.6828
 8090TIP3    H145761   4.570   3.308  12.347 -1.4385  0.4744  0.0108
 8090TIP3    H245762   4.602   3.238  12.216  1.1587 -1.7973  1.8196
 8091TIP3   OH245763   3.383   3.534   0.314 -0.2235 -0.0873  0.3302
 8091TIP3    H145764   3.312   3.558   0.254 -2.3101  0.8380  3.0412
 8091TIP3    H245765   3.369   3.440   0.329 -2.3435  0.5134  2.5574
 8092TIP3   OH245766   6.268   1.628   4.854 -0.5073 -0.4489 -0.4184
 8092TIP3    H145767   6.237   1.576   4.928  0.0810  0.7679  0.7053
 8092TIP3    H245768   6.337   1.575   4.815 -0.2942 -0.7607  0.3736
 8093TIP3   OH245769   4.498   6.225   2.282 -0.0817  0.0769 -0.4304
 8093TIP3    H145770   4.456   6.212   2.367 -0.2605  1.2858 -0.3266
 8093TIP3    H245771   4.461   6.307   2.249  2.3645  1.3401 -0.2032
 8094TIP3   OH245772   5.346   0.340  10.528  0.1771 -0.0250 -0.1043
 8094TIP3    H145773   5.341   0.349  10.433  0.4385  1.1235 -0.0270
 8094TIP3    H245774   5.256   0.354  10.558  0.3442  1.0647 -0.0884
 8095TIP3   OH245775   1.043   5.974   0.793 -0.3128  0.0129  0.0261
 8095TIP3    H145776   1.062   6.056   0.840 -2.6418  1.3606 -1.2924
 8095TIP3    H245777   1.125   5.954   0.747  0.1707  1.8447  0.0204
 8096TIP3   OH245778   3.236   2.075   2.747  0.0418  0.2412  0.1236
 8096TIP3    H145779   3.146   2.095   2.771 -0.1871 -1.5129  0.8009
 8096TIP3    H245780   3.272   2.031   2.824  1.6220  1.3154  0.0294
 8097TIP3   OH245781   2.831   2.921   5.311  0.2239 -0.7029  0.0338
 8097TIP3    H145782   2.788   2.895   5.229 -0.7148 -3.8413  1.4573
 8097TIP3    H245783   2.775   2.886   5.380  0.6236  2.4984  2.0917
 8098TIP3   OH245784   0.547   3.397   0.511  0.7664 -0.8026 -0.5639
 8098TIP3    H145785   0.500   3.314   0.512  1.0622 -0.9867 -1.4920
 8098TIP3    H245786   0.581   3.404   0.422  0.3758  0.5236 -0.6164
 8099TIP3   OH245787   4.979   2.041  17.272 -0.4601  0.3073 -0.0775
 8099TIP3    H145788   4.982   2.125  17.320  0.1835  1.1402 -1.5304
 8099TIP3    H245789   4.891   2.008  17.286 -0.4390  0.7865  1.2618
 8100TIP3   OH245790   4.440   1.522  11.755  0.5671 -0.3993  0.0160
 8100TIP3    H145791   4.483   1.482  11.830  0.4597  0.7146  0.6793
 8100TIP3    H245792   4.414   1.447  11.700 -0.9746 -1.3380  1.9562
 8101TIP3   OH245793   2.506   2.369   3.187  0.2082  0.1863  0.3010
 8101TIP3    H145794   2.471   2.438   3.244 -0.3936 -0.5272  0.8101
 8101TIP3    H245795   2.579   2.410   3.141 -0.1485  1.1638  0.5980
 8102TIP3   OH245796   4.189   0.843  16.319  0.1870 -0.3345 -0.0963
 8102TIP3    H145797   4.257   0.801  16.267  0.5222 -0.2499  0.2664
 8102TIP3    H245798   4.133   0.771  16.348  1.2487 -0.6588  1.2386
 8103TIP3   OH245799   0.557   4.154   3.592 -0.0796  0.1336 -0.0002
 8103TIP3    H145800   0.472   4.198   3.602  0.1185  0.7608 -1.0667
 8103TIP3    H245801   0.539   4.063   3.618 -1.1934  0.1555 -0.6404
 8104TIP3   OH245802   3.465   1.584   2.417  0.9970  0.0907 -0.2561
 8104TIP3    H145803   3.514   1.546   2.344  3.4571  1.7400  0.4647
 8104TIP3    H245804   3.495   1.675   2.421 -2.6378  1.3535 -0.1693
 8105TIP3   OH245805   6.037   5.769  14.156  0.4075 -0.1540  0.8707
 8105TIP3    H145806   6.070   5.811  14.236  0.6202  0.0038  0.7027
 8105TIP3    H245807   6.103   5.791  14.089 -0.8492  1.5642  0.1383
 8106TIP3   OH245808   6.056   6.300   1.744 -0.5430  0.5496  0.4409
 8106TIP3    H145809   6.131   6.357   1.731  0.1104 -0.6263 -1.1026
 8106TIP3    H245810   6.071   6.259   1.829  0.7286  0.0658 -0.0107
 8107TIP3   OH245811   5.252   1.807  14.547 -0.2459 -0.6521  0.1165
 8107TIP3    H145812   5.235   1.787  14.639 -3.1128 -0.2936 -0.2831
 8107TIP3    H245813   5.338   1.770  14.529  0.0578 -1.2810  2.7695
 8108TIP3   OH245814   5.941   2.986   2.561 -0.1197  0.2244 -0.1939
 8108TIP3    H145815   5.888   2.984   2.640  0.4226  1.7119  0.2324
 8108TIP3    H245816   5.878   2.993   2.489 -0.6540 -1.9992  0.0204
 8109TIP3   OH245817   5.078   4.888   2.060 -0.0169 -0.0564 -0.8492
 8109TIP3    H145818   5.117   4.814   2.106 -0.0487  0.3649 -0.1377
 8109TIP3    H245819   4.984   4.878   2.075  0.1774  1.9614  2.0882
 8110TIP3   OH245820   1.843   2.340  11.332  0.1937  0.5555 -0.1034
 8110TIP3    H145821   1.806   2.429  11.332  1.8092  1.2414 -0.5086
 8110TIP3    H245822   1.872   2.327  11.242 -0.1872 -0.4568 -0.0800
 8111TIP3   OH245823   1.650   1.761  11.500  0.0391  0.2467 -0.0694
 8111TIP3    H145824   1.704   1.705  11.443  0.5852  0.3680  0.3233
 8111TIP3    H245825   1.586   1.702  11.539 -1.5886  0.4814 -2.2926
 8112TIP3   OH245826   4.317   1.806  11.366  0.0429 -0.0055  0.3217
 8112TIP3    H145827   4.380   1.733  11.365  0.7947  0.6287  0.5184
 8112TIP3    H245828   4.258   1.786  11.438  0.8200  0.0525  0.9756
 8113TIP3   OH245829   2.712   2.958  13.172 -0.8763  0.1864 -0.7124
 8113TIP3    H145830   2.782   2.999  13.121 -0.7831  0.2766 -0.5107
 8113TIP3    H245831   2.684   3.025  13.234  0.0113 -0.4030  0.3435
 8114TIP3   OH245832   6.369   1.021  12.700 -0.1073 -0.0101 -0.0203
 8114TIP3    H145833   6.430   0.948  12.716 -1.7944 -1.2229  1.0070
 8114TIP3    H245834   6.392   1.086  12.766  0.1078 -0.4521  0.3453
 8115TIP3   OH245835   2.425   0.014   5.443 -0.0997 -1.0335  0.1075
 8115TIP3    H145836   2.480   0.085   5.476 -0.2513 -0.5086 -0.7580
 8115TIP3    H245837   2.340   0.027   5.486 -0.1450 -0.6505 -0.0932
 8116TIP3   OH245838   1.060   4.523  12.614  0.0190 -0.1272 -0.1275
 8116TIP3    H145839   1.117   4.536  12.689  0.1566  1.1372 -0.4391
 8116TIP3    H245840   1.119   4.522  12.539 -0.3985  1.6927 -0.4983
 8117TIP3   OH245841   1.201   5.110   0.501  0.3533  0.4559 -0.6565
 8117TIP3    H145842   1.235   5.142   0.418 -0.1783  1.4876 -0.4915
 8117TIP3    H245843   1.211   5.184   0.561  0.1523 -0.0669  0.0321
 8118TIP3   OH245844   1.334   5.754   3.090 -0.2434 -0.1937  0.0637
 8118TIP3    H145845   1.370   5.794   3.170 -2.0477  1.0771  0.2569
 8118TIP3    H245846   1.271   5.691   3.122  0.0439 -0.6854 -0.3392
 8119TIP3   OH245847   2.636   3.024   3.813  0.5474  0.0685  0.0578
 8119TIP3    H145848   2.703   3.055   3.874  0.4868  1.6460 -0.6615
 8119TIP3    H245849   2.585   2.961   3.864  0.3594  1.5206  1.7116
 8120TIP3   OH245850   0.239   6.473   2.063  0.3569  0.2186  0.2450
 8120TIP3    H145851   0.156   6.486   2.109  0.7315 -0.7056  1.1947
 8120TIP3    H245852   0.235   6.533   1.988 -1.3423 -0.1178  0.0513
 8121TIP3   OH245853   4.104   1.924   4.832 -0.8780 -0.3137 -0.3748
 8121TIP3    H145854   4.053   1.845   4.816 -0.0968 -1.4007  2.3426
 8121TIP3    H245855   4.189   1.893   4.861 -0.3507  1.5250  0.0993
 8122TIP3   OH245856   6.163   5.934   0.164 -0.1308  0.8666 -0.0642
 8122TIP3    H145857   6.189   5.851   0.205 -1.0831  0.5769 -0.0350
 8122TIP3    H245858   6.179   6.000   0.231  0.2857  0.6618  0.0418
 8123TIP3   OH245859   6.179   0.449   1.874 -0.1700 -0.3692 -0.3170
 8123TIP3    H145860   6.111   0.450   1.941 -0.0869 -1.7328 -0.1935
 8123TIP3    H245861   6.199   0.541   1.858 -0.0586 -0.0284  1.6726
 8124TIP3   OH245862   1.671   0.975  16.030  0.6129 -0.0630 -0.4775
 8124TIP3    H145863   1.756   1.000  16.066 -0.3642  2.4460  0.2261
 8124TIP3    H245864   1.651   1.044  15.966 -1.3048 -0.0801  0.0760
 8125TIP3   OH245865   4.806   1.808  17.291 -0.2477 -0.2392 -0.4788
 8125TIP3    H145866   4.829   1.720  17.260  1.4153  0.6957 -2.0275
 8125TIP3    H245867   4.806   1.800  17.386 -0.5489 -2.0279 -0.5998
 8126TIP3   OH245868   0.399   4.289  15.929 -0.3608 -0.2003 -0.7189
 8126TIP3    H145869   0.419   4.377  15.898  1.3790  0.4591  2.0990
 8126TIP3    H245870   0.482   4.241  15.920 -0.2889 -0.4771  1.0828
 8127TIP3   OH245871   5.253   2.744   2.277 -0.4169 -0.0960  0.0128
 8127TIP3    H145872   5.335   2.736   2.228  1.0041  0.9934  2.1723
 8127TIP3    H245873   5.244   2.838   2.294 -1.9677 -0.2370  0.0799
 8128TIP3   OH245874   3.595   6.591   0.543 -0.2399 -0.6356  0.2796
 8128TIP3    H145875   3.508   6.590   0.584  0.0892  2.2031  1.1493
 8128TIP3    H245876   3.645   6.525   0.592 -1.4787 -1.2487  0.7481
 8129TIP3   OH245877   4.717   6.446   1.183  0.0268  0.2945 -0.5818
 8129TIP3    H145878   4.691   6.403   1.264  1.1839 -0.9489 -0.8541
 8129TIP3    H245879   4.724   6.539   1.207  0.7501 -0.1105  0.8604
 8130TIP3   OH245880   6.436   0.849   1.703 -0.3325 -0.0106  0.4593
 8130TIP3    H145881   6.522   0.817   1.730 -1.0446 -0.4389  2.2765
 8130TIP3    H245882   6.408   0.907   1.774 -1.3330  0.5317 -0.3562
 8131TIP3   OH245883   4.739   3.554   1.225 -0.3640  0.2692 -0.7981
 8131TIP3    H145884   4.700   3.502   1.296 -2.9705 -0.5961 -2.7712
 8131TIP3    H245885   4.668   3.610   1.195  0.5216  0.1871 -3.1221
 8132TIP3   OH245886   3.123   5.760  14.680  0.2955 -0.1211  0.3433
 8132TIP3    H145887   3.143   5.851  14.702 -0.1168 -0.3305  1.6895
 8132TIP3    H245888   3.199   5.711  14.712  0.4009 -0.2715 -0.1421
 8133TIP3   OH245889   0.395   0.319  10.698  0.6572  0.1310 -0.5861
 8133TIP3    H145890   0.487   0.320  10.724  0.6447 -2.8595 -0.2472
 8133TIP3    H245891   0.395   0.277  10.612 -0.5308 -1.6292  0.2346
 8134TIP3   OH245892   4.135   1.623  15.569 -0.1635 -0.4278 -0.2942
 8134TIP3    H145893   4.213   1.637  15.515 -1.1416  0.7463 -1.4428
 8134TIP3    H245894   4.076   1.573  15.512 -0.1826 -1.4529  0.6239
 8135TIP3   OH245895   0.543   2.708   1.819 -0.1069 -0.0129 -0.5148
 8135TIP3    H145896   0.461   2.688   1.773 -0.4819  0.7228 -0.1770
 8135TIP3    H245897   0.591   2.764   1.758 -0.8617  1.4520  0.2163
 8136TIP3   OH245898   1.129   5.233   0.267 -0.5238 -0.5160 -0.0203
 8136TIP3    H145899   1.104   5.295   0.335  0.9436  0.1048 -0.0207
 8136TIP3    H245900   1.051   5.179   0.253 -2.0423  1.7726 -0.5171
 8137TIP3   OH245901   6.189   2.628   1.424 -0.3097 -0.6001 -0.0895
 8137TIP3    H145902   6.209   2.685   1.498 -1.8614  3.8391 -2.8745
 8137TIP3    H245903   6.268   2.629   1.370 -0.8411  0.0744 -0.8569
 8138TIP3   OH245904   6.451   5.797   2.459  0.5947 -0.4749 -0.2198
 8138TIP3    H145905   6.430   5.765   2.371  0.4214 -0.6583 -0.1109
 8138TIP3    H245906   6.517   5.865   2.444 -0.5122  0.5289 -0.6081
 8139TIP3   OH245907   2.365   3.416   1.409  0.4419  0.3908 -0.0673
 8139TIP3    H145908   2.419   3.382   1.480 -0.5502 -1.9194 -0.3583
 8139TIP3    H245909   2.317   3.489   1.448  3.2900  2.0955  0.3345
 8140TIP3   OH245910   2.605   4.910   5.985 -0.5309  0.0392 -0.3292
 8140TIP3    H145911   2.677   4.917   5.922 -0.2813 -1.3769 -0.2154
 8140TIP3    H245912   2.610   4.820   6.017 -3.1427 -0.4828 -1.2645
 8141TIP3   OH245913   4.922   0.142   5.672 -0.5087  0.0221  0.2759
 8141TIP3    H145914   4.957   0.068   5.723  0.9158  1.9858  2.2160
 8141TIP3    H245915   4.828   0.142   5.692 -0.7102 -1.8066 -0.4934
 8142TIP3   OH245916   6.276   2.724  14.960  0.0593  0.1609  0.9324
 8142TIP3    H145917   6.284   2.720  14.865 -1.3437  0.9101  0.7712
 8142TIP3    H245918   6.295   2.816  14.982 -3.1825  0.8710  0.9849
 8143TIP3   OH245919   6.034   3.625  12.762 -0.0967 -0.0958  0.1225
 8143TIP3    H145920   6.094   3.692  12.729  0.1370  0.1060  0.9458
 8143TIP3    H245921   6.071   3.543  12.731 -1.2576  0.2405 -2.2688
 8144TIP3   OH245922   5.856   3.322  16.371 -0.0440 -0.2206 -0.5537
 8144TIP3    H145923   5.932   3.331  16.313  0.4322  1.8085  0.3269
 8144TIP3    H245924   5.891   3.279  16.449  0.5420  1.8521  0.3760
 8145TIP3   OH245925   1.614   3.373   4.265 -0.4396 -0.0715  0.1809
 8145TIP3    H145926   1.520   3.357   4.279 -0.7583 -0.5373 -2.2557
 8145TIP3    H245927   1.641   3.424   4.341 -3.1024  1.7539 -0.0198
 8146TIP3   OH245928   4.434   6.297   1.970 -0.2145 -0.0403  1.2288
 8146TIP3    H145929   4.488   6.366   2.008 -0.0441  0.7242 -0.3649
 8146TIP3    H245930   4.493   6.221   1.963  0.4247  0.5280  0.3208
 8147TIP3   OH245931   3.890   6.228  14.532 -0.1027 -0.0892  0.4875
 8147TIP3    H145932   3.799   6.206  14.512 -0.3223  0.1656  1.2035
 8147TIP3    H245933   3.917   6.163  14.597  0.5982 -0.8923 -0.5986
 8148TIP3   OH245934   5.481   2.708  12.759  0.2348 -0.3401  0.1281
 8148TIP3    H145935   5.481   2.782  12.698  1.0935 -1.0983 -0.8176
 8148TIP3    H245936   5.544   2.732  12.826 -0.4931  0.3690  0.5767
 8149TIP3   OH245937   4.955   3.154  10.501 -0.2590  0.4996 -0.5201
 8149TIP3    H145938   4.935   3.179  10.591 -2.1131  0.1961 -0.8405
 8149TIP3    H245939   4.945   3.235  10.451 -3.9495 -0.3004 -1.1824
 8150TIP3   OH245940   1.895   3.012  12.068 -0.3433  0.2813  0.3063
 8150TIP3    H145941   1.912   3.010  12.162 -2.0820  0.2400  0.6396
 8150TIP3    H245942   1.976   3.046  12.029  0.7752 -0.7440  1.7135
 8151TIP3   OH245943   3.008   6.627   4.812 -0.1431 -0.0815  0.0840
 8151TIP3    H145944   2.928   6.612   4.761  0.0228 -1.2375  0.1565
 8151TIP3    H245945   2.988   6.591   4.899  0.5193 -0.5535  0.0475
 8152TIP3   OH245946   1.037   6.819  12.266  0.1813  0.4929 -0.4188
 8152TIP3    H145947   1.122   6.839  12.304 -0.6166 -0.0339  1.7027
 8152TIP3    H245948   0.985   6.898  12.279 -0.2824  0.0997  0.1559
 8153TIP3   OH245949   3.706   2.067  15.663 -0.3611 -0.7885  0.0243
 8153TIP3    H145950   3.717   2.109  15.578  0.6285 -1.5546 -0.2222
 8153TIP3    H245951   3.788   2.020  15.678  0.3748  1.1096  2.3760
 8154TIP3   OH245952   4.924   2.901  12.145 -0.4561  0.0849  0.0562
 8154TIP3    H145953   4.890   2.851  12.220 -1.8358 -0.0958 -0.6559
 8154TIP3    H245954   4.988   2.843  12.104  0.7368  0.4199  1.4301
 8155TIP3   OH245955   2.847   6.467  13.596  0.0430 -0.0274 -1.2167
 8155TIP3    H145956   2.917   6.419  13.640 -0.1463  0.1759 -0.6929
 8155TIP3    H245957   2.891   6.514  13.525  0.4042 -0.0778 -1.0261
 8156TIP3   OH245958   1.851   1.941  14.414 -0.5326 -0.4150  0.0937
 8156TIP3    H145959   1.900   1.872  14.369 -0.0571 -0.1613  0.2149
 8156TIP3    H245960   1.803   1.985  14.344 -1.6364 -1.5161  0.1573
 8157TIP3   OH245961   3.501   3.293   4.818 -0.4509  0.0870 -0.2926
 8157TIP3    H145962   3.466   3.303   4.729  0.2407 -3.3562 -1.0062
 8157TIP3    H245963   3.440   3.233   4.861  1.7761 -1.9451  0.0803
 8158TIP3   OH245964   5.185   5.506  14.963  0.2836 -0.5925 -0.1692
 8158TIP3    H145965   5.226   5.486  15.047  1.3835 -0.0700 -0.5599
 8158TIP3    H245966   5.246   5.469  14.898 -0.1931 -0.3565 -0.7528
 8159TIP3   OH245967   1.306   6.697  11.355 -0.1132  0.3673  0.7498
 8159TIP3    H145968   1.372   6.628  11.356 -0.2047  0.2480 -0.5803
 8159TIP3    H245969   1.241   6.669  11.419  0.1004 -0.5256  0.5770
 8160TIP3   OH245970   0.931   3.512  11.808  0.8710  0.1389 -0.1650
 8160TIP3    H145971   0.956   3.445  11.744  0.2866 -0.5316  0.2952
 8160TIP3    H245972   0.842   3.537  11.783  0.2268 -0.9133  1.0200
 8161TIP3   OH245973   5.967   5.826   1.424  0.0024 -0.1995 -0.0229
 8161TIP3    H145974   5.983   5.863   1.338 -0.1914  0.7075  0.3241
 8161TIP3    H245975   6.019   5.746   1.426 -0.6915 -0.6906 -1.3038
 8162TIP3   OH245976   6.294   1.545  11.318  0.3024  0.1231 -0.1470
 8162TIP3    H145977   6.305   1.630  11.276 -2.2834 -0.5960 -2.4833
 8162TIP3    H245978   6.379   1.502  11.308  1.6700  2.4285  1.1881
 8163TIP3   OH245979   2.309   4.914   3.823  0.2281  0.1349  0.1193
 8163TIP3    H145980   2.214   4.904   3.818  0.2955 -0.4472  0.0101
 8163TIP3    H245981   2.328   4.920   3.917 -0.0698  1.7808  0.0936
 8164TIP3   OH245982   4.224   4.896   0.101 -0.0650 -0.0475  0.0089
 8164TIP3    H145983   4.199   4.933   0.017  1.4529  0.2408 -0.3367
 8164TIP3    H245984   4.217   4.802   0.089  2.5218 -0.1385 -1.2712
 8165TIP3   OH245985   6.462   4.982  13.542  0.2668 -0.3873  0.3837
 8165TIP3    H145986   6.525   5.050  13.568 -0.6492 -1.1484  5.1897
 8165TIP3    H245987   6.379   5.029  13.534  0.3729 -0.2992 -0.1775
 8166TIP3   OH245988   3.149   3.958  15.477 -0.3681 -0.5523 -0.0692
 8166TIP3    H145989   3.230   3.970  15.428 -0.1932  2.0301  0.7517
 8166TIP3    H245990   3.156   3.871  15.515  3.0052  0.4200  1.7162
 8167TIP3   OH245991   2.973   3.646   2.204  0.4470  0.2169 -0.2663
 8167TIP3    H145992   2.904   3.595   2.246 -0.7034  2.6226  0.8537
 8167TIP3    H245993   2.971   3.618   2.112  0.1202 -2.0124  0.4039
 8168TIP3   OH245994   1.783   4.355  12.502 -0.3934 -0.4476  0.1682
 8168TIP3    H145995   1.714   4.383  12.442  0.1191  0.1345 -0.1652
 8168TIP3    H245996   1.743   4.286  12.555 -0.7941 -1.0721 -0.9496
 8169TIP3   OH245997   2.370   1.528   1.795  0.0175  0.3217 -0.1968
 8169TIP3    H145998   2.434   1.475   1.748 -1.6961 -1.2617 -0.8043
 8169TIP3    H245999   2.368   1.611   1.749 -1.9612 -1.3496 -3.2695
 8170TIP3   OH246000   2.053   3.536  15.939 -0.1306  0.2147  0.0462
 8170TIP3    H146001   2.104   3.609  15.974 -1.1119  0.5563  0.7673
 8170TIP3    H246002   2.098   3.458  15.971 -1.3978  0.5106  2.6829
 8171TIP3   OH246003   5.715   6.805   3.347 -0.2243  0.1638  0.4317
 8171TIP3    H146004   5.741   6.835   3.260 -0.2161  0.7781  0.6410
 8171TIP3    H246005   5.794   6.767   3.384 -0.1660  0.1239  0.2678
 8172TIP3   OH246006   3.976   5.345   0.887 -0.1046  0.8115 -0.1265
 8172TIP3    H146007   3.939   5.282   0.825  0.2824  1.3874 -0.9479
 8172TIP3    H246008   3.976   5.298   0.970  0.1168 -0.2585 -0.7072
 8173TIP3   OH246009   2.070   3.087  16.941  0.1338 -0.6763 -0.0891
 8173TIP3    H146010   2.079   3.173  16.984  0.2271 -1.4750  1.5467
 8173TIP3    H246011   2.150   3.077  16.890 -0.0774  0.4010 -0.6576
 8174TIP3   OH246012   4.723   0.783   0.273  0.2347  0.0305 -0.3796
 8174TIP3    H146013   4.790   0.850   0.264  1.3873 -1.0602 -0.0297
 8174TIP3    H246014   4.664   0.797   0.199  1.7445 -0.0319 -1.5982
 8175TIP3   OH246015   5.938   2.445  10.243 -0.1169  0.1654  0.1939
 8175TIP3    H146016   5.929   2.428  10.337 -0.0190 -0.1101  0.1523
 8175TIP3    H246017   6.032   2.440  10.227 -0.2557 -1.1530 -0.1861
 8176TIP3   OH246018   6.314   0.509  13.234  0.3285  0.2980  0.2442
 8176TIP3    H146019   6.314   0.475  13.323  0.2521  2.1898  0.9913
 8176TIP3    H246020   6.356   0.594  13.240 -0.3013  0.7592 -1.3977
 8177TIP3   OH246021   4.127   5.319  12.821 -0.1757 -0.3094 -0.6352
 8177TIP3    H146022   4.083   5.389  12.870  2.3984  0.1823  1.0451
 8177TIP3    H246023   4.178   5.366  12.754  0.2506 -0.6648 -0.5614
 8178TIP3   OH246024   5.681   6.351  12.785  0.2646  0.6480 -0.0409
 8178TIP3    H146025   5.598   6.312  12.810  0.1119  1.6267  1.0372
 8178TIP3    H246026   5.660   6.443  12.767  1.1784  1.0301  0.7463
 8179TIP3   OH246027   1.691   3.081   1.117  1.0995 -0.7891 -0.3168
 8179TIP3    H146028   1.636   3.159   1.117  2.8075  0.4467  0.3075
 8179TIP3    H246029   1.641   3.016   1.166 -0.8909 -0.5085 -1.9071
 8180TIP3   OH246030   2.409   6.788   4.102  0.0946  0.2264  0.3096
 8180TIP3    H146031   2.337   6.725   4.103 -2.1683  2.7231  1.1639
 8180TIP3    H246032   2.457   6.768   4.021  0.1034 -3.2231  1.0629
 8181TIP3   OH246033   4.446   4.006   6.490  0.5363  0.2743  0.2017
 8181TIP3    H146034   4.353   4.022   6.505  0.1978 -2.6380  1.5652
 8181TIP3    H246035   4.478   4.086   6.447 -2.8692  0.7769 -1.5632
 8182TIP3   OH246036   1.901   5.566  11.988  0.1770  0.0049 -0.5407
 8182TIP3    H146037   1.837   5.531  11.927  2.2236 -0.2921 -2.5751
 8182TIP3    H246038   1.864   5.547  12.075 -2.8261  0.5763 -1.6374
 8183TIP3   OH246039   6.136   6.565   2.314  0.0553  0.3363  0.1698
 8183TIP3    H146040   6.058   6.606   2.353  0.5943  0.6366  0.9344
 8183TIP3    H246041   6.166   6.504   2.381 -0.3835 -0.8792 -0.7154
 8184TIP3   OH246042   5.959   1.603   4.848  0.6213  0.3040 -0.1191
 8184TIP3    H146043   5.948   1.648   4.931 -0.5319  0.8655 -0.5662
 8184TIP3    H246044   6.040   1.553   4.858 -0.3682 -0.9343  1.9193
 8185TIP3   OH246045   5.738   0.652   2.212  0.0209  0.6987  0.6912
 8185TIP3    H146046   5.707   0.572   2.169  0.9718  1.3668 -1.2869
 8185TIP3    H246047   5.832   0.636   2.227 -0.1276  0.8054  1.7757
 8186TIP3   OH246048   5.892   6.655   2.423  0.3196 -0.3193 -0.6656
 8186TIP3    H146049   5.887   6.725   2.487  2.1006 -1.5230  0.8420
 8186TIP3    H246050   5.819   6.597   2.444  0.9472 -0.7546  0.3587
 8187TIP3   OH246051   2.592   2.372  15.111 -0.5077  0.1452 -0.0672
 8187TIP3    H146052   2.594   2.424  15.031 -0.3416  1.0385  0.5109
 8187TIP3    H246053   2.654   2.416  15.169 -1.1361 -0.1048  0.7945
 8188TIP3   OH246054   5.274   1.069  13.952  0.1872  0.1809 -0.1432
 8188TIP3    H146055   5.317   1.114  14.025  0.0423 -1.3587  0.9180
 8188TIP3    H246056   5.233   0.992  13.992 -0.7938 -0.1169 -1.6806
 8189TIP3   OH246057   2.587   2.393  13.029 -0.1711 -0.2482  0.3080
 8189TIP3    H146058   2.521   2.354  12.972 -0.3710 -0.1789  0.4911
 8189TIP3    H246059   2.553   2.480  13.049  0.8021  0.4602 -1.0036
 8190TIP3   OH246060   3.446   5.436  11.494  0.2789  0.1548 -0.1952
 8190TIP3    H146061   3.367   5.419  11.442 -0.0338  0.8001  0.0638
 8190TIP3    H246062   3.514   5.383  11.452 -0.1366  0.1180 -0.8328
 8191TIP3   OH246063   4.162   0.704  13.315 -1.2835 -0.0423 -0.1996
 8191TIP3    H146064   4.120   0.630  13.359 -1.8760 -2.0238 -3.8474
 8191TIP3    H246065   4.098   0.735  13.252  0.6209  0.6152 -1.8818
 8192TIP3   OH246066   2.745   4.130  11.746  0.5124  0.0119 -0.0309
 8192TIP3    H146067   2.817   4.176  11.789  0.3062  0.4765 -0.1797
 8192TIP3    H246068   2.769   4.129  11.653  0.5455 -0.2398 -0.0211
 8193TIP3   OH246069   4.462   3.787  14.696  0.4349  0.0222 -0.6385
 8193TIP3    H146070   4.399   3.756  14.761 -0.4920 -0.6209 -1.8018
 8193TIP3    H246071   4.435   3.877  14.678  1.4188  0.5984  0.7124
 8194TIP3   OH246072   2.609   2.383   2.075  0.2070 -0.0448  0.0214
 8194TIP3    H146073   2.656   2.401   2.157  0.1026 -2.0277  0.5464
 8194TIP3    H246074   2.560   2.302   2.093  0.0308 -0.3975 -1.9420
 8195TIP3   OH246075   2.650   1.451  14.521  0.6225  0.3540 -0.0455
 8195TIP3    H146076   2.657   1.457  14.616  1.5370 -0.0400 -0.0894
 8195TIP3    H246077   2.737   1.473  14.489  1.0086 -1.9961 -0.6887
 8196TIP3   OH246078   3.501   6.287  13.749 -0.1799  0.3937  0.3832
 8196TIP3    H146079   3.562   6.261  13.819  2.3218 -0.8608 -2.1541
 8196TIP3    H246080   3.417   6.248  13.775  0.4614  0.7360  3.1239
 8197TIP3   OH246081   5.099   2.901  15.053 -0.6203  0.3674  0.0515
 8197TIP3    H146082   5.130   2.922  14.964  0.0558 -0.8243 -0.0014
 8197TIP3    H246083   5.065   2.812  15.047  1.5466 -0.6189  1.4761
 8198TIP3   OH246084   1.860   2.582   6.171  0.2236  0.2505 -0.3953
 8198TIP3    H146085   1.803   2.656   6.151  0.5973  0.3277 -1.1992
 8198TIP3    H246086   1.806   2.505   6.160 -0.6167  0.4451  1.9714
 8199TIP3   OH246087   5.461   5.757   3.297 -0.3290  0.0288  0.0406
 8199TIP3    H146088   5.397   5.764   3.369  0.0429  0.0492  0.3702
 8199TIP3    H246089   5.485   5.848   3.278  1.0841 -0.0609  1.2554
 8200TIP3   OH246090   0.843   0.768   3.558  0.0969  0.0058  0.3586
 8200TIP3    H146091   0.896   0.831   3.606 -0.0429  1.5653 -1.4511
 8200TIP3    H246092   0.769   0.749   3.616  0.4578  1.0514  1.1626
 8201TIP3   OH246093   1.769   3.828   0.165  0.5073  0.1029  0.3813
 8201TIP3    H146094   1.829   3.895   0.130 -2.4281  2.5725 -0.1746
 8201TIP3    H246095   1.687   3.843   0.117 -0.9772 -2.2422  2.1150
 8202TIP3   OH246096   3.469   2.801  11.450  0.0101 -0.1944  0.4111
 8202TIP3    H146097   3.439   2.736  11.387  0.2938 -0.7964  0.8900
 8202TIP3    H246098   3.555   2.770  11.478  0.7948  1.1716 -0.4509
 8203TIP3   OH246099   0.424   6.756  12.860 -0.0737 -0.4691 -0.0984
 8203TIP3    H146100   0.425   6.852  12.867  0.0470 -0.3254 -1.8001
 8203TIP3    H246101   0.371   6.739  12.782 -0.2930 -1.8089  0.3363
 8204TIP3   OH246102   2.354   0.807   5.225  0.3818  0.2175 -0.4214
 8204TIP3    H146103   2.409   0.864   5.278  0.5508 -0.8021  0.5292
 8204TIP3    H246104   2.411   0.734   5.201 -0.3179 -0.4313 -0.1318
 8205TIP3   OH246105   3.452   4.652   1.524 -0.7552  0.4696 -0.2656
 8205TIP3    H146106   3.448   4.558   1.507  0.4461  0.5081 -0.8276
 8205TIP3    H246107   3.390   4.666   1.596 -0.5470 -0.8320  0.1851
 8206TIP3   OH246108   2.756   4.157  13.382 -0.2448  0.0855 -0.7348
 8206TIP3    H146109   2.834   4.132  13.431 -1.5769 -3.2128 -0.1444
 8206TIP3    H246110   2.723   4.234  13.428  0.8593 -0.4349  1.0010
 8207TIP3   OH246111   2.680   2.703   4.862  0.1353 -0.7305  0.3363
 8207TIP3    H146112   2.733   2.625   4.881 -1.7643 -2.4284 -1.1805
 8207TIP3    H246113   2.602   2.692   4.916 -0.9598 -0.8184 -1.2241
 8208TIP3   OH246114   6.545   3.891   2.959  0.0291  0.1177 -0.1188
 8208TIP3    H146115   6.450   3.893   2.955  0.1361  1.3497 -4.4030
 8208TIP3    H246116   6.569   3.968   3.010 -1.2391 -0.6337  1.6573
 8209TIP3   OH246117   5.264   1.378  11.554  0.2149 -0.7241  0.8365
 8209TIP3    H146118   5.176   1.415  11.545  0.0062 -1.8526 -2.4564
 8209TIP3    H246119   5.312   1.443  11.605 -1.8906  1.0258  0.6589
 8210TIP3   OH246120   0.978   1.853   3.272 -0.4851  0.6278  0.3330
 8210TIP3    H146121   0.959   1.835   3.364 -1.2199  1.3286  0.3243
 8210TIP3    H246122   0.947   1.774   3.226  0.7085 -0.1029  0.7711
 8211TIP3   OH246123   4.920   0.445   5.650 -0.5446 -0.6419 -0.0601
 8211TIP3    H146124   4.840   0.442   5.598 -0.4125 -1.0028 -0.2454
 8211TIP3    H246125   4.897   0.402   5.732 -0.6067 -0.5427 -0.0265
 8212TIP3   OH246126   2.553   0.348  15.220 -0.2229 -1.0808 -0.4531
 8212TIP3    H146127   2.517   0.428  15.180  0.0226 -0.5960  0.2907
 8212TIP3    H246128   2.635   0.376  15.260 -1.1415 -1.2683  1.6046
 8213TIP3   OH246129   0.294   2.975  15.298  0.3305 -0.5086 -0.1255
 8213TIP3    H146130   0.339   2.940  15.375  0.4750 -0.3976 -0.1607
 8213TIP3    H246131   0.202   2.974  15.323  0.3124 -1.1211 -0.2063
 8214TIP3   OH246132   3.464   3.632  17.107 -0.4742  0.0820  0.0724
 8214TIP3    H146133   3.463   3.610  17.200  1.3839  0.8006  0.2813
 8214TIP3    H246134   3.551   3.670  17.092 -0.7488 -0.0315 -1.9572
 8215TIP3   OH246135   0.400   1.639  11.438 -0.3241  0.3880 -0.4703
 8215TIP3    H146136   0.453   1.718  11.429  0.8166 -0.3458 -0.2176
 8215TIP3    H246137   0.323   1.656  11.384  0.6757  1.0166 -1.7201
 8216TIP3   OH246138   0.810   2.719  15.615 -0.0762  0.0560  0.6395
 8216TIP3    H146139   0.771   2.806  15.612 -0.5008 -0.1282  0.8200
 8216TIP3    H246140   0.740   2.662  15.645 -0.5765 -0.7663 -1.9845
 8217TIP3   OH246141   4.661   2.194   3.603  0.1065 -0.1507 -0.1685
 8217TIP3    H146142   4.730   2.152   3.654 -0.5871  0.0631  0.9772
 8217TIP3    H246143   4.666   2.286   3.628  0.3209  0.1053 -1.1485
 8218TIP3   OH246144   4.450   6.466   0.700  0.7177  0.3014 -0.1424
 8218TIP3    H146145   4.398   6.385   0.695  2.1096 -0.6527  0.4213
 8218TIP3    H246146   4.481   6.469   0.791  0.5860  1.5511 -0.1256
 8219TIP3   OH246147   2.842   2.917   1.050 -0.9866  0.3980  0.1578
 8219TIP3    H146148   2.906   2.923   0.979  2.1181  0.2402  2.8039
 8219TIP3    H246149   2.798   2.833   1.035  2.7522 -1.8197  0.8034
 8220TIP3   OH246150   6.538   0.301   3.837 -0.0070  0.4232  0.2760
 8220TIP3    H146151   6.605   0.277   3.773 -1.2109 -0.5362 -0.6366
 8220TIP3    H246152   6.551   0.394   3.852  1.6826  0.2036  0.2894
 8221TIP3   OH246153   4.129   6.331   4.739  0.1369  0.0054 -0.8076
 8221TIP3    H146154   4.083   6.385   4.803  0.5455 -1.6513  0.9185
 8221TIP3    H246155   4.221   6.332   4.768  0.8250  1.4267 -2.9217
 8222TIP3   OH246156   3.378   0.847   0.885 -0.2767  0.3193  0.1436
 8222TIP3    H146157   3.314   0.812   0.947 -0.4270  1.0407  0.3918
 8222TIP3    H246158   3.401   0.772   0.830 -0.0411 -0.3538  1.1564
 8223TIP3   OH246159   5.808   5.789  11.258 -0.1150 -0.3316  0.3581
 8223TIP3    H146160   5.721   5.791  11.297 -1.3963 -0.6273 -2.3620
 8223TIP3    H246161   5.794   5.756  11.169  2.6769  0.2615 -0.3636
 8224TIP3   OH246162   0.224   0.136  16.522 -0.1597  0.2388  0.3513
 8224TIP3    H146163   0.213   0.177  16.608 -1.2546 -0.1068  0.3780
 8224TIP3    H246164   0.319   0.137  16.507  0.0273  0.3918  1.5225
 8225TIP3   OH246165   4.925   5.240  14.196 -0.4097 -0.0451  0.2097
 8225TIP3    H146166   4.908   5.196  14.112  2.3869 -0.3091 -0.2822
 8225TIP3    H246167   5.021   5.241  14.203 -0.5734  1.1137  2.8160
 8226TIP3   OH246168   4.660   5.461   5.694  0.2461 -0.1636 -0.4247
 8226TIP3    H146169   4.709   5.536   5.664 -0.5565  0.0782 -1.1505
 8226TIP3    H246170   4.674   5.459   5.789  0.1393  0.9906 -0.3829
 8227TIP3   OH246171   0.414   1.220  15.506 -0.5814  0.5924  0.2906
 8227TIP3    H146172   0.467   1.238  15.584  0.5071 -0.9445 -0.0760
 8227TIP3    H246173   0.332   1.268  15.521  0.3682  1.8775  1.4846
 8228TIP3   OH246174   3.188   3.779   4.090  0.4668 -0.5154  0.7718
 8228TIP3    H146175   3.131   3.703   4.099  0.1135 -0.3556 -0.0637
 8228TIP3    H246176   3.168   3.815   4.003  1.4241 -0.1241  0.6973
 8229TIP3   OH246177   2.296   4.559   2.503  0.2155  0.6826  0.1234
 8229TIP3    H146178   2.317   4.649   2.481  1.3951  0.5142  0.5266
 8229TIP3    H246179   2.343   4.506   2.439 -0.4472  0.3522 -0.0937
 8230TIP3   OH246180   6.324   6.804  13.439  0.1634  0.2568 -0.0134
 8230TIP3    H146181   6.418   6.814  13.458  0.0900  0.1837  0.4034
 8230TIP3    H246182   6.318   6.812  13.344  0.2517  3.0085  0.1738
 8231TIP3   OH246183   6.009   5.522   2.777 -0.2804  0.4037  0.3089
 8231TIP3    H146184   6.061   5.530   2.697 -3.0674  1.2986 -1.4842
 8231TIP3    H246185   6.012   5.609   2.816 -1.0245  0.6627 -0.1985
 8232TIP3   OH246186   5.019   1.138  15.858  0.5500 -0.3409  0.2909
 8232TIP3    H146187   5.110   1.166  15.854  0.2496  0.6641  0.3879
 8232TIP3    H246188   5.023   1.043  15.846  1.6154 -0.3204  0.4017
 8233TIP3   OH246189   1.547   3.045  14.231 -0.0467  0.1883  0.0270
 8233TIP3    H146190   1.517   3.105  14.300  0.7668  0.8486 -0.1810
 8233TIP3    H246191   1.623   3.089  14.193  1.2107 -1.4643  0.5566
 8234TIP3   OH246192   1.811   1.119  13.627  0.2600  0.4642  0.2282
 8234TIP3    H146193   1.726   1.075  13.630  0.7961 -0.6202 -0.3757
 8234TIP3    H246194   1.790   1.211  13.645 -1.0632  0.2349 -0.0429
 8235TIP3   OH246195   2.139   3.933   1.397  0.5746 -0.6293  0.0887
 8235TIP3    H146196   2.139   3.949   1.302 -0.9022 -0.7399  0.0594
 8235TIP3    H246197   2.063   3.982   1.429  0.5161 -1.3705  1.0875
 8236TIP3   OH246198   2.556   4.416  16.309  0.3988 -0.4274  0.3730
 8236TIP3    H146199   2.560   4.339  16.252  0.5183  0.9881 -1.5831
 8236TIP3    H246200   2.469   4.453  16.295  0.9423  0.7520 -0.0166
 8237TIP3   OH246201   3.747   1.678   3.696 -0.2461 -0.5219  0.1814
 8237TIP3    H146202   3.771   1.636   3.613  0.6556 -1.0743  0.7247
 8237TIP3    H246203   3.660   1.643   3.716 -1.4952  1.3736 -1.7030
 8238TIP3   OH246204   0.124   2.361   5.561  0.3604 -0.6887 -0.2418
 8238TIP3    H146205   0.087   2.273   5.569  2.5752 -1.5677  1.0071
 8238TIP3    H246206   0.079   2.412   5.628 -1.3576 -0.6821 -1.3608
 8239TIP3   OH246207   4.088   0.194  11.642 -0.1945 -0.3351  0.1694
 8239TIP3    H146208   4.091   0.176  11.736 -1.2514 -2.6006 -0.1807
 8239TIP3    H246209   4.118   0.112  11.601  1.3874  1.0184 -1.4422
 8240TIP3   OH246210   2.928   4.157   5.946  0.4454  0.4474  0.1927
 8240TIP3    H146211   2.917   4.134   5.853 -1.2088  1.4097  0.1177
 8240TIP3    H246212   3.015   4.197   5.951 -0.1154  1.9387 -1.2929
 8241TIP3   OH246213   5.044   6.787   3.047  0.1615  0.1310  0.2956
 8241TIP3    H146214   5.059   6.846   2.973  0.4966 -0.9038 -0.4841
 8241TIP3    H246215   4.952   6.761   3.038  0.3653 -0.4780 -0.1434
 8242TIP3   OH246216   2.210   0.319   0.670 -0.2563 -0.3090  0.2333
 8242TIP3    H146217   2.199   0.385   0.739  1.3205 -0.0005  0.2105
 8242TIP3    H246218   2.146   0.251   0.692 -0.8898  0.5362  1.0842
 8243TIP3   OH246219   5.982   3.268  17.068  0.1900 -0.0161  0.0254
 8243TIP3    H146220   5.977   3.305  16.979  0.1644 -0.4448 -0.1498
 8243TIP3    H246221   5.891   3.243  17.088  0.3492 -0.7976 -0.2019
 8244TIP3   OH246222   1.425   6.310  13.411  0.5831 -0.3778 -0.2099
 8244TIP3    H146223   1.428   6.218  13.384  2.7618 -0.4867  0.3837
 8244TIP3    H246224   1.340   6.319  13.454  0.4654 -2.1730 -0.0284
 8245TIP3   OH246225   5.600   6.334   4.182  0.5285 -0.1461  0.0400
 8245TIP3    H146226   5.577   6.252   4.137 -0.6231  0.0642  0.2357
 8245TIP3    H246227   5.692   6.323   4.205  0.7313 -0.8759 -1.0511
 8246TIP3   OH246228   1.403   5.449   1.654 -0.6438 -0.1541 -0.1551
 8246TIP3    H146229   1.404   5.396   1.734  0.9336 -0.6088 -0.4479
 8246TIP3    H246230   1.329   5.416   1.604 -0.7657 -0.8581  0.4750
 8247TIP3   OH246231   2.160   1.527  11.503 -0.1409 -0.4961  0.2593
 8247TIP3    H146232   2.177   1.611  11.460  1.6276 -1.5540 -1.1705
 8247TIP3    H246233   2.086   1.545  11.561 -1.6183  1.3887 -2.0799
 8248TIP3   OH246234   5.666   1.723   4.564  0.0709 -0.2488 -0.0477
 8248TIP3    H146235   5.594   1.784   4.577 -1.1719 -1.4432 -1.1765
 8248TIP3    H246236   5.663   1.702   4.470 -0.3385 -3.0085  0.5356
 8249TIP3   OH246237   0.082   0.361  10.732 -0.1251  0.0443  0.2649
 8249TIP3    H146238   0.062   0.275  10.696 -1.0763  0.8131 -1.0907
 8249TIP3    H246239   0.165   0.349  10.779  1.2485 -0.9468 -2.3350
 8250TIP3   OH246240   6.217   2.350   4.889 -0.5313  0.3999  0.4656
 8250TIP3    H146241   6.236   2.436   4.851 -0.6911 -0.2479 -1.1101
 8250TIP3    H246242   6.268   2.289   4.836 -0.4213 -0.4717  1.5825
 8251TIP3   OH246243   4.943   1.838  11.932  0.3157  0.3304  0.0185
 8251TIP3    H146244   4.963   1.912  11.989  1.5600  2.4538 -3.0444
 8251TIP3    H246245   4.852   1.853  11.905 -0.2936 -0.7079  1.4282
 8252TIP3   OH246246   4.586   4.490  13.983  0.0383 -0.2224 -0.3826
 8252TIP3    H146247   4.496   4.459  13.981 -0.2007  0.5129 -1.3166
 8252TIP3    H246248   4.607   4.508  13.892  1.1471 -0.4152 -0.1760
 8253TIP3   OH246249   6.698   3.387   5.386  0.4192  0.1151  0.3946
 8253TIP3    H146250   6.753   3.309   5.391 -1.3867 -1.2757 -0.6423
 8253TIP3    H246251   6.611   3.357   5.415 -0.4508  1.5439 -0.6748
 8254TIP3   OH246252   4.077   2.755  14.083 -0.0945  0.0028 -0.0088
 8254TIP3    H146253   4.051   2.833  14.132 -1.3273 -0.4489  0.0607
 8254TIP3    H246254   4.124   2.701  14.147  0.1267  0.3627  0.1307
 8255TIP3   OH246255   4.569   3.131  13.655 -0.0260  0.6125  0.4365
 8255TIP3    H146256   4.517   3.106  13.731 -0.4814 -1.1671 -0.4324
 8255TIP3    H246257   4.520   3.205  13.617 -0.5071  0.6492  1.1084
 8256TIP3   OH246258   2.464   5.023  14.673  0.5366 -0.6739  0.4533
 8256TIP3    H146259   2.524   5.087  14.634 -0.1759  0.3370  0.9877
 8256TIP3    H246260   2.488   5.023  14.766 -0.9284  0.4904  0.8651
 8257TIP3   OH246261   5.613   6.095   2.343  0.6551 -0.3102 -0.3093
 8257TIP3    H146262   5.658   6.175   2.316 -1.2273  1.0059  0.3783
 8257TIP3    H246263   5.613   6.099   2.439  0.0390 -0.8578 -0.2869
 8258TIP3   OH246264   4.176   5.336   2.468  0.2266 -0.4190  0.9238
 8258TIP3    H146265   4.111   5.295   2.525 -0.1647  0.3603  1.0465
 8258TIP3    H246266   4.127   5.401   2.418  0.5204 -1.2796 -0.4861
 8259TIP3   OH246267   4.641   4.220  15.870  0.0357  0.1576 -0.0682
 8259TIP3    H146268   4.735   4.235  15.857  0.4028  0.7781  2.9174
 8259TIP3    H246269   4.623   4.139  15.823  1.6383  1.0304 -2.2844
 8260TIP3   OH246270   0.647   4.439  15.175 -0.3545 -0.1112  0.2271
 8260TIP3    H146271   0.704   4.507  15.138 -2.1293  1.5030  0.3727
 8260TIP3    H246272   0.650   4.454  15.270  0.1754 -1.0105  0.3628
 8261TIP3   OH246273   4.709   1.638   3.945  0.3964  0.0978  0.7991
 8261TIP3    H146274   4.661   1.648   4.027  0.1107  0.2289  0.6137
 8261TIP3    H246275   4.800   1.621   3.973  0.7204  2.2723  1.1491
 8262TIP3   OH246276   1.866   5.891   6.890 -0.0258 -0.1099 -0.1192
 8262TIP3    H146277   1.802   5.961   6.873  0.5993  0.1543 -1.3943
 8262TIP3    H246278   1.814   5.811   6.886 -0.0739  0.0118 -2.3677
 8263TIP3   OH246279   2.610   2.799  14.065  0.3580 -0.1761 -0.3479
 8263TIP3    H146280   2.706   2.797  14.066  0.3526 -2.9132  1.6086
 8263TIP3    H246281   2.586   2.734  13.998 -0.1251 -0.2202 -0.1348
 8264TIP3   OH246282   1.140   4.668   3.209 -0.6958 -0.0615  0.5383
 8264TIP3    H146283   1.076   4.707   3.269  0.5745  2.9157  0.0794
 8264TIP3    H246284   1.133   4.722   3.130  1.3944 -0.5637  0.0039
 8265TIP3   OH246285   0.376   2.531   4.134  0.5020 -0.0012 -0.5275
 8265TIP3    H146286   0.325   2.477   4.195  1.5976  0.5193  0.8718
 8265TIP3    H246287   0.467   2.516   4.160  0.9076  1.1382 -1.2883
 8266TIP3   OH246288   5.410   2.212  14.922 -0.9416  0.4093  0.3612
 8266TIP3    H146289   5.482   2.220  14.860 -0.5587  1.9219  0.9693
 8266TIP3    H246290   5.344   2.161  14.876  0.3000 -0.5366 -0.3970
 8267TIP3   OH246291   2.284   4.953   5.894 -0.0781  0.1821  0.2042
 8267TIP3    H146292   2.231   4.935   5.972 -0.3681 -0.2223 -0.0865
 8267TIP3    H246293   2.229   4.927   5.821  1.1194 -1.7766 -0.0399
 8268TIP3   OH246294   4.978   3.348   3.713 -0.0993 -0.1353  0.0240
 8268TIP3    H146295   4.994   3.321   3.803 -0.5876  2.5109  0.9401
 8268TIP3    H246296   4.914   3.284   3.681  1.5547 -2.2807  0.8723
 8269TIP3   OH246297   3.885   1.040  16.653 -0.0834 -0.3684 -0.2498
 8269TIP3    H146298   3.932   1.103  16.597  0.2293 -0.8118 -0.4905
 8269TIP3    H246299   3.840   1.095  16.717 -0.5056  0.1564 -0.9777
 8270TIP3   OH246300   2.086   6.376  11.190 -1.0337  0.1923 -0.1115
 8270TIP3    H146301   2.122   6.288  11.188  1.2914  1.1079 -1.4599
 8270TIP3    H246302   2.144   6.425  11.248 -1.8215  1.0168 -0.0056
 8271TIP3   OH246303   2.820   2.425   1.251 -0.1415  0.8119 -0.1155
 8271TIP3    H146304   2.763   2.370   1.198  0.9643 -0.0054 -0.4813
 8271TIP3    H246305   2.902   2.376   1.257  0.1716  1.4732  1.2872
 8272TIP3   OH246306   6.428   5.258   2.460  0.1622  0.1973  0.0901
 8272TIP3    H146307   6.332   5.258   2.455  0.1583 -1.2498 -0.0907
 8272TIP3    H246308   6.456   5.305   2.382 -0.3783 -1.7186 -1.3037
 8273TIP3   OH246309   0.705   6.490  13.097  0.6915  0.3799 -0.2010
 8273TIP3    H146310   0.742   6.576  13.078  1.0828  0.1688 -0.4013
 8273TIP3    H246311   0.775   6.442  13.140  0.3652  0.2712  0.2094
 8274TIP3   OH246312   0.065   1.921  16.896 -0.1712 -0.6025  0.1135
 8274TIP3    H146313   0.023   1.906  16.812 -0.1200  0.1629 -0.0549
 8274TIP3    H246314  -0.007   1.939  16.957 -0.0597  2.1398 -0.4778
 8275TIP3   OH246315   2.083   5.085   5.376  0.6156  0.1117 -0.5677
 8275TIP3    H146316   2.000   5.105   5.419  1.4440  0.6508  0.7774
 8275TIP3    H246317   2.137   5.163   5.390  1.0841  0.0900 -2.1311
 8276TIP3   OH246318   4.594   2.224  17.214 -0.5874 -0.4229 -1.0370
 8276TIP3    H146319   4.666   2.282  17.240 -1.8744  0.5875  0.3463
 8276TIP3    H246320   4.529   2.282  17.176 -2.2810 -0.8037  1.1965
 8277TIP3   OH246321   2.100   2.259  11.876 -0.1061 -0.4535 -0.1790
 8277TIP3    H146322   2.016   2.219  11.855 -0.5776 -0.2902  1.3526
 8277TIP3    H246323   2.088   2.352  11.856 -0.8619 -0.1382  1.6678
 8278TIP3   OH246324   1.135   6.065  15.340  0.3414 -0.2775 -0.5487
 8278TIP3    H146325   1.051   6.099  15.370 -0.1358 -1.5622 -0.4146
 8278TIP3    H246326   1.156   5.994  15.402  0.1333 -1.8632 -2.2566
 8279TIP3   OH246327   5.107   1.724  15.752  0.7738  0.0608 -0.1411
 8279TIP3    H146328   5.052   1.654  15.717  1.0648 -0.2439  0.0101
 8279TIP3    H246329   5.088   1.799  15.695 -0.9514  0.4113  0.8552
 8280TIP3   OH246330   5.859   2.158  12.770 -0.2267  0.8672 -0.0073
 8280TIP3    H146331   5.802   2.218  12.818 -0.1227  1.6974 -0.9178
 8280TIP3    H246332   5.946   2.195  12.780  0.2781 -0.7249  1.9022
 8281TIP3   OH246333   2.488   1.854  11.472 -0.3402 -0.2873 -0.1328
 8281TIP3    H146334   2.417   1.918  11.465  0.4060  0.7363  1.3303
 8281TIP3    H246335   2.472   1.809  11.555  1.2286  0.6296  0.7083
 8282TIP3   OH246336   2.170   2.947  12.868  0.1188  0.3460 -0.0921
 8282TIP3    H146337   2.141   3.037  12.854  0.6424  0.3551 -1.1755
 8282TIP3    H246338   2.237   2.933  12.802  2.0434  0.0663  1.8813
 8283TIP3   OH246339   2.028   1.835   4.507 -0.3107  0.2394 -0.2142
 8283TIP3    H146340   2.074   1.904   4.553 -0.0191  0.3032 -0.5954
 8283TIP3    H246341   1.981   1.880   4.436 -1.6552  0.2826  0.6953
 8284TIP3   OH246342   1.432   2.993  17.214 -0.3126  0.4311  0.4311
 8284TIP3    H146343   1.425   2.990  17.310  1.5481  0.1832  0.5829
 8284TIP3    H246344   1.363   2.934  17.183  0.5614 -1.3306  1.7267
 8285TIP3   OH246345   1.990   4.419  10.750 -0.3792 -0.4017  0.0754
 8285TIP3    H146346   2.036   4.460  10.824 -1.1126  1.0843 -0.2829
 8285TIP3    H246347   2.058   4.370  10.704  0.5006  0.4133  0.5071
 8286TIP3   OH246348   0.944   4.944  11.386  0.3845  0.1625 -0.0510
 8286TIP3    H146349   0.986   4.972  11.305  0.1564  1.9891  0.4315
 8286TIP3    H246350   0.859   4.909  11.358  0.2330  0.9474 -0.5940
 8287TIP3   OH246351   0.319   4.326  12.518 -0.4063 -0.1077  0.5508
 8287TIP3    H146352   0.414   4.332  12.525 -0.2601 -0.0795 -1.3628
 8287TIP3    H246353   0.297   4.244  12.562  0.4901 -0.0854  1.0512
 8288TIP3   OH246354   6.119   3.779  15.563 -0.3039 -0.2114 -0.1447
 8288TIP3    H146355   6.045   3.721  15.545 -0.2019  0.0543 -1.4843
 8288TIP3    H246356   6.095   3.824  15.644 -1.8561  0.2699 -0.8486
 8289TIP3   OH246357   2.806   4.136  13.790  0.0922  0.0616  0.3808
 8289TIP3    H146358   2.767   4.152  13.704 -0.3742 -2.7185  0.0315
 8289TIP3    H246359   2.733   4.148  13.851  0.3025  1.5242  0.3615
 8290TIP3   OH246360   4.643   5.259  11.939 -0.1559  0.1220  0.4036
 8290TIP3    H146361   4.683   5.329  11.886 -2.2161  0.0039 -1.3715
 8290TIP3    H246362   4.551   5.284  11.945 -0.9277 -2.4840 -0.3213
 8291TIP3   OH246363   1.485   0.072   1.312 -0.1974  0.6549  0.2192
 8291TIP3    H146364   1.422   0.051   1.380  1.3255 -0.3228  1.3646
 8291TIP3    H246365   1.510  -0.013   1.275  0.6254  1.0078 -0.0506
 8292TIP3   OH246366   4.714   3.235  13.091  0.5422 -0.0102 -0.4189
 8292TIP3    H146367   4.662   3.198  13.020  3.8314  0.1662 -3.0636
 8292TIP3    H246368   4.774   3.165  13.116  2.6241  1.4363 -1.1896
 8293TIP3   OH246369   2.744   0.308  17.146  0.3292 -0.2947 -0.5302
 8293TIP3    H146370   2.836   0.315  17.118 -0.5326 -0.0466 -3.3986
 8293TIP3    H246371   2.710   0.397  17.137  0.1828 -0.0371  2.0906
 8294TIP3   OH246372   5.954   4.580   1.741  0.0180  0.6213  0.1374
 8294TIP3    H146373   5.944   4.564   1.647  1.2894 -2.3087  0.4575
 8294TIP3    H246374   6.036   4.630   1.748  0.6053 -0.2873 -0.2168
 8295TIP3   OH246375   0.702   5.461  16.206  0.0109  0.5225  0.0109
 8295TIP3    H146376   0.715   5.551  16.175  1.4687  0.6710  1.0315
 8295TIP3    H246377   0.782   5.440  16.253 -0.7188 -0.9822  0.6024
 8296TIP3   OH246378   5.829   2.713  11.474 -0.4231 -0.2164  0.8473
 8296TIP3    H146379   5.772   2.639  11.496  0.1408 -1.0333 -0.3932
 8296TIP3    H246380   5.803   2.738  11.385  1.0974 -0.5607  0.2931
 8297TIP3   OH246381   4.598   5.408  15.979  0.6596  0.1023  0.1265
 8297TIP3    H146382   4.611   5.492  15.934 -2.0882  0.8082  0.5576
 8297TIP3    H246383   4.663   5.409  16.050  1.9423  0.9970 -1.0234
 8298TIP3   OH246384   3.244   1.374  12.521 -0.6098  0.0368  0.3305
 8298TIP3    H146385   3.214   1.355  12.432 -1.0498 -1.8708  0.8720
 8298TIP3    H246386   3.247   1.289  12.564  1.8878  0.6695  1.4550
 8299TIP3   OH246387   0.862   2.859  13.871  0.3720 -0.5027 -0.2778
 8299TIP3    H146388   0.785   2.837  13.818  0.6194 -1.6901 -0.1658
 8299TIP3    H246389   0.926   2.891  13.808 -0.0742  0.1029 -0.4267
 8300TIP3   OH246390   0.583   2.910  13.255  0.1061 -0.3392  1.2094
 8300TIP3    H146391   0.555   2.992  13.214 -0.0161 -0.8809  0.1830
 8300TIP3    H246392   0.594   2.850  13.181  0.1335 -1.2617  1.9652
 8301TIP3   OH246393   2.992   3.558   1.048  0.2184 -0.3851 -0.5704
 8301TIP3    H146394   3.083   3.574   1.025  0.2293  0.2219 -0.1051
 8301TIP3    H246395   2.995   3.520   1.136  0.1647 -2.5510 -1.4604
 8302TIP3   OH246396   5.176   3.962   1.124 -0.2643  0.6210 -0.1047
 8302TIP3    H146397   5.104   3.918   1.079  0.2239  0.2721 -0.5452
 8302TIP3    H246398   5.215   4.018   1.058 -0.0075  0.6659  0.0838
 8303TIP3   OH246399   3.663   0.007  16.214  0.6468  0.5768  0.0434
 8303TIP3    H146400   3.592   0.037  16.158  0.3953  0.0920  0.1032
 8303TIP3    H246401   3.742   0.020  16.162  0.6212  2.0927  0.3600
 8304TIP3   OH246402   6.727   4.326   3.970  0.4254  0.4732  0.2906
 8304TIP3    H146403   6.727   4.417   3.999  0.5443  0.3465  0.7034
 8304TIP3    H246404   6.678   4.279   4.038 -0.4475  0.3767 -0.4089
 8305TIP3   OH246405   5.518   1.366  16.479  0.2279 -0.6322 -0.3711
 8305TIP3    H146406   5.483   1.392  16.394  1.9072 -0.3947 -1.0010
 8305TIP3    H246407   5.469   1.419  16.542  0.5906  0.8909 -1.3385
 8306TIP3   OH246408   4.313   3.152  12.661  0.3471  0.0727 -0.0579
 8306TIP3    H146409   4.395   3.202  12.657  0.1101  0.7636  2.7103
 8306TIP3    H246410   4.253   3.201  12.604  0.1123  3.0882  2.5855
 8307TIP3   OH246411   6.437   3.421   3.362 -0.0149  0.2508  0.6140
 8307TIP3    H146412   6.506   3.391   3.421  0.4292 -0.2032 -0.1319
 8307TIP3    H246413   6.359   3.372   3.389  0.0801  0.3629  1.0989
 8308TIP3   OH246414   6.659   3.857  11.704  0.3936 -0.1600  0.4270
 8308TIP3    H146415   6.625   3.784  11.653  2.6752 -0.8586 -0.1315
 8308TIP3    H246416   6.732   3.891  11.653  1.2045  0.6617  2.0892
 8309TIP3   OH246417   4.003   5.193  17.090  0.4393  0.1303  0.1515
 8309TIP3    H146418   3.972   5.282  17.076  1.1212  0.3513  0.0321
 8309TIP3    H246419   3.938   5.154  17.149 -0.4302  0.3672 -0.6436
 8310TIP3   OH246420   6.162   1.545  17.246  0.5656 -0.0431  0.4751
 8310TIP3    H146421   6.223   1.473  17.231  0.6881  0.2827 -0.5970
 8310TIP3    H246422   6.217   1.623  17.247  0.5553 -0.0197  2.5095
 8311TIP3   OH246423   4.557   0.247  15.659 -0.6374  0.2555 -0.1422
 8311TIP3    H146424   4.565   0.304  15.582 -2.1274  1.2735  0.4165
 8311TIP3    H246425   4.594   0.164  15.632 -0.2503  0.9066 -1.6490
 8312TIP3   OH246426   1.539   5.540   3.310 -0.2759  0.3614  0.2278
 8312TIP3    H146427   1.613   5.480   3.301 -0.8793 -0.3890  0.1886
 8312TIP3    H246428   1.557   5.610   3.248 -0.0688 -0.3159 -0.4925
 8313TIP3   OH246429   4.206   1.854  15.697 -0.0795  0.0960  0.0886
 8313TIP3    H146430   4.272   1.811  15.753 -0.1928 -0.4030 -0.1611
 8313TIP3    H246431   4.165   1.782  15.649 -0.0842  0.5137 -0.5334
 8314TIP3   OH246432   4.557   2.966   1.086  0.4902 -0.0254  0.2649
 8314TIP3    H146433   4.510   2.978   1.169 -0.3916 -1.0613 -0.0820
 8314TIP3    H246434   4.583   3.055   1.061  1.3193  0.2394  1.9616
 8315TIP3   OH246435   3.311   0.877  15.370 -0.5668  0.0451 -0.1919
 8315TIP3    H146436   3.390   0.822  15.362 -0.3668  0.3165 -0.0835
 8315TIP3    H246437   3.302   0.892  15.464 -0.7937 -0.0483 -0.1989
 8316TIP3   OH246438   3.388   5.077   0.947  0.0062  0.3405 -0.5340
 8316TIP3    H146439   3.349   5.133   0.879 -1.1156  0.1521 -0.0551
 8316TIP3    H246440   3.320   5.013   0.967  1.1598 -0.9657 -0.8036
 8317TIP3   OH246441   0.421   4.174   5.233 -0.2582  0.3138  0.1150
 8317TIP3    H146442   0.442   4.235   5.163  1.0886 -0.0041  0.2208
 8317TIP3    H246443   0.470   4.095   5.211  0.9325  0.5271  1.8735
 8318TIP3   OH246444   5.523   6.545   1.787 -0.0705 -0.4333 -0.2461
 8318TIP3    H146445   5.523   6.501   1.872  0.6731  0.1371  0.0562
 8318TIP3    H246446   5.609   6.525   1.749 -0.4039 -0.6998 -0.8695
 8319TIP3   OH246447   3.179   5.673  11.287  0.7520 -0.6204  0.2046
 8319TIP3    H146448   3.247   5.737  11.309 -0.4697  0.7617 -0.0126
 8319TIP3    H246449   3.220   5.618  11.219  1.4898  0.4894 -0.2641
 8320TIP3   OH246450   0.643   1.928  12.558  0.4232  0.1514 -0.5625
 8320TIP3    H146451   0.548   1.931  12.553  0.4223 -1.2687 -1.9953
 8320TIP3    H246452   0.673   1.964  12.474  1.1416  0.6570 -0.0964
 8321TIP3   OH246453   2.154   4.563   4.113 -0.0785  0.1772  0.0113
 8321TIP3    H146454   2.184   4.578   4.023 -0.3432 -0.8222 -0.2471
 8321TIP3    H246455   2.153   4.467   4.122 -2.5163  0.1979  0.2475
 8322TIP3   OH246456   5.857   4.273  14.369 -0.2378 -0.4647 -0.3097
 8322TIP3    H146457   5.883   4.230  14.288  0.7994 -0.5112  0.0444
 8322TIP3    H246458   5.939   4.296  14.412 -0.7792  1.5076 -0.2992
 8323TIP3   OH246459   3.567   5.176  11.851 -0.8705  0.1585 -0.3464
 8323TIP3    H146460   3.564   5.198  11.758 -0.1699 -0.3929 -0.5005
 8323TIP3    H246461   3.660   5.159  11.869 -0.7483  1.9197  0.8321
 8324TIP3   OH246462   4.344   3.931   4.703 -0.1265 -0.2555  0.2296
 8324TIP3    H146463   4.313   3.841   4.694  1.8895 -0.9594 -0.0576
 8324TIP3    H246464   4.279   3.974   4.759 -1.1278 -1.8831  0.3372
 8325TIP3   OH246465   1.880   1.718   3.565  0.1760 -0.4901  0.7788
 8325TIP3    H146466   1.842   1.692   3.649 -1.0042  0.2202  0.4751
 8325TIP3    H246467   1.913   1.636   3.528  1.0782 -0.7414  2.1142
 8326TIP3   OH246468   3.684   3.609  10.152  0.1272 -0.0857  0.0343
 8326TIP3    H146469   3.665   3.525  10.193 -0.2823  0.6365  1.3493
 8326TIP3    H246470   3.723   3.586  10.067 -0.1915 -1.5890  0.2826
 8327TIP3   OH246471   6.145   1.506   2.158 -0.3179  0.1886  0.1273
 8327TIP3    H146472   6.145   1.516   2.063  1.9686  2.6256  0.3268
 8327TIP3    H246473   6.061   1.541   2.187 -0.3482  0.9375 -0.8705
 8328TIP3   OH246474   0.297   3.632   0.319 -0.7257 -0.0704 -0.0368
 8328TIP3    H146475   0.272   3.628   0.411 -1.3110  0.6150 -0.1631
 8328TIP3    H246476   0.228   3.585   0.273 -0.2633 -0.6954 -0.0951
 8329TIP3   OH246477   6.738   3.150  14.742  0.1338  0.1391 -0.1717
 8329TIP3    H146478   6.655   3.115  14.775  0.2060 -0.5606 -0.7241
 8329TIP3    H246479   6.805   3.104  14.792  0.2169 -0.1624 -0.5595
 8330TIP3   OH246480   2.653   1.113   5.966 -0.4533 -0.0223  0.3153
 8330TIP3    H146481   2.648   1.065   5.883  2.6948 -0.3322  0.2183
 8330TIP3    H246482   2.664   1.044   6.032 -1.0823  0.3163  0.7737
 8331TIP3   OH246483   5.580   1.718   2.719  0.2396  0.7710 -0.0174
 8331TIP3    H146484   5.640   1.688   2.788  0.7042  1.0194 -0.3084
 8331TIP3    H246485   5.572   1.812   2.734  0.0196  0.7591 -0.0568
 8332TIP3   OH246486   5.515   0.477  10.736 -0.1605 -0.0763  0.2596
 8332TIP3    H146487   5.446   0.515  10.681  0.8900  0.3076 -0.8311
 8332TIP3    H246488   5.592   0.530  10.716  0.5909 -0.8771  1.0187
 8333TIP3   OH246489   2.077   4.821   2.681  0.0540  0.3558 -1.0100
 8333TIP3    H146490   2.074   4.734   2.721 -2.9004  1.0534  0.4326
 8333TIP3    H246491   2.101   4.880   2.752 -1.5505  1.1407 -1.0826
 8334TIP3   OH246492   1.772   1.775   3.939  0.7170  0.4474 -0.5769
 8334TIP3    H146493   1.708   1.740   4.001  0.8561 -0.2161 -0.8025
 8334TIP3    H246494   1.761   1.721   3.861 -0.0568  1.8226 -1.4476
 8335TIP3   OH246495   2.648   4.999  15.409 -0.5669 -0.9354 -0.8774
 8335TIP3    H146496   2.566   5.016  15.454  0.0606 -2.1308  0.7636
 8335TIP3    H246497   2.646   5.056  15.332 -1.9260  0.7142  0.3537
 8336TIP3   OH246498   0.713   5.147   1.361  0.0333 -0.4374 -0.5287
 8336TIP3    H146499   0.780   5.080   1.376  1.5172  1.0982 -0.1069
 8336TIP3    H246500   0.753   5.207   1.298 -0.8533  0.6382 -0.0801
 8337TIP3   OH246501   4.074   2.973  14.265 -0.2391 -0.6507 -0.3497
 8337TIP3    H146502   4.008   3.041  14.281  0.6340  0.1758 -0.1711
 8337TIP3    H246503   4.065   2.912  14.338  0.0909  0.1961  0.4148
 8338TIP3   OH246504   4.172   0.349   0.264  0.2171 -0.3774 -0.4414
 8338TIP3    H146505   4.128   0.311   0.340  0.0408 -0.7244 -0.7123
 8338TIP3    H246506   4.258   0.375   0.296  0.3971 -1.1543 -0.2838
 8339TIP3   OH246507   2.927   5.642  14.898  0.2656  0.1790  0.3218
 8339TIP3    H146508   2.988   5.607  14.833 -1.4818 -0.9167 -0.7447
 8339TIP3    H246509   2.875   5.567  14.925 -0.7061  1.1369  1.1581
 8340TIP3   OH246510   5.032   3.885  16.514  0.1558 -0.1068 -0.0204
 8340TIP3    H146511   4.991   3.861  16.431 -0.3619 -0.6841  0.4035
 8340TIP3    H246512   4.961   3.884  16.578  0.3980  1.1309  0.2875
 8341TIP3   OH246513   1.886   3.148  10.779  0.0066 -0.0277  0.2030
 8341TIP3    H146514   1.860   3.060  10.752  2.2756 -0.8725  0.6695
 8341TIP3    H246515   1.949   3.176  10.712 -0.7988  1.3176 -0.0209
 8342TIP3   OH246516   3.218   2.918   1.655  0.1992 -0.5662  0.2820
 8342TIP3    H146517   3.168   2.869   1.590 -1.8667  0.4374  1.0543
 8342TIP3    H246518   3.300   2.941   1.611 -1.0356 -0.1668 -1.8627
 8343TIP3   OH246519   4.958   3.649   2.911  0.0098 -0.1012 -0.0981
 8343TIP3    H146520   5.029   3.594   2.945 -0.1689 -0.5776 -0.4984
 8343TIP3    H246521   4.884   3.590   2.900  0.0549  0.0427 -1.2949
 8344TIP3   OH246522   4.772   2.994   2.904  0.2697 -0.3206  0.1930
 8344TIP3    H146523   4.844   2.931   2.895 -0.7041 -1.2899 -1.1356
 8344TIP3    H246524   4.730   2.993   2.818 -2.5870 -1.3330  1.5387
 8345TIP3   OH246525   6.528   6.526  12.560  0.3110 -0.6570 -0.3119
 8345TIP3    H146526   6.545   6.619  12.546 -3.0377  0.0161 -0.2830
 8345TIP3    H246527   6.514   6.491  12.472  3.0595 -1.4744 -0.4454
 8346TIP3   OH246528   3.179   6.361   4.921 -0.1976  0.2739  0.3365
 8346TIP3    H146529   3.225   6.445   4.927  2.1170 -0.7866 -1.6868
 8346TIP3    H246530   3.168   6.346   4.827  0.1527 -2.0725  0.6342
 8347TIP3   OH246531   5.701   4.039  14.435  0.1976 -0.9287  0.0049
 8347TIP3    H146532   5.761   3.967  14.454  0.0890 -0.9798  0.1598
 8347TIP3    H246533   5.758   4.116  14.425  0.3386 -1.0960 -0.4833
 8348TIP3   OH246534   6.061   0.980   5.156  0.2792  0.4227 -0.0749
 8348TIP3    H146535   6.034   1.023   5.237  1.5319  0.0427  0.5543
 8348TIP3    H246536   6.155   0.995   5.151  0.4929 -1.0444 -0.5687
 8349TIP3   OH246537   3.056   5.440   4.509  0.2862  0.1279 -0.4080
 8349TIP3    H146538   3.091   5.512   4.562 -1.3082 -0.1681  1.1297
 8349TIP3    H246539   3.012   5.483   4.436  1.6748  0.5830 -1.0067
 8350TIP3   OH246540   0.800   0.716   4.019  0.2004 -0.2391  0.1151
 8350TIP3    H146541   0.772   0.682   4.104  0.7345  1.6289  1.0560
 8350TIP3    H246542   0.866   0.654   3.989  0.5814 -0.4836  1.4280
 8351TIP3   OH246543   1.457   0.435   2.453  0.1847  0.4801  0.8962
 8351TIP3    H146544   1.520   0.396   2.514 -1.9439 -1.9530  1.6078
 8351TIP3    H246545   1.399   0.363   2.429  0.3923  1.6222 -3.3346
 8352TIP3   OH246546   4.591   6.525  14.896  0.5129 -0.1862  0.2705
 8352TIP3    H146547   4.668   6.541  14.841  0.2596  0.1242  0.0048
 8352TIP3    H246548   4.624   6.531  14.986  0.8695 -0.4130  0.1568
 8353TIP3   OH246549   2.496   0.593  16.761  0.0620 -0.4181 -0.2199
 8353TIP3    H146550   2.581   0.602  16.804 -0.3072  0.9094  0.2536
 8353TIP3    H246551   2.481   0.499  16.757  1.0005 -0.6184  0.7908
 8354TIP3   OH246552   5.923   3.584  17.239  0.6105  0.4253  0.7109
 8354TIP3    H146553   5.878   3.502  17.261  0.2937  0.1467 -0.9445
 8354TIP3    H246554   6.014   3.568  17.263  0.8484 -0.9769 -1.0046
 8355TIP3   OH246555   3.044   1.642  15.860 -0.0204  0.2617 -0.0920
 8355TIP3    H146556   3.100   1.583  15.911  0.5378  0.0974 -0.8959
 8355TIP3    H246557   3.102   1.715  15.836  0.1892 -0.5202 -1.9930
 8356TIP3   OH246558   3.231   2.530   1.101 -0.9073  0.4622  0.1109
 8356TIP3    H146559   3.161   2.466   1.094 -1.2849  0.6036  2.2441
 8356TIP3    H246560   3.188   2.609   1.136  0.0429  0.9792  0.1377
 8357TIP3   OH246561   3.558   4.501  14.485  0.1311  0.3663 -0.1686
 8357TIP3    H146562   3.523   4.427  14.535 -0.1679  0.0661 -0.8128
 8357TIP3    H246563   3.529   4.578  14.533  1.2858  0.0351  1.0498
 8358TIP3   OH246564   0.416   1.114   2.177  0.8309  0.4372 -0.5101
 8358TIP3    H146565   0.405   1.098   2.083 -0.0185 -2.6793  0.0427
 8358TIP3    H246566   0.509   1.097   2.194  0.5163 -1.2698 -0.4252
 8359TIP3   OH246567   3.078   4.104   0.832 -0.1226 -0.0543  0.1330
 8359TIP3    H146568   3.064   4.050   0.753  0.9772 -0.6542  0.3351
 8359TIP3    H246569   3.151   4.162   0.808  0.9844 -1.0297  1.0945
 8360TIP3   OH246570   2.778   3.753   5.542 -0.0431  0.3671  0.1729
 8360TIP3    H146571   2.773   3.754   5.446  0.0994 -0.9159  0.1487
 8360TIP3    H246572   2.866   3.720   5.561  0.2368  1.4331  0.7462
 8361TIP3   OH246573   5.953   6.224  12.429  0.2969  0.7088 -0.0627
 8361TIP3    H146574   5.874   6.233  12.482  0.2282 -0.8062  0.0996
 8361TIP3    H246575   5.972   6.314  12.399 -1.0191  1.2008  0.5426
 8362TIP3   OH246576   2.811   5.408   1.635 -0.3893  0.6168  0.0581
 8362TIP3    H146577   2.831   5.315   1.635 -1.4222  0.3885 -0.6674
 8362TIP3    H246578   2.855   5.442   1.713  0.2568 -0.4094  0.1506
 8363TIP3   OH246579   3.193   3.170   1.480  0.1440 -0.0342 -0.2642
 8363TIP3    H146580   3.155   3.187   1.566 -0.2194  1.1771 -0.6486
 8363TIP3    H246581   3.286   3.158   1.497 -0.0164 -0.3971  0.3678
 8364TIP3   OH246582   3.720   3.966  11.324 -0.3029 -0.2229 -0.1535
 8364TIP3    H146583   3.655   3.956  11.394  0.4368 -0.4512  0.5063
 8364TIP3    H246584   3.779   4.035  11.355  0.0016 -0.2901 -0.5707
 8365TIP3   OH246585   4.237   0.046  13.097 -0.1132  0.4236 -0.6280
 8365TIP3    H146586   4.175   0.089  13.038 -0.6663  0.6515  0.1117
 8365TIP3    H246587   4.267   0.116  13.155 -2.4878 -0.5011  1.8548
 8366TIP3   OH246588   0.823   2.220  13.679  0.1678 -0.1430  0.4440
 8366TIP3    H146589   0.852   2.130  13.663 -1.7745 -0.6728 -0.1847
 8366TIP3    H246590   0.828   2.230  13.774  0.5538 -0.8440  0.5038
 8367TIP3   OH246591   1.190   2.093  11.303  0.4687 -0.0219  0.4340
 8367TIP3    H146592   1.190   2.118  11.210 -1.1808 -0.6924  0.2361
 8367TIP3    H246593   1.261   2.029  11.309  0.5910  0.0217 -0.3715
 8368TIP3   OH246594   1.272   0.819   5.458 -0.2090  0.1927  0.1335
 8368TIP3    H146595   1.361   0.851   5.466  0.3916 -1.3403 -0.2170
 8368TIP3    H246596   1.256   0.814   5.364  0.5610 -2.7482  0.1150
 8369TIP3   OH246597   0.473   6.528   3.399  0.3161  0.2056 -0.0324
 8369TIP3    H146598   0.438   6.447   3.360 -0.7359  0.6942 -0.1215
 8369TIP3    H246599   0.451   6.521   3.492  1.3158 -0.1712  0.1811
 8370TIP3   OH246600   3.846   1.694  13.575  0.7190 -0.6618 -0.5003
 8370TIP3    H146601   3.808   1.718  13.491 -0.3139 -0.6678 -0.0496
 8370TIP3    H246602   3.782   1.634  13.614  1.5802 -1.3156 -0.0735
 8371TIP3   OH246603   1.386   2.640  16.766  1.4221  0.1977 -0.4943
 8371TIP3    H146604   1.369   2.572  16.831  1.0803  0.7648  0.0151
 8371TIP3    H246605   1.481   2.642  16.757  1.5676  1.1004  1.0624
 8372TIP3   OH246606   2.720   5.928  15.509 -0.0414  0.4428 -0.4863
 8372TIP3    H146607   2.815   5.918  15.510 -0.0424  0.5101  0.6641
 8372TIP3    H246608   2.699   5.947  15.417  1.2216  1.9464 -0.4944
 8373TIP3   OH246609   6.560   4.759  11.695 -0.5958  0.2386 -0.1204
 8373TIP3    H146610   6.576   4.751  11.601 -0.8672  0.9841 -0.2303
 8373TIP3    H246611   6.630   4.708  11.736  0.7671  1.6556 -0.6649
 8374TIP3   OH246612   5.083   6.751   0.109 -0.4664  0.5963  0.1004
 8374TIP3    H146613   5.085   6.668   0.060 -1.7609  0.3051  0.5364
 8374TIP3    H246614   5.028   6.808   0.055 -1.4692  0.4379  0.9482
 8375TIP3   OH246615   4.235   1.039  14.722  0.4685 -0.1838 -0.4388
 8375TIP3    H146616   4.287   0.979  14.775  1.9762  0.6112 -0.9694
 8375TIP3    H246617   4.158   0.989  14.697  1.5992 -1.8346 -0.6979
 8376TIP3   OH246618   0.202   6.255   6.749 -0.1095 -0.0159  0.5277
 8376TIP3    H146619   0.217   6.177   6.802  2.0319 -0.7441 -1.0976
 8376TIP3    H246620   0.187   6.221   6.660 -1.9087  1.2840  0.2945
 8377TIP3   OH246621   2.746   3.570   1.966  0.4440  0.3705  0.4410
 8377TIP3    H146622   2.837   3.547   1.944  0.4817  1.0916 -0.2045
 8377TIP3    H246623   2.695   3.494   1.938  0.8450 -0.0089  0.7379
 8378TIP3   OH246624   5.403   5.765  13.747  0.2066 -0.0023  0.0184
 8378TIP3    H146625   5.328   5.762  13.806  0.1763  0.8493  0.0346
 8378TIP3    H246626   5.388   5.843  13.693 -0.1974 -1.2405 -1.6839
 8379TIP3   OH246627   1.480   1.230   1.088 -0.2058 -0.1332 -0.3446
 8379TIP3    H146628   1.556   1.172   1.078  1.7922  2.0964  1.4075
 8379TIP3    H246629   1.490   1.294   1.017 -1.4256 -0.8179 -1.1612
 8380TIP3   OH246630   0.699   5.183  12.828  0.0618  0.4730  0.1602
 8380TIP3    H146631   0.689   5.158  12.736  0.1781 -0.1513  0.3167
 8380TIP3    H246632   0.697   5.100  12.876 -2.1190  0.9070  0.9074
 8381TIP3   OH246633   0.785   3.228  14.601  0.4335  0.0716 -0.0163
 8381TIP3    H146634   0.863   3.265  14.641  0.4397 -0.6401  0.6541
 8381TIP3    H246635   0.731   3.303  14.578 -0.2851  0.4731  2.7963
 8382TIP3   OH246636   2.535   1.727  14.372  0.0966 -0.5730  0.0412
 8382TIP3    H146637   2.549   1.635  14.353 -0.7205 -0.5251 -0.8692
 8382TIP3    H246638   2.620   1.759  14.402 -0.0578 -2.0232  2.1052
 8383TIP3   OH246639   5.636   3.390   4.964 -0.2078 -0.2986  0.5742
 8383TIP3    H146640   5.625   3.480   4.935  0.0375  0.0816  1.6556
 8383TIP3    H246641   5.718   3.362   4.923 -0.0627  0.1039  0.5864
 8384TIP3   OH246642   1.871   1.555  15.869  0.6498  0.2351 -0.1474
 8384TIP3    H146643   1.853   1.648  15.853 -2.1113 -0.1384  0.5448
 8384TIP3    H246644   1.869   1.515  15.783 -1.0854  0.3689 -0.1887
 8385TIP3   OH246645   4.605   0.790  15.999 -0.0249  0.2216  0.2144
 8385TIP3    H146646   4.682   0.834  16.037  1.3568  0.8182 -3.0765
 8385TIP3    H246647   4.642   0.721  15.945 -1.7472  1.2028 -2.2828
 8386TIP3   OH246648   0.092   5.684   1.673  0.1391  0.2588  0.0381
 8386TIP3    H146649   0.186   5.700   1.672  0.4063 -1.2218 -0.6810
 8386TIP3    H246650   0.073   5.658   1.763  0.9183 -2.0553 -0.4268
 8387TIP3   OH246651   4.459   1.471   1.372 -0.0974  0.4815  0.3704
 8387TIP3    H146652   4.421   1.554   1.343 -2.3480 -0.5099  0.3693
 8387TIP3    H246653   4.454   1.475   1.467 -0.6725  0.1313  0.3532
 8388TIP3   OH246654   6.682   0.030   2.769 -0.0127 -0.1767  0.2006
 8388TIP3    H146655   6.656  -0.057   2.800  0.6900 -0.9587 -1.3138
 8388TIP3    H246656   6.688   0.020   2.674  0.1000  1.5322  0.0143
 8389TIP3   OH246657   1.323   5.023   4.038 -0.8833 -0.1610 -0.0268
 8389TIP3    H146658   1.390   4.963   4.006  1.0909  2.0671 -0.1649
 8389TIP3    H246659   1.240   4.980   4.016  0.4661 -2.9124  0.0969
 8390TIP3   OH246660   1.506   3.991  11.254  0.0218  0.3468 -0.2402
 8390TIP3    H146661   1.584   4.046  11.257 -0.0706  0.4053  1.0746
 8390TIP3    H246662   1.538   3.906  11.222  0.3104  0.8979 -1.4328
 8391TIP3   OH246663   3.151   6.224   6.643 -0.1771  0.2641 -0.1516
 8391TIP3    H146664   3.131   6.188   6.557  1.6065  1.0084 -0.9004
 8391TIP3    H246665   3.135   6.151   6.704 -1.6115 -0.2115 -1.0741
 8392TIP3   OH246666   6.166   0.048  13.836 -0.2406  0.0985 -0.0213
 8392TIP3    H146667   6.125   0.041  13.750 -1.4092 -3.1974  0.7420
 8392TIP3    H246668   6.251   0.006  13.826 -0.4532 -0.4552  0.4496
 8393TIP3   OH246669   6.664   3.114   5.091  0.1647 -0.0893  0.0453
 8393TIP3    H146670   6.700   3.049   5.152 -0.2038 -1.6062 -1.3309
 8393TIP3    H246671   6.719   3.107   5.013 -0.1611  0.9453 -0.2864
 8394TIP3   OH246672   6.352   0.530   1.200 -0.0194  0.1276  0.4912
 8394TIP3    H146673   6.294   0.605   1.209 -0.9336 -0.5375  0.2050
 8394TIP3    H246674   6.303   0.457   1.238  0.8712 -0.3241  0.8024
 8395TIP3   OH246675   2.561   1.477  15.621 -0.9176  0.1528 -0.1432
 8395TIP3    H146676   2.496   1.519  15.677  0.3923  1.1429  0.6834
 8395TIP3    H246677   2.629   1.544  15.610  0.5705 -1.2978  0.0772
 8396TIP3   OH246678   4.665   4.238  13.799  0.8379 -0.3600  0.2117
 8396TIP3    H146679   4.730   4.236  13.869 -0.3023  0.0606  1.2978
 8396TIP3    H246680   4.653   4.332  13.781  1.0054 -0.4604 -0.4421
 8397TIP3   OH246681   2.746   0.969   3.382  0.4122 -0.2178 -0.1626
 8397TIP3    H146682   2.819   0.907   3.376  0.8072  0.3753 -1.9982
 8397TIP3    H246683   2.734   1.000   3.292 -1.0869  0.8707  0.3929
 8398TIP3   OH246684   3.987   1.771   2.578 -0.1256  0.2142 -0.1419
 8398TIP3    H146685   3.927   1.752   2.506 -0.3063 -1.1814  0.3594
 8398TIP3    H246686   4.073   1.751   2.544  0.0753  2.2851 -0.8847
 8399TIP3   OH246687   2.022   2.519  15.171 -0.3774 -0.1943  0.4478
 8399TIP3    H146688   2.094   2.495  15.112 -0.0227  1.2296  0.2838
 8399TIP3    H246689   1.947   2.470  15.139  0.2704 -0.9169  0.0047
 8400TIP3   OH246690   5.264   2.381   4.640 -0.4236 -0.1511 -0.2355
 8400TIP3    H146691   5.216   2.408   4.562 -1.1586  1.6571  0.8200
 8400TIP3    H246692   5.268   2.459   4.695  2.0410 -0.7727  0.5631
 8401TIP3   OH246693   1.356   5.503  11.474  0.0176 -1.1209  0.4578
 8401TIP3    H146694   1.395   5.429  11.520  0.7340 -0.1980  1.3404
 8401TIP3    H246695   1.403   5.579  11.506 -0.6821 -0.2760 -0.4870
 8402TIP3   OH246696   0.894   3.846   1.882  0.1427  0.2680 -0.3519
 8402TIP3    H146697   0.866   3.820   1.794  0.2463  0.5313 -0.4629
 8402TIP3    H246698   0.909   3.763   1.927  0.8527  0.1290 -0.8265
 8403TIP3   OH246699   5.141   6.236  13.172  0.6357  0.0837 -0.4170
 8403TIP3    H146700   5.050   6.222  13.146  0.0856 -0.6121  1.7747
 8403TIP3    H246701   5.153   6.179  13.249  1.8405  2.8387  1.5250
 8404TIP3   OH246702   0.854   5.546  11.322  0.4301  0.3570 -0.2975
 8404TIP3    H146703   0.944   5.514  11.330  0.4746  0.0758 -1.7334
 8404TIP3    H246704   0.818   5.498  11.246 -1.0890  0.0810  0.5620
 8405TIP3   OH246705   1.969   4.615   1.294  0.6493 -0.1379 -0.2184
 8405TIP3    H146706   1.992   4.529   1.260  0.3663 -0.3106  0.0233
 8405TIP3    H246707   1.929   4.660   1.219  0.5630 -0.3088 -0.2749
 8406TIP3   OH246708   6.618   2.818   4.994 -0.7104 -0.1744 -0.0332
 8406TIP3    H146709   6.570   2.857   4.921 -0.4779 -0.3888 -0.3030
 8406TIP3    H246710   6.574   2.735   5.011  1.1033 -1.5753 -1.9570
 8407TIP3   OH246711   4.851   0.477   2.521  0.4365  0.8985  0.9777
 8407TIP3    H146712   4.831   0.498   2.430 -0.0362  1.3674  1.1911
 8407TIP3    H246713   4.937   0.515   2.536  1.2265 -0.5540  0.2583
 8408TIP3   OH246714   5.636   4.530  14.901  0.0784  0.1504 -0.5123
 8408TIP3    H146715   5.544   4.553  14.916  0.3647 -1.0311  3.4122
 8408TIP3    H246716   5.635   4.484  14.817 -2.6191  1.6269 -1.3660
 8409TIP3   OH246717   0.089   0.213  13.510 -0.3681  0.0906  0.3496
 8409TIP3    H146718   0.147   0.179  13.578  0.7284 -0.5028 -0.8515
 8409TIP3    H246719   0.031   0.274  13.555  0.2165 -0.4477  1.8368
 8410TIP3   OH246720   6.098   2.903   3.167  0.2814 -0.3260 -0.4761
 8410TIP3    H146721   6.025   2.865   3.118 -1.5923  0.7946  1.3736
 8410TIP3    H246722   6.122   2.981   3.117 -0.0209 -0.5019 -0.9022
 8411TIP3   OH246723   1.197   3.908  13.395  0.9077 -0.2281 -0.1732
 8411TIP3    H146724   1.119   3.867  13.433  0.3767  1.1369  0.2067
 8411TIP3    H246725   1.239   3.952  13.469  0.6059  1.2896 -0.8998
 8412TIP3   OH246726   3.156   4.896   1.669 -0.2083 -0.4351 -0.3687
 8412TIP3    H146727   3.198   4.978   1.645  0.3461 -0.4215  0.6089
 8412TIP3    H246728   3.229   4.840   1.699 -0.8024 -0.5892  0.8361
 8413TIP3   OH246729   3.184   2.781  14.344  0.2068 -0.1022  0.5606
 8413TIP3    H146730   3.184   2.872  14.374 -1.0541  0.9938 -2.5086
 8413TIP3    H246731   3.092   2.753  14.353  0.2962 -0.5549  0.0771
 8414TIP3   OH246732   2.086   1.021  14.144  0.2299 -0.1987 -0.3531
 8414TIP3    H146733   2.054   0.966  14.216  1.0405 -0.4351 -0.1659
 8414TIP3    H246734   2.171   1.052  14.174  1.3478 -1.6849 -1.9172
 8415TIP3   OH246735   1.715   1.595  15.214 -0.1357  0.1961  0.1001
 8415TIP3    H146736   1.627   1.631  15.205  0.4271  1.3473 -0.8778
 8415TIP3    H246737   1.771   1.672  15.224  0.9287 -0.4641 -0.7478
 8416TIP3   OH246738   4.962   3.470  15.131  0.7516  0.1598  0.0244
 8416TIP3    H146739   4.931   3.514  15.052  2.2266  0.4798 -0.3950
 8416TIP3    H246740   4.956   3.537  15.200  2.0396  0.7392 -0.4018
 8417TIP3   OH246741   5.778   2.630   5.020 -0.0861 -0.3097 -0.2535
 8417TIP3    H146742   5.774   2.559   4.956  0.5386  0.1165 -0.7726
 8417TIP3    H246743   5.779   2.710   4.967  0.5017  0.0447  0.2894
 8418TIP3   OH246744   2.875   5.645   1.482  0.1450 -0.3028 -0.0970
 8418TIP3    H146745   2.831   5.571   1.524  0.2947 -0.2992  0.0681
 8418TIP3    H246746   2.915   5.607   1.403  0.4323 -0.4505  0.1195
 8419TIP3   OH246747   4.101   5.587  13.657 -0.2765 -0.4568  0.0741
 8419TIP3    H146748   4.168   5.569  13.592  0.8468 -0.6059  1.2336
 8419TIP3    H246749   4.041   5.513  13.652  0.6568 -1.2336  0.2691
 8420TIP3   OH246750   6.501   4.397   1.564 -0.4143  0.2472  0.0387
 8420TIP3    H146751   6.509   4.334   1.635 -1.1470  1.9419  1.6830
 8420TIP3    H246752   6.429   4.364   1.510  0.7026 -1.4920 -0.4071
 8421TIP3   OH246753   5.992   4.946   2.071  0.1529  0.4235  0.2058
 8421TIP3    H146754   5.910   4.964   2.117  0.0758 -0.3795  0.4021
 8421TIP3    H246755   6.033   5.031   2.059 -0.1484  0.7118  1.1745
 8422TIP3   OH246756   6.118   1.244   1.379  0.0108 -0.4385  0.3571
 8422TIP3    H146757   6.124   1.209   1.290  1.9291 -0.5125  0.5046
 8422TIP3    H246758   6.149   1.334   1.371 -2.5267  0.4716  0.4415
 8423TIP3   OH246759   4.608   1.901  14.237  0.0485 -1.0388  0.3849
 8423TIP3    H146760   4.515   1.893  14.257  0.6977 -2.4204  3.1240
 8423TIP3    H246761   4.651   1.840  14.298  2.6172 -1.6456 -1.9246
 8424TIP3   OH246762   5.652   6.532   3.957 -0.6428  0.1932  0.7318
 8424TIP3    H146763   5.563   6.553   3.930 -0.6557  1.0500  1.4097
 8424TIP3    H246764   5.641   6.467   4.027 -0.7473  0.4506  0.9559
 8425TIP3   OH246765   6.433   0.403   3.461  0.2286 -0.2499  0.4033
 8425TIP3    H146766   6.354   0.436   3.504  0.3246  0.0720  0.3280
 8425TIP3    H246767   6.504   0.458   3.495 -0.0308  1.7212 -2.1287
 8426TIP3   OH246768   6.640   3.352   0.422  0.0364 -0.4922  0.2958
 8426TIP3    H146769   6.678   3.366   0.508 -0.8189  0.5157  0.5226
 8426TIP3    H246770   6.712   3.317   0.369  0.8813 -0.0021  1.1078
 8427TIP3   OH246771   3.439   1.605  14.068 -0.1011  0.3440  0.0842
 8427TIP3    H146772   3.391   1.553  14.004 -0.6992 -0.0486  0.8594
 8427TIP3    H246773   3.488   1.541  14.120  1.2639  0.7333 -0.6946
 8428TIP3   OH246774   6.502   3.214  16.371  0.6356  0.1571  0.1207
 8428TIP3    H146775   6.445   3.275  16.417  1.0672 -0.2291  1.1829
 8428TIP3    H246776   6.565   3.269  16.325 -0.0624  0.5597 -0.3606
 8429TIP3   OH246777   2.582   3.159  11.336 -0.6722  0.1146  1.2349
 8429TIP3    H146778   2.547   3.074  11.311 -1.1716  0.9031 -0.8094
 8429TIP3    H246779   2.561   3.168  11.429 -3.4747 -0.5966  0.6987
 8430TIP3   OH246780   5.688   5.654   6.295  0.3270 -0.1302  0.2990
 8430TIP3    H146781   5.623   5.638   6.227 -0.8482  0.8656  1.1801
 8430TIP3    H246782   5.638   5.654   6.377  1.7928 -1.8062  1.2306
 8431TIP3   OH246783   2.116   0.558  16.068 -0.2413 -0.4449  0.2289
 8431TIP3    H146784   2.170   0.620  16.117 -0.5803 -1.5498  2.0711
 8431TIP3    H246785   2.034   0.604  16.052  0.9289  0.9805 -1.9394
 8432TIP3   OH246786   2.568   6.723  15.906 -0.0293 -0.2067 -0.2406
 8432TIP3    H146787   2.545   6.630  15.912 -0.5146  0.0571  2.7936
 8432TIP3    H246788   2.663   6.723  15.895 -0.3539 -1.0739 -3.9124
 8433TIP3   OH246789   1.358   6.102  14.905 -0.3808  0.0235  0.0317
 8433TIP3    H146790   1.396   6.061  14.827 -0.8942 -1.9454  0.7979
 8433TIP3    H246791   1.420   6.172  14.927 -0.0707  0.4265 -1.9357
 8434TIP3   OH246792   5.112   3.725   5.439 -0.1463  0.0631 -0.0575
 8434TIP3    H146793   5.121   3.710   5.533  1.2632 -0.5092 -0.2767
 8434TIP3    H246794   5.091   3.818   5.431 -0.2421  0.1212  0.8219
 8435TIP3   OH246795   3.102   4.534  14.034  0.3959 -0.4166  0.4044
 8435TIP3    H146796   3.113   4.510  14.126  1.1322 -1.4562  0.0620
 8435TIP3    H246797   3.018   4.495  14.009  1.2701 -2.1072  0.0343
 8436TIP3   OH246798   2.174   5.417  16.239  0.3064 -0.7013  0.6434
 8436TIP3    H146799   2.213   5.335  16.210 -1.1718 -1.4462  0.7448
 8436TIP3    H246800   2.138   5.456  16.160 -1.3411 -1.4376  1.0166
 8437TIP3   OH246801   4.631   1.505   1.832  0.1538  0.2452  0.1655
 8437TIP3    H146802   4.581   1.540   1.759  1.4648  1.5228 -0.1461
 8437TIP3    H246803   4.573   1.514   1.908  0.2274  2.6473 -0.0053
 8438TIP3   OH246804   4.417   4.417  13.619  0.1540 -0.0573 -0.6103
 8438TIP3    H146805   4.373   4.483  13.673 -0.8810 -0.9606 -0.3282
 8438TIP3    H246806   4.430   4.459  13.534  0.2281  0.7789 -0.1903
 8439TIP3   OH246807   5.519   5.989   0.718  0.2460  0.3494 -0.0527
 8439TIP3    H146808   5.425   5.976   0.708  0.7506 -0.9548 -3.7855
 8439TIP3    H246809   5.553   5.903   0.741  0.7572  0.3909 -0.6422
 8440TIP3   OH246810   6.123   4.115   4.008  0.0718  0.0737  0.5231
 8440TIP3    H146811   6.104   4.208   4.017  0.5922  0.4467 -1.7504
 8440TIP3    H246812   6.125   4.100   3.913  0.1019 -2.2292  0.8496
 8441TIP3   OH246813   3.065   5.921  14.283  0.1461  0.0029 -0.0234
 8441TIP3    H146814   3.007   5.856  14.245  1.1288 -1.1502  0.3870
 8441TIP3    H246815   3.019   5.953  14.361  0.1325 -1.0402  0.4047
 8442TIP3   OH246816   2.554   3.040   5.222  0.2863 -0.0423 -0.0874
 8442TIP3    H146817   2.569   2.967   5.283 -0.3825  0.1288  0.2916
 8442TIP3    H246818   2.571   3.118   5.274  1.0201  0.0824 -0.5000
 8443TIP3   OH246819   1.434   4.812  14.963  0.7596  0.7926 -0.2868
 8443TIP3    H146820   1.483   4.882  14.921  0.9451  0.6167 -0.3663
 8443TIP3    H246821   1.421   4.842  15.053 -1.1132  1.9237 -0.8964
 8444TIP3   OH246822   5.812   0.162  16.312 -0.2186  0.5405  0.0681
 8444TIP3    H146823   5.734   0.194  16.267 -0.3638 -0.2219 -0.2357
 8444TIP3    H246824   5.837   0.234  16.370  0.1218  1.6442 -1.4122
 8445TIP3   OH246825   2.558   5.613   5.795  0.0732 -0.0153  0.0028
 8445TIP3    H146826   2.473   5.650   5.771 -0.0039  0.1634  0.5311
 8445TIP3    H246827   2.548   5.519   5.781 -0.2716 -0.0142  0.2407
 8446TIP3   OH246828   1.793   4.658  12.782 -0.0378 -0.1471  0.1523
 8446TIP3    H146829   1.796   4.753  12.771 -0.5569 -0.1387  0.0699
 8446TIP3    H246830   1.883   4.629  12.765 -0.4584  0.0260 -2.5938
 8447TIP3   OH246831   4.199   4.125   6.478  0.0442 -0.1742 -0.1338
 8447TIP3    H146832   4.145   4.203   6.469 -0.5456 -0.6188 -0.5077
 8447TIP3    H246833   4.168   4.084   6.559 -0.9307 -1.0007 -0.9131
 8448TIP3   OH246834   6.298   1.751  11.999  0.3344 -0.1225  0.1387
 8448TIP3    H146835   6.368   1.737  12.063  0.2092 -0.4256  0.2132
 8448TIP3    H246836   6.342   1.792  11.925  1.1570 -2.8507 -0.9627
 8449TIP3   OH246837   3.254   3.261   3.187 -0.0938 -0.2355 -0.2543
 8449TIP3    H146838   3.312   3.236   3.259  1.4353 -0.5116 -1.5602
 8449TIP3    H246839   3.253   3.184   3.130  1.3161  1.1555 -2.1983
 8450TIP3   OH246840   2.246   1.916  16.983 -0.5925  0.4155  0.0315
 8450TIP3    H146841   2.245   1.940  16.891 -1.0568  0.4423  0.0442
 8450TIP3    H246842   2.261   1.999  17.029  1.3663  0.1650 -0.0979
 8451TIP3   OH246843   3.958   4.931  11.684 -0.5763  0.0135  0.1250
 8451TIP3    H146844   3.942   5.002  11.747 -1.5592 -0.8744  0.8868
 8451TIP3    H246845   3.882   4.933  11.626  0.4277  0.9721 -1.2069
 8452TIP3   OH246846   6.673   6.609  16.077 -0.1013 -0.9294 -0.1957
 8452TIP3    H146847   6.593   6.619  16.129  0.3528 -1.1703  0.5657
 8452TIP3    H246848   6.709   6.697  16.071  0.3758 -1.0491  0.7758
 8453TIP3   OH246849   3.054   2.754   1.205 -0.2351  0.0580  0.2502
 8453TIP3    H146850   3.002   2.706   1.141 -0.4171 -0.1022  0.5195
 8453TIP3    H246851   3.026   2.845   1.196  1.6634  0.4929 -1.8090
 8454TIP3   OH246852   3.055   3.742   0.495  0.0787 -0.2151 -0.4265
 8454TIP3    H146853   3.106   3.669   0.530  0.6991 -0.7672 -2.3770
 8454TIP3    H246854   2.965   3.722   0.518  0.3456 -1.1377 -0.1670
 8455TIP3   OH246855   0.225   6.441   4.286 -0.0155 -0.1027  0.3160
 8455TIP3    H146856   0.173   6.383   4.231 -0.4869 -0.6373  1.3096
 8455TIP3    H246857   0.161   6.491   4.336  0.4100  0.2416  0.5217
 8456TIP3   OH246858   2.155   2.508  11.368 -0.6450 -0.0578 -0.3152
 8456TIP3    H146859   2.201   2.527  11.286 -0.7074  0.2700 -0.2753
 8456TIP3    H246860   2.085   2.574  11.371 -1.1576 -0.5927 -0.4053
 8457TIP3   OH246861   0.227   3.533  12.908  0.0591  0.2744 -0.1022
 8457TIP3    H146862   0.186   3.499  12.829 -0.6454  0.2095  0.2880
 8457TIP3    H246863   0.181   3.615  12.926 -0.6957 -0.3736  0.9841
 8458TIP3   OH246864   1.430   4.886   4.327 -0.5273  0.0656  0.5569
 8458TIP3    H146865   1.434   4.806   4.274  1.3374  1.1891 -1.0571
 8458TIP3    H246866   1.514   4.929   4.313 -1.6583  2.5543  1.0266
 8459TIP3   OH246867   4.071   2.219  17.125 -0.1543  0.1928  0.3037
 8459TIP3    H146868   4.145   2.178  17.079  0.5818  1.4444  0.3400
 8459TIP3    H246869   4.035   2.149  17.180  0.3410 -0.7216 -0.5061
 8460TIP3   OH246870   6.728   4.630   0.217 -0.5921 -0.5289 -0.2174
 8460TIP3    H146871   6.679   4.589   0.145 -1.6188 -1.5247  1.0329
 8460TIP3    H246872   6.665   4.637   0.289  0.8001 -0.8428  1.0588
 8461TIP3   OH246873   5.262   4.327   4.020  0.0886  0.1838 -0.1721
 8461TIP3    H146874   5.246   4.333   3.926  1.5188  0.2057 -0.4281
 8461TIP3    H246875   5.260   4.418   4.050  0.6646  0.2621 -0.3655
 8462TIP3   OH246876   0.642   5.695  12.573 -0.3196  0.3896 -0.3227
 8462TIP3    H146877   0.685   5.723  12.654 -0.6264 -1.3177  0.4591
 8462TIP3    H246878   0.702   5.632  12.534 -1.9085 -1.8313  0.6505
 8463TIP3   OH246879   0.001   2.902   6.760  0.2855  0.4067  0.5701
 8463TIP3    H146880  -0.038   2.938   6.680 -0.6105 -1.3904  0.1611
 8463TIP3    H246881   0.029   2.814   6.735  1.6732  0.5047  1.7522
 8464TIP3   OH246882   6.167   3.477   3.131 -0.6875 -0.0805 -0.0286
 8464TIP3    H146883   6.228   3.550   3.144 -0.9460 -0.0823  1.3199
 8464TIP3    H246884   6.164   3.464   3.037  0.2529  0.9019 -0.2020
 8465TIP3   OH246885   3.643   4.954   5.183  0.3660 -0.5740 -0.8794
 8465TIP3    H146886   3.645   4.970   5.088 -1.5888 -0.8739 -1.0051
 8465TIP3    H246887   3.609   4.865   5.191  0.1756 -0.4126  0.1203
 8466TIP3   OH246888   0.125   6.662   5.061 -0.7744 -0.2120 -0.8239
 8466TIP3    H146889   0.163   6.744   5.031 -1.8778  0.6942  0.1998
 8466TIP3    H246890   0.033   6.683   5.079 -0.8163 -1.3947  0.4702
 8467TIP3   OH246891   2.641   6.604  11.659 -0.2401  0.5349 -0.2541
 8467TIP3    H146892   2.588   6.648  11.592 -0.4127  0.0125 -0.4663
 8467TIP3    H246893   2.630   6.659  11.737  1.9947  2.5359 -1.2984
 8468TIP3   OH246894   1.804   4.862   2.642 -0.6567 -0.0079 -0.2496
 8468TIP3    H146895   1.897   4.877   2.657 -0.2872 -0.0741 -2.4432
 8468TIP3    H246896   1.771   4.833   2.728  0.9368  1.8050  1.0277
 8469TIP3   OH246897   4.170   2.440   3.322 -0.5111 -0.5670 -0.3517
 8469TIP3    H146898   4.149   2.370   3.385 -0.0873 -0.9073 -0.5903
 8469TIP3    H246899   4.233   2.400   3.262  1.0755  0.5400  0.5314
 8470TIP3   OH246900   6.607   0.023  13.524 -0.0520  0.1430 -0.4179
 8470TIP3    H146901   6.674  -0.002  13.589  1.8007 -0.2570 -2.4246
 8470TIP3    H246902   6.579   0.110  13.551  1.7998  0.6049  0.0669
 8471TIP3   OH246903   6.098   2.376  15.188 -0.1988 -0.4729 -0.4780
 8471TIP3    H146904   6.164   2.333  15.243  2.7601  3.5026 -0.7163
 8471TIP3    H246905   6.095   2.322  15.109  1.4517 -1.7457  0.2941
 8472TIP3   OH246906   1.416   2.715   3.315 -0.4930  0.1033 -0.3616
 8472TIP3    H146907   1.395   2.751   3.401 -2.7806  0.4432 -1.0233
 8472TIP3    H246908   1.507   2.687   3.322 -0.2854  1.2237  1.7875
 8473TIP3   OH246909   5.818   1.757  10.193 -0.4793 -0.4251  0.0536
 8473TIP3    H146910   5.842   1.683  10.249 -1.3240 -0.4848  0.3402
 8473TIP3    H246911   5.745   1.725  10.140 -0.9515  0.2534  0.2865
 8474TIP3   OH246912   5.325   1.531   1.819 -0.0171  0.4492  0.3204
 8474TIP3    H146913   5.327   1.537   1.915 -1.0005 -1.4294  0.4774
 8474TIP3    H246914   5.266   1.601   1.792 -0.0773  0.7131  1.1200
 8475TIP3   OH246915   0.088   5.378   0.953  0.2904  0.0987 -0.2330
 8475TIP3    H146916   0.135   5.421   0.882  0.7865 -0.6008 -0.3334
 8475TIP3    H246917   0.128   5.414   1.033 -0.2711  0.8868 -0.3114
 8476TIP3   OH246918   1.030   1.957   1.701  0.1621  0.0916 -0.3487
 8476TIP3    H146919   1.045   1.999   1.616 -1.7986  0.6141 -0.4620
 8476TIP3    H246920   1.007   1.866   1.680  0.8709 -0.0962 -0.3091
 8477TIP3   OH246921   1.376   6.504   5.952  0.3844 -0.0938  0.1878
 8477TIP3    H146922   1.347   6.424   5.995 -0.3662  0.5327  0.8649
 8477TIP3    H246923   1.420   6.554   6.021  0.3780  0.3047 -0.0940
 8478TIP3   OH246924   2.304   0.953   1.997  0.6122  0.1050 -0.8694
 8478TIP3    H146925   2.346   1.038   2.006 -2.9360  2.0412 -1.4667
 8478TIP3    H246926   2.307   0.915   2.085  1.4037  1.2444 -0.4015
 8479TIP3   OH246927   4.097   5.650   1.049 -0.1849  0.1750 -0.1111
 8479TIP3    H146928   4.165   5.695   1.098  1.9205 -1.1462 -1.7306
 8479TIP3    H246929   4.094   5.562   1.087 -2.8039  0.9646  1.6375
 8480TIP3   OH246930   2.220   0.335  12.717  0.6426 -0.8436  0.2247
 8480TIP3    H146931   2.206   0.325  12.623  1.2350  1.5273 -0.1350
 8480TIP3    H246932   2.133   0.348  12.754  0.5732 -0.0502 -0.2213
 8481TIP3   OH246933   4.851   1.483   1.976  0.0456 -0.3061  0.0397
 8481TIP3    H146934   4.780   1.513   1.919  0.6422  0.2310 -0.4429
 8481TIP3    H246935   4.893   1.413   1.927 -1.2695 -1.8735  1.1187
 8482TIP3   OH246936   2.751   2.007   2.612  0.2117 -0.2810 -0.3247
 8482TIP3    H146937   2.755   1.911   2.613  0.4481 -0.2737 -0.5487
 8482TIP3    H246938   2.682   2.028   2.675 -0.3219 -0.6261 -0.7884
 8483TIP3   OH246939   5.791   0.126  14.967  0.4775  0.0083 -0.1508
 8483TIP3    H146940   5.771   0.205  14.916  0.9297  0.3124  0.1437
 8483TIP3    H246941   5.857   0.080  14.915  1.2053  0.4995  0.3343
 8484TIP3   OH246942   5.391   6.047   1.413  0.5760  0.3880  0.3076
 8484TIP3    H146943   5.365   6.100   1.488 -1.7289  0.1486 -0.2765
 8484TIP3    H246944   5.486   6.040   1.420  0.6452  2.4933  1.7698
 8485TIP3   OH246945   6.612   2.867   0.987  0.1614  0.4813  0.4003
 8485TIP3    H146946   6.596   2.848   0.895  0.1100  1.1487  0.2697
 8485TIP3    H246947   6.540   2.824   1.033  0.7378 -0.6926  0.2143
 8486TIP3   OH246948   1.550   3.303   5.125 -0.1283  0.1683  0.2895
 8486TIP3    H146949   1.551   3.238   5.054 -1.2179  0.1044  0.3301
 8486TIP3    H246950   1.629   3.283   5.176  0.5201  0.0360 -0.7385
 8487TIP3   OH246951   3.693   6.172   0.590  0.7283 -0.1629 -0.8746
 8487TIP3    H146952   3.679   6.264   0.616  0.8355 -0.2710 -0.4201
 8487TIP3    H246953   3.769   6.145   0.641  0.4678 -0.6159 -0.7259
 8488TIP3   OH246954   4.834   3.608   2.644 -0.5130  0.0411 -0.3426
 8488TIP3    H146955   4.889   3.687   2.646  0.3731 -0.5836  1.5245
 8488TIP3    H246956   4.764   3.627   2.706 -1.1392 -0.0531 -1.0228
 8489TIP3   OH246957   5.480   5.514  13.624  0.6810 -0.2755 -0.0648
 8489TIP3    H146958   5.576   5.521  13.622  0.5337  1.4612 -1.9108
 8489TIP3    H246959   5.452   5.590  13.675  0.2494 -0.7427  0.4112
 8490TIP3   OH246960   0.279   2.220  11.321 -0.9299 -0.0921  0.0456
 8490TIP3    H146961   0.266   2.252  11.411 -0.3958 -0.5778  0.2977
 8490TIP3    H246962   0.349   2.155  11.329  1.3726  2.1756 -1.2248
 8491TIP3   OH246963   2.274   0.262   2.137 -0.1013 -0.4569 -0.0632
 8491TIP3    H146964   2.238   0.349   2.153  0.3978 -0.0777 -0.9863
 8491TIP3    H246965   2.205   0.202   2.168  0.0518  0.2336  1.6894
 8492TIP3   OH246966   0.392   3.712  15.282 -0.0210  0.1607 -0.3395
 8492TIP3    H146967   0.359   3.630  15.319 -0.1443 -0.1628 -1.1616
 8492TIP3    H246968   0.482   3.692  15.257  0.6640  0.9014  1.4444
 8493TIP3   OH246969   2.453   5.627  16.289 -0.6820  0.6325  0.3693
 8493TIP3    H146970   2.364   5.607  16.317 -1.0827  0.8518 -0.7231
 8493TIP3    H246971   2.508   5.596  16.361 -1.6326  0.4432  1.0275
 8494TIP3   OH246972   0.603   2.878  11.770  0.2355  0.2106 -0.2284
 8494TIP3    H146973   0.521   2.924  11.754  0.4974  0.6410 -0.3582
 8494TIP3    H246974   0.581   2.809  11.831  0.1220  1.4257  1.1250
 8495TIP3   OH246975   2.934   6.346   5.438 -0.0009  0.2227 -0.6385
 8495TIP3    H146976   3.019   6.383   5.414 -0.2326  1.0544 -0.2131
 8495TIP3    H246977   2.916   6.280   5.371  0.1100  1.3579 -1.8038
 8496TIP3   OH246978   2.046   6.360  15.337 -0.1037 -0.3672  0.4926
 8496TIP3    H146979   2.106   6.412  15.391 -2.0517  1.3591  1.0566
 8496TIP3    H246980   2.005   6.299  15.399  0.9426 -1.4809  0.1241
 8497TIP3   OH246981   0.818   2.970   5.866 -0.3729  0.1427 -0.4412
 8497TIP3    H146982   0.739   2.981   5.919  1.2292 -0.9519  2.3295
 8497TIP3    H246983   0.842   3.058   5.838 -0.7656  0.8734  1.4785
 8498TIP3   OH246984   0.782   1.891  10.716  0.6253  0.4175  0.6308
 8498TIP3    H146985   0.695   1.874  10.753 -0.7123  1.1939 -2.0264
 8498TIP3    H246986   0.832   1.812  10.735 -0.5564  0.0845  2.4602
 8499TIP3   OH246987   0.047   3.401   5.041 -0.8990 -0.5328 -0.3259
 8499TIP3    H146988   0.109   3.400   5.113 -0.7252  0.9024 -0.4546
 8499TIP3    H246989   0.036   3.308   5.018  0.1237 -0.8916  0.5961
 8500TIP3   OH246990   2.110   4.924  16.169 -0.1435 -0.0211 -0.2819
 8500TIP3    H146991   2.034   4.979  16.182 -1.1265 -1.3372 -0.3699
 8500TIP3    H246992   2.092   4.845  16.220  0.0638 -1.3705 -2.2418
 8501TIP3   OH246993   5.366   1.517  16.982 -0.0963 -0.0493 -0.1290
 8501TIP3    H146994   5.375   1.605  16.946  0.2578 -0.3780 -0.8486
 8501TIP3    H246995   5.447   1.472  16.956 -0.3593 -0.6440  0.0744
 8502TIP3   OH246996   1.247   5.937  16.394  0.4044  0.7077  0.3065
 8502TIP3    H146997   1.247   5.867  16.328  2.2663 -3.1362  4.1248
 8502TIP3    H246998   1.158   5.935  16.430  0.9704 -1.0092  1.6569
 8503TIP3   OH246999   5.378   6.717  14.819 -0.3299  0.1562  0.0757
 8503TIP3    H147000   5.358   6.772  14.743 -0.2453 -0.9845 -0.7825
 8503TIP3    H247001   5.302   6.728  14.877 -0.4467  0.9383 -0.2151
 8504TIP3   OH247002   6.104   5.213  14.429 -0.3347  0.1263 -0.4900
 8504TIP3    H147003   6.042   5.278  14.394  0.2257  0.3921 -0.9993
 8504TIP3    H247004   6.187   5.260  14.434  0.0055 -0.4656 -0.5543
 8505TIP3   OH247005   0.983   4.904  11.639 -0.1623 -0.8947  0.1315
 8505TIP3    H147006   0.936   4.821  11.635 -1.4926 -0.1536  0.1051
 8505TIP3    H247007   0.984   4.936  11.548 -0.9947 -0.1613  0.3683
 8506TIP3   OH247008   0.833   1.905  13.795  0.1795  0.6262 -0.0267
 8506TIP3    H147009   0.877   1.906  13.710  0.0238 -0.7973 -0.1325
 8506TIP3    H247010   0.887   1.962  13.850  1.5474 -0.2169 -0.4617
 8507TIP3   OH247011   1.258   4.882   0.632  0.1270  0.3132 -0.1733
 8507TIP3    H147012   1.181   4.906   0.685 -0.2257 -0.0131 -0.5364
 8507TIP3    H247013   1.256   4.943   0.558  1.5005  1.7952  0.9907
 8508TIP3   OH247014   4.783   4.149  14.916 -0.4823 -0.4601 -0.0143
 8508TIP3    H147015   4.791   4.064  14.874  2.6770 -0.3760  0.3067
 8508TIP3    H247016   4.768   4.210  14.844  0.6772 -0.8541 -0.6020
 8509TIP3   OH247017   2.937   1.826   4.379 -0.4253  0.5045 -0.0661
 8509TIP3    H147018   2.870   1.858   4.318  0.4780  0.3896 -1.1395
 8509TIP3    H247019   2.960   1.739   4.345 -0.1255  0.3219  0.6073
 8510TIP3   OH247020   2.493   6.387  11.946 -0.1198 -0.1119 -0.2786
 8510TIP3    H147021   2.469   6.323  12.012 -1.0480  0.5069 -0.0071
 8510TIP3    H247022   2.558   6.342  11.892 -0.3515 -1.0858  0.2356
 8511TIP3   OH247023   1.130   6.545  11.521 -0.1418  0.4672  0.0742
 8511TIP3    H147024   1.116   6.609  11.591 -0.7346 -1.9741  2.2707
 8511TIP3    H247025   1.077   6.470  11.547  1.3351 -1.3165 -1.9151
 8512TIP3   OH247026   1.453   4.483   0.574 -0.2637 -0.3482  0.1577
 8512TIP3    H147027   1.357   4.483   0.571 -0.3412  0.9805  2.0048
 8512TIP3    H247028   1.476   4.558   0.629  1.7448 -2.1618  1.9158
 8513TIP3   OH247029   3.919   0.167  11.204  0.2579  0.4039 -0.5506
 8513TIP3    H147030   3.985   0.099  11.194 -1.1982 -1.0570 -0.5061
 8513TIP3    H247031   3.919   0.213  11.121  1.5766  0.6434 -0.4198
 8514TIP3   OH247032   2.227   0.785  16.189  1.0231  0.3832 -0.0317
 8514TIP3    H147033   2.248   0.848  16.259  1.5769  0.3942 -0.2039
 8514TIP3    H247034   2.307   0.779  16.137  0.7098  0.1407 -0.4902
 8515TIP3   OH247035   2.298   2.398  11.563 -0.2162  0.5680  0.1124
 8515TIP3    H147036   2.262   2.410  11.476 -1.0420 -0.7970  0.2506
 8515TIP3    H247037   2.371   2.336  11.551 -0.8856 -0.3098  0.5006
 8516TIP3   OH247038   1.815   3.354   3.508  0.1979  0.5598 -0.4518
 8516TIP3    H147039   1.781   3.430   3.555 -1.1251 -0.9923  1.1924
 8516TIP3    H247040   1.755   3.283   3.531  1.7367 -1.1162 -1.4655
 8517TIP3   OH247041   1.327   5.581   5.287  0.1913  0.1500 -0.2546
 8517TIP3    H147042   1.307   5.499   5.333  2.2758 -0.6417 -0.6826
 8517TIP3    H247043   1.294   5.567   5.198  0.4338 -0.2100 -0.2941
 8518TIP3   OH247044   0.319   3.666   1.281 -0.2177  0.2225  0.4198
 8518TIP3    H147045   0.295   3.576   1.298  0.2069 -0.2676 -1.4483
 8518TIP3    H247046   0.236   3.713   1.276 -0.7226 -0.8881 -2.9106
 8519TIP3   OH247047   4.062   3.251  12.858 -0.5337 -0.3404 -0.2555
 8519TIP3    H147048   4.033   3.298  12.936  0.0907 -1.6159  0.7434
 8519TIP3    H247049   4.137   3.302  12.826 -0.3133 -0.2532  0.4024
 8520TIP3   OH247050   4.690   1.738   5.704  0.1009  0.3542 -0.2191
 8520TIP3    H147051   4.649   1.817   5.739  0.8963  0.2042  1.0725
 8520TIP3    H247052   4.748   1.707   5.774  3.8583  1.5837 -2.5789
 8521TIP3   OH247053   5.273   5.469   2.487 -0.1778 -0.1466 -1.0375
 8521TIP3    H147054   5.294   5.561   2.498  1.1312 -0.4929 -0.5613
 8521TIP3    H247055   5.181   5.468   2.460 -0.8274  1.1924  1.0433
 8522TIP3   OH247056   4.541   6.107  15.059 -0.0042  0.1166 -0.3475
 8522TIP3    H147057   4.517   6.109  15.151  1.4224 -1.5832  0.0946
 8522TIP3    H247058   4.476   6.163  15.016 -1.5568 -0.2215  1.4826
 8523TIP3   OH247059   6.063   1.741  16.831  0.7392 -0.5764  0.2906
 8523TIP3    H147060   6.056   1.684  16.907 -1.8629 -0.7851 -0.0541
 8523TIP3    H247061   6.072   1.829  16.868  0.6157 -0.7907  0.8328
 8524TIP3   OH247062   4.558   3.539  15.172  0.0089  0.7517  0.3894
 8524TIP3    H147063   4.643   3.570  15.140  0.5194  0.4541  1.4415
 8524TIP3    H247064   4.524   3.485  15.101  0.9913  0.3507  0.2158
 8525TIP3   OH247065   0.982   2.562   5.449 -0.1150  0.5191  0.0198
 8525TIP3    H147066   0.956   2.487   5.396  1.0288  1.7217 -2.3299
 8525TIP3    H247067   0.935   2.550   5.532 -1.6744 -1.5997 -1.1085
 8526TIP3   OH247068   5.381   3.243  16.986  0.6409  0.5556  0.2343
 8526TIP3    H147069   5.291   3.252  17.017  0.2398 -1.2961 -0.3407
 8526TIP3    H247070   5.384   3.296  16.906 -0.4248 -0.6965 -0.6648
 8527TIP3   OH247071   4.655   2.562  16.239  0.3105 -0.0738 -0.4348
 8527TIP3    H147072   4.701   2.516  16.309  1.1700  0.8027 -0.4158
 8527TIP3    H247073   4.580   2.602  16.282 -0.8016 -1.9565 -0.5642
 8528TIP3   OH247074   2.921   5.458   1.883 -0.1314  0.0831  0.4729
 8528TIP3    H147075   2.926   5.434   1.976 -1.9416 -0.1380  0.5298
 8528TIP3    H247076   2.883   5.546   1.883 -1.7322 -0.5835 -0.1084
 8529TIP3   OH247077   2.012   2.586   5.594 -0.3317  0.5636  0.4032
 8529TIP3    H147078   1.996   2.583   5.689 -0.4370  1.3575  0.4059
 8529TIP3    H247079   1.991   2.497   5.565 -1.1770  0.5591  0.9808
 8530TIP3   OH247080   1.655   6.200   1.478  0.0491  0.2387 -0.7564
 8530TIP3    H147081   1.727   6.147   1.512  0.0816 -0.0976 -1.3447
 8530TIP3    H247082   1.611   6.143   1.415 -1.7165 -0.1578  0.7599
 8531TIP3   OH247083   5.529   4.883   3.896 -0.0337 -0.3563  0.4060
 8531TIP3    H147084   5.448   4.923   3.928  0.4673  1.5487 -0.6006
 8531TIP3    H247085   5.539   4.803   3.947 -2.2378 -0.3041  0.9520
 8532TIP3   OH247086   3.450   0.486   5.930 -0.3543 -0.2493  0.2222
 8532TIP3    H147087   3.418   0.568   5.967 -2.7780 -1.2196  0.3348
 8532TIP3    H247088   3.374   0.449   5.885  1.6536 -0.6360 -3.0380
 8533TIP3   OH247089   0.033   4.881   4.406  0.1119 -0.2994 -0.1782
 8533TIP3    H147090   0.098   4.880   4.476 -1.3717 -0.3129  1.2154
 8533TIP3    H247091   0.036   4.792   4.370  0.5436 -0.4291  0.1743
 8534TIP3   OH247092   6.332   3.730  16.356  0.3638  0.2005  0.5128
 8534TIP3    H147093   6.305   3.719  16.447 -0.3849 -0.6700  0.1928
 8534TIP3    H247094   6.253   3.709  16.305  0.2486  2.4223 -0.2832
 8535TIP3   OH247095   2.332   2.357   6.051  0.8083 -0.2802 -0.3251
 8535TIP3    H147096   2.365   2.441   6.021  0.6856 -0.3860 -0.7738
 8535TIP3    H247097   2.363   2.294   5.985  0.8338 -0.5729 -0.0371
 8536TIP3   OH247098   5.535   4.282   1.828 -0.0664  0.1167 -0.1615
 8536TIP3    H147099   5.506   4.354   1.883 -0.3984  0.4522 -0.7651
 8536TIP3    H247100   5.624   4.262   1.858 -0.6170 -0.3731  1.1525
 8537TIP3   OH247101   6.518   3.132   2.762 -0.0441  0.0068 -0.0015
 8537TIP3    H147102   6.445   3.187   2.733  0.5380 -0.3055 -2.2068
 8537TIP3    H247103   6.477   3.047   2.783 -0.4516  0.1468 -0.2218
 8538TIP3   OH247104   1.159   3.098   0.349  0.2112  0.5064  0.1352
 8538TIP3    H147105   1.151   3.184   0.391  1.3540  0.2550  0.8903
 8538TIP3    H247106   1.166   3.037   0.422 -1.1057 -0.2971 -0.3882
 8539TIP3   OH247107   3.361   5.386   4.847 -0.6245  0.4293 -0.0818
 8539TIP3    H147108   3.334   5.299   4.816 -0.3043 -0.0936  1.0440
 8539TIP3    H247109   3.410   5.424   4.775 -1.8333  0.1775 -1.0555
 8540TIP3   OH247110   4.618   2.178  14.234 -0.3077 -0.4079 -0.1453
 8540TIP3    H147111   4.704   2.220  14.235  0.0592 -1.1356  1.7233
 8540TIP3    H247112   4.628   2.104  14.174  0.5336 -0.7897  0.4542
 8541TIP3   OH247113   4.030   4.303   6.128  0.1495  0.1261 -0.3459
 8541TIP3    H147114   3.949   4.257   6.148  0.1953  0.8147  1.4734
 8541TIP3    H247115   4.002   4.384   6.086 -0.0631 -0.0049 -0.4588
 8542TIP3   OH247116   3.313   3.713  11.906  0.5746  0.2847  0.4621
 8542TIP3    H147117   3.223   3.721  11.937  0.0532  0.3156 -0.9886
 8542TIP3    H247118   3.324   3.619  11.890  0.9729  0.2176  1.1404
 8543TIP3   OH247119   3.169   4.746  12.951 -0.1547  0.2184  0.1305
 8543TIP3    H147120   3.103   4.753  12.882 -1.1450  0.3542  1.0773
 8543TIP3    H247121   3.158   4.657  12.985  1.4941 -0.4537 -1.0241
 8544TIP3   OH247122   2.974   5.454  11.906 -0.7461  0.3437  0.0009
 8544TIP3    H147123   2.921   5.404  11.843 -2.4231  3.0307 -0.8150
 8544TIP3    H247124   2.954   5.545  11.887  1.2798  1.3244  2.2840
 8545TIP3   OH247125   6.717   5.266   0.474  0.1064  0.0803  0.7923
 8545TIP3    H147126   6.744   5.355   0.495 -2.5108  0.9375  0.6901
 8545TIP3    H247127   6.766   5.211   0.535  0.2774  1.7503  2.1970
 8546TIP3   OH247128   6.188   4.027  15.472  0.1447  0.1156 -0.2033
 8546TIP3    H147129   6.165   4.094  15.536  1.4651  0.1802  0.2119
 8546TIP3    H247130   6.132   3.952  15.494 -0.9604  0.8867 -0.3480
 8547TIP3   OH247131   6.092   4.151  12.597  0.1450 -0.3712  0.4137
 8547TIP3    H147132   6.177   4.191  12.576 -0.0709 -0.4255 -0.5768
 8547TIP3    H247133   6.064   4.196  12.676  1.1035 -0.3555  0.7569
 8548TIP3   OH247134   4.555   1.287  13.574  0.6518 -0.0258 -0.0477
 8548TIP3    H147135   4.616   1.311  13.643  0.3123  1.2861 -0.1978
 8548TIP3    H247136   4.572   1.349  13.504  0.6324 -1.0198 -0.9500
 8549TIP3   OH247137   4.516   0.109   1.310  0.0204  0.4592 -0.1015
 8549TIP3    H147138   4.456   0.050   1.264 -0.5129  2.3999 -1.9614
 8549TIP3    H247139   4.587   0.124   1.248  0.7398  0.8545  0.8056
 8550TIP3   OH247140   1.140   3.392   3.064  0.1108 -0.1509 -0.6172
 8550TIP3    H147141   1.202   3.319   3.052  3.2356  1.7037  3.2729
 8550TIP3    H247142   1.080   3.361   3.131  0.5842  0.3300  0.0288
 8551TIP3   OH247143   4.427   4.290   5.130  0.1028  0.1059 -0.2067
 8551TIP3    H147144   4.511   4.328   5.104  0.1062  0.1342 -0.1540
 8551TIP3    H247145   4.435   4.280   5.225 -0.1183  0.5098 -0.1469
 8552TIP3   OH247146   0.395   3.019  14.336  0.1470 -0.4547 -0.3899
 8552TIP3    H147147   0.334   2.975  14.395 -0.3065 -1.4442 -1.5760
 8552TIP3    H247148   0.381   3.112  14.352  0.8277 -0.6931  1.8648
 8553TIP3   OH247149   1.122   3.785  15.586 -0.5257 -0.3390 -0.8687
 8553TIP3    H147150   1.194   3.806  15.526  0.5035 -4.0721 -1.0680
 8553TIP3    H247151   1.043   3.789  15.532  0.0712 -0.7261 -1.7798
 8554TIP3   OH247152   0.614   4.664   5.118 -0.5640  0.1546 -0.2174
 8554TIP3    H147153   0.640   4.649   5.027 -1.4085  0.1066 -0.4610
 8554TIP3    H247154   0.651   4.750   5.140  0.9317 -0.5046 -0.1059
 8555TIP3   OH247155   0.539   2.106  13.734  0.1189 -0.1503  0.3181
 8555TIP3    H147156   0.599   2.073  13.801  1.1737  0.1444 -0.4700
 8555TIP3    H247157   0.596   2.151  13.671 -1.0459  1.1476  0.1607
 8556TIP3   OH247158   0.474   3.630  11.152 -0.3747 -0.2170  0.2082
 8556TIP3    H147159   0.469   3.595  11.063  2.2685 -1.2616  0.4141
 8556TIP3    H247160   0.384   3.627  11.184 -1.2455 -0.5771 -2.1291
 8557TIP3   OH247161   5.776   6.177  14.135  0.2058  0.5716 -0.1629
 8557TIP3    H147162   5.766   6.083  14.119  0.1946  0.6701 -0.7515
 8557TIP3    H247163   5.755   6.218  14.051 -0.4928  1.1450  0.2840
 8558TIP3   OH247164   0.764   4.255  13.862 -0.4953 -0.0189 -0.2893
 8558TIP3    H147165   0.683   4.291  13.826  1.1871  2.7468 -1.5647
 8558TIP3    H247166   0.793   4.192  13.796 -1.2323 -0.4726 -0.1829
 8559TIP3   OH247167   0.389   1.475   2.793  1.0568  0.6133  0.3303
 8559TIP3    H147168   0.385   1.561   2.835 -1.0406  0.4962  0.4270
 8559TIP3    H247169   0.352   1.489   2.706 -0.1012 -0.3531  0.6543
 8560TIP3   OH247170   5.849   3.189   0.621 -0.3401 -0.1803 -0.0257
 8560TIP3    H147171   5.836   3.182   0.526  1.0547 -0.5426 -0.1948
 8560TIP3    H247172   5.913   3.121   0.641  0.2255  0.6595  1.0123
 8561TIP3   OH247173   4.237   3.458  12.799  0.8834 -0.3860 -0.4816
 8561TIP3    H147174   4.289   3.466  12.879  0.9028 -0.3646 -0.4956
 8561TIP3    H247175   4.267   3.531  12.744  1.0569 -0.5574 -0.6117
 8562TIP3   OH247176   1.927   4.298  12.016 -0.1888  0.3520 -0.0346
 8562TIP3    H147177   1.947   4.301  12.109 -0.2812  2.8922 -0.0682
 8562TIP3    H247178   1.988   4.233  11.980  0.1758 -0.2867  1.6848
 8563TIP3   OH247179   2.785   5.216  17.155 -0.0775  0.1936  0.2868
 8563TIP3    H147180   2.792   5.161  17.233  0.2818  0.6644  0.5953
 8563TIP3    H247181   2.863   5.272  17.158 -0.7424  1.1377  0.3078
 8564TIP3   OH247182   0.288   1.905  16.105 -0.1299 -0.0019 -0.3503
 8564TIP3    H147183   0.289   1.902  16.201 -0.3287 -0.4252 -0.3592
 8564TIP3    H247184   0.280   1.814  16.078  1.6839 -0.0423 -0.8066
 8565TIP3   OH247185   0.992   3.908   6.690 -0.5554 -0.0196  0.2483
 8565TIP3    H147186   1.062   3.846   6.711  0.4876  1.1480  0.3137
 8565TIP3    H247187   0.921   3.884   6.749 -0.5049 -1.7235 -0.3535
 8566TIP3   OH247188   4.107   3.908   2.553  0.0628  0.0421  0.4411
 8566TIP3    H147189   4.122   3.958   2.472  0.9242 -0.2472  0.4160
 8566TIP3    H247190   4.082   3.975   2.617  0.8131  0.4631  0.3033
 8567TIP3   OH247191   5.979   3.068  11.803 -0.7894 -0.3677 -0.6063
 8567TIP3    H147192   5.973   3.024  11.888 -1.3049  0.5911 -0.1397
 8567TIP3    H247193   5.961   3.000  11.739  0.8414 -1.3827 -0.0066
 8568TIP3   OH247194   6.576   5.001   5.170  0.1590  0.0584  0.2169
 8568TIP3    H147195   6.667   5.024   5.183  0.3752 -0.3292 -0.5829
 8568TIP3    H247196   6.533   5.025   5.252  1.0100  0.0605  0.6670
 8569TIP3   OH247197   5.230   4.990   0.579 -0.0144  0.3124 -0.3711
 8569TIP3    H147198   5.307   5.006   0.634 -0.0596 -0.6602 -0.0101
 8569TIP3    H247199   5.216   5.072   0.532  1.3637  0.4262 -0.5877
 8570TIP3   OH247200   5.649   4.771  17.144  0.1916  0.1630  0.0291
 8570TIP3    H147201   5.595   4.741  17.071 -0.9640  0.1869  0.8607
 8570TIP3    H247202   5.732   4.723  17.134  0.7140  1.5039 -2.2934
 8571TIP3   OH247203   6.693   3.393  16.339  0.9073  0.3813  0.0877
 8571TIP3    H147204   6.750   3.319  16.360 -0.7657 -0.5249  1.5611
 8571TIP3    H247205   6.715   3.459  16.404  1.0133  0.4525 -0.0176
 8572TIP3   OH247206   1.834   1.875  14.000  0.0153 -0.2678 -0.2051
 8572TIP3    H147207   1.774   1.806  14.029  0.0819  0.2282  1.1210
 8572TIP3    H247208   1.798   1.904  13.916 -1.6030  0.0192  0.5796
 8573TIP3   OH247209   4.310   1.438   2.495  0.1511  0.0126 -0.2892
 8573TIP3    H147210   4.240   1.462   2.434  0.5507  0.5424 -0.5346
 8573TIP3    H247211   4.319   1.513   2.553  0.2669 -0.2042 -0.0231
 8574TIP3   OH247212   4.872   2.949  15.980 -0.0644  0.1551  0.1272
 8574TIP3    H147213   4.862   2.860  15.947  1.4380  0.3697 -0.9388
 8574TIP3    H247214   4.799   2.997  15.942 -0.1056 -0.3145 -0.3862
 8575TIP3   OH247215   4.809   2.033   1.934 -0.4980 -0.6016 -0.2759
 8575TIP3    H147216   4.803   1.951   1.982 -1.1628  0.3638  1.3076
 8575TIP3    H247217   4.746   2.091   1.976  0.0417  0.7704 -1.3032
 8576TIP3   OH247218   4.003   5.454   1.244  0.0895  0.1637  0.0691
 8576TIP3    H147219   3.977   5.370   1.205  2.2111 -0.7493  0.5979
 8576TIP3    H247220   3.935   5.473   1.309 -0.4355 -1.0893 -0.1154
 8577TIP3   OH247221   2.228   2.522   1.019  0.2248 -0.1094 -0.2786
 8577TIP3    H147222   2.255   2.445   0.970 -1.7179 -0.2144 -1.2282
 8577TIP3    H247223   2.204   2.586   0.951 -1.5140  0.0945  0.4861
 8578TIP3   OH247224   6.107   0.114   4.887  0.1115 -0.2149  0.0425
 8578TIP3    H147225   6.041   0.167   4.843 -1.3040 -2.9222 -1.2067
 8578TIP3    H247226   6.067   0.089   4.971  0.8367  0.7963  0.7007
 8579TIP3   OH247227   2.893   6.349  11.314 -0.2199 -0.0456  0.4731
 8579TIP3    H147228   2.803   6.365  11.287  0.3022  0.8941 -0.7986
 8579TIP3    H247229   2.946   6.386  11.243  1.1511 -1.4132  0.7459
 8580TIP3   OH247230   6.500   2.266   4.066 -0.0246 -0.3264 -0.8181
 8580TIP3    H147231   6.567   2.250   3.999  0.0809 -1.0174 -0.5539
 8580TIP3    H247232   6.507   2.359   4.086  1.8360 -0.6630  0.2420
 8581TIP3   OH247233   6.302   5.706   5.501  0.6058 -0.3347 -0.0564
 8581TIP3    H147234   6.241   5.661   5.443 -1.9462  0.8907  1.5662
 8581TIP3    H247235   6.310   5.648   5.577 -0.0866  0.3967  0.5849
 8582TIP3   OH247236   5.253   5.244   3.932 -0.0098  0.0428  1.2171
 8582TIP3    H147237   5.335   5.232   3.979 -0.2734 -2.4409  1.1206
 8582TIP3    H247238   5.190   5.190   3.980 -1.2708  0.8269  0.4703
 8583TIP3   OH247239   2.458   4.891   3.600  0.6513  0.0523  0.3715
 8583TIP3    H147240   2.398   4.906   3.673 -0.5236  0.8330 -0.7482
 8583TIP3    H247241   2.531   4.951   3.617 -0.1605  1.0816  0.2982
 8584TIP3   OH247242   1.659   3.195   0.095  0.6076  0.3040  0.1642
 8584TIP3    H147243   1.722   3.230   0.032 -0.9961  2.0118 -0.5390
 8584TIP3    H247244   1.690   3.225   0.180  0.5233  1.5168 -0.2246
 8585TIP3   OH247245   0.586   2.457   0.757 -0.6032 -0.5824 -0.3567
 8585TIP3    H147246   0.660   2.397   0.755  0.5160  0.6715  1.3686
 8585TIP3    H247247   0.574   2.483   0.666  1.7339 -0.0746 -0.5743
 8586TIP3   OH247248   4.453   2.222  12.375 -0.7943 -0.0365 -0.1635
 8586TIP3    H147249   4.466   2.133  12.343  0.8608 -0.0258  0.4729
 8586TIP3    H247250   4.371   2.250  12.334 -1.0020 -1.6214 -0.8544
 8587TIP3   OH247251   3.650   2.814   3.156  0.4348 -0.2920 -0.1739
 8587TIP3    H147252   3.555   2.810   3.160  0.4391 -1.6434 -1.1979
 8587TIP3    H247253   3.678   2.725   3.133  2.0146 -0.1915  1.2258
 8588TIP3   OH247254   6.787   1.208  14.124  0.4526  0.0769  0.1485
 8588TIP3    H147255   6.816   1.297  14.143 -0.5375  0.5825 -0.6289
 8588TIP3    H247256   6.826   1.189  14.038  0.9019 -0.3516  0.4460
 8589TIP3   OH247257   6.507   3.697   6.837  0.4518 -0.4132  0.0614
 8589TIP3    H147258   6.536   3.764   6.898  2.1768 -1.3599  0.3061
 8589TIP3    H247259   6.511   3.615   6.887 -0.3775 -0.8820 -0.6195
 8590TIP3   OH247260   0.349   5.699  11.031 -0.2557  0.0572  0.0501
 8590TIP3    H147261   0.356   5.759  10.956  0.6042  0.1910  0.2335
 8590TIP3    H247262   0.384   5.616  10.999  2.3456  0.7346  0.9748
 8591TIP3   OH247263   6.777   3.330  16.688  0.2014  0.7198 -0.1357
 8591TIP3    H147264   6.825   3.283  16.620 -0.8838  0.6038 -0.8311
 8591TIP3    H247265   6.782   3.422  16.661  0.6722  0.7864  0.1857
 8592TIP3   OH247266   6.708   6.151  12.752  0.2079 -0.7907 -0.4500
 8592TIP3    H147267   6.754   6.163  12.835  0.4513 -0.4934 -0.6252
 8592TIP3    H247268   6.618   6.129  12.777 -0.3950  1.8790 -0.1219
 8593TIP3   OH247269   4.542   2.359   0.307 -0.6549 -0.0274 -0.1062
 8593TIP3    H147270   4.515   2.420   0.375 -2.7588  0.4147 -1.2978
 8593TIP3    H247271   4.478   2.289   0.310 -0.1103 -0.5740 -0.8801
 8594TIP3   OH247272   2.778   6.121   3.296 -0.2775 -0.2818 -0.2034
 8594TIP3    H147273   2.779   6.141   3.202  0.4327  0.4928 -0.0348
 8594TIP3    H247274   2.741   6.199   3.336 -0.7822 -0.6982  0.1539
 8595TIP3   OH247275   3.517   0.796  13.126 -0.1984  0.1067  0.0456
 8595TIP3    H147276   3.456   0.868  13.141 -0.6051 -0.5278  1.5757
 8595TIP3    H247277   3.515   0.746  13.208  0.8431 -1.0627 -0.6284
 8596TIP3   OH247278   6.323   2.605   6.214  0.6213 -0.2400 -0.0898
 8596TIP3    H147279   6.265   2.534   6.243 -1.0413  1.8754  1.9404
 8596TIP3    H247280   6.404   2.590   6.263 -0.2349  0.0720  1.4577
 8597TIP3   OH247281   2.054   1.140  11.772 -0.0365  0.4126 -0.1027
 8597TIP3    H147282   2.103   1.058  11.783  0.5782  1.0455  2.2053
 8597TIP3    H247283   2.037   1.146  11.678  1.3124 -1.5577 -0.4936
 8598TIP3   OH247284   2.719   1.748  16.288  0.5784 -0.2326  0.4171
 8598TIP3    H147285   2.786   1.807  16.323  1.1572 -1.6785  1.7489
 8598TIP3    H247286   2.658   1.735  16.361 -0.7355  0.4075 -0.5379
 8599TIP3   OH247287   0.457   5.694   3.126 -0.1299 -0.1859 -0.2703
 8599TIP3    H147288   0.394   5.672   3.196 -0.8305  0.5663 -0.6607
 8599TIP3    H247289   0.518   5.620   3.126 -1.1884 -1.0831 -0.0840
 8600TIP3   OH247290   0.616   4.740  12.321  0.1351  0.3146 -0.2441
 8600TIP3    H147291   0.630   4.708  12.232  0.7468  1.0092 -0.3987
 8600TIP3    H247292   0.563   4.819  12.310  4.7126  3.5581 -0.4438
 8601TIP3   OH247293   6.509   0.337  12.407 -0.3319 -0.2773  0.4009
 8601TIP3    H147294   6.552   0.385  12.336  0.5095  0.5631  1.4663
 8601TIP3    H247295   6.488   0.251  12.369  0.7928 -0.1037 -0.6201
 8602TIP3   OH247296   1.017   0.289   2.339  0.5095 -0.3682  0.8158
 8602TIP3    H147297   1.013   0.207   2.288 -0.8066  0.9896 -1.3385
 8602TIP3    H247298   1.078   0.344   2.290  0.3320  0.4331  1.4951
 8603TIP3   OH247299   1.932   6.060   6.031 -0.0555  0.1538  0.0586
 8603TIP3    H147300   1.907   5.975   6.066 -0.0516  0.4183  0.7127
 8603TIP3    H247301   1.855   6.090   5.982 -0.7631  0.6485  1.4673
 8604TIP3   OH247302   0.999   2.669  14.079  0.0631 -0.5545 -0.7553
 8604TIP3    H147303   0.965   2.737  14.021  2.4579  0.1897 -1.3485
 8604TIP3    H247304   1.041   2.717  14.150 -0.9998 -1.4533  0.5019
 8605TIP3   OH247305   2.014   5.606   1.507 -0.4324  0.2914 -0.4890
 8605TIP3    H147306   2.020   5.624   1.413 -0.2584 -1.0252 -0.7422
 8605TIP3    H247307   2.105   5.600   1.535 -0.4840 -1.8700 -0.7525
 8606TIP3   OH247308   6.630   1.933  13.658 -0.2898 -0.3318 -0.0253
 8606TIP3    H147309   6.715   1.900  13.631  0.2015 -0.8762  2.1278
 8606TIP3    H247310   6.569   1.863  13.635 -0.0368 -0.3410 -0.6870
 8607TIP3   OH247311   0.373   3.643  13.821  0.1848  0.2827  0.1350
 8607TIP3    H147312   0.398   3.576  13.885  0.8979 -0.0160 -0.4500
 8607TIP3    H247313   0.405   3.609  13.738 -0.2260  0.9500 -0.2936
 8608TIP3   OH247314   5.582   2.550  13.742 -0.4552  0.2187  0.0904
 8608TIP3    H147315   5.578   2.455  13.746  0.8235  0.0529 -1.7461
 8608TIP3    H247316   5.676   2.570  13.738 -0.7482  1.4596 -0.9108
 8609TIP3   OH247317   6.262   5.100  12.079  0.1469 -0.0331  0.8597
 8609TIP3    H147318   6.349   5.138  12.091 -0.2534  0.4916  2.3144
 8609TIP3    H247319   6.228   5.140  11.999  1.4064 -0.5675  0.0470
 8610TIP3   OH247320   3.326   3.807  14.154  0.0030  0.0907  0.7199
 8610TIP3    H147321   3.338   3.865  14.078 -0.7360 -1.2301 -0.4122
 8610TIP3    H247322   3.351   3.861  14.229  0.5503  1.4798 -0.4387
 8611TIP3   OH247323   3.504   2.450   2.699  0.3472 -0.0905  0.2486
 8611TIP3    H147324   3.594   2.459   2.731  0.7231 -2.2410 -0.1733
 8611TIP3    H247325   3.509   2.477   2.607  0.1846  1.5730  0.7171
 8612TIP3   OH247326   0.897   0.716   3.127 -0.3545  0.8318  0.4862
 8612TIP3    H147327   0.803   0.721   3.109 -0.2732  1.6675  0.2978
 8612TIP3    H247328   0.912   0.780   3.195  0.1770  1.0916  0.1291
 8613TIP3   OH247329   1.236   1.648   3.049  0.3771 -0.0741 -0.2282
 8613TIP3    H147330   1.256   1.711   2.981 -3.2585  0.6630 -0.7273
 8613TIP3    H247331   1.244   1.562   3.007  0.1945  0.2971 -1.0125
 8614TIP3   OH247332   2.904   5.187  13.350  0.1940  0.0166  0.1687
 8614TIP3    H147333   2.855   5.107  13.330  0.0774  0.2446 -0.4496
 8614TIP3    H247334   2.966   5.160  13.418  0.0507 -0.5637  0.0740
 8615TIP3   OH247335   4.691   0.673  10.974 -0.1324  0.1115 -0.0522
 8615TIP3    H147336   4.784   0.676  10.999  0.2190 -0.9595 -1.1301
 8615TIP3    H247337   4.680   0.747  10.915  0.3745 -0.5234 -0.9584
 8616TIP3   OH247338   5.941   5.087  15.642  0.3677 -0.5172 -0.4550
 8616TIP3    H147339   5.884   5.080  15.719  0.8174  0.0128 -0.0770
 8616TIP3    H247340   5.934   5.179  15.616  3.3095  0.2665  1.3214
 8617TIP3   OH247341   4.904   4.116  17.175 -0.1749  0.3887  0.3486
 8617TIP3    H147342   4.824   4.119  17.124  0.3843 -0.2926 -0.5757
 8617TIP3    H247343   4.902   4.197  17.227 -0.9490  0.8780 -0.4267
 8618TIP3   OH247344   1.393   4.915  12.124 -0.0269 -0.1214 -0.1956
 8618TIP3    H147345   1.447   4.992  12.143  0.7499 -0.4531 -1.0214
 8618TIP3    H247346   1.348   4.937  12.043 -1.3793  0.2742  0.6522
 8619TIP3   OH247347   4.240   3.073   4.142  0.4581  0.3746  0.6204
 8619TIP3    H147348   4.290   3.123   4.207  1.2969 -0.3795  0.5723
 8619TIP3    H247349   4.162   3.043   4.188  0.1933  1.3081  0.7875
 8620TIP3   OH247350   3.250   2.552   4.241 -0.7133 -0.1199  0.9299
 8620TIP3    H147351   3.202   2.619   4.193 -0.0623 -0.5995 -0.4386
 8620TIP3    H247352   3.218   2.469   4.206 -0.4124 -0.4887  1.5136
 8621TIP3   OH247353   3.062   3.516  10.371  0.4100  0.6962  0.3652
 8621TIP3    H147354   3.120   3.447  10.402 -0.9448 -0.5023  0.2959
 8621TIP3    H247355   3.094   3.537  10.284  0.3059 -0.4757  0.0348
 8622TIP3   OH247356   3.078   6.648   1.716 -0.2146 -0.6577  0.3194
 8622TIP3    H147357   3.135   6.598   1.774 -1.4038 -0.9300  1.2754
 8622TIP3    H247358   3.138   6.692   1.655  0.9744 -1.2996  1.0104
 8623TIP3   OH247359   5.317   2.553  15.780  0.2073 -1.0341  0.0019
 8623TIP3    H147360   5.299   2.603  15.701  1.9205  0.8818  0.7583
 8623TIP3    H247361   5.412   2.554  15.788  0.0364 -0.3426  2.5810
 8624TIP3   OH247362   5.407   3.161   2.880 -0.3220  0.5506 -0.3597
 8624TIP3    H147363   5.448   3.147   2.966 -0.8447  2.1950  0.1777
 8624TIP3    H247364   5.326   3.110   2.883 -0.4440  0.7720  0.2237
 8625TIP3   OH247365   3.099   6.653   0.453 -0.0443 -0.6331  0.2665
 8625TIP3    H147366   3.110   6.680   0.362 -2.2790  3.1028  0.9870
 8625TIP3    H247367   3.155   6.712   0.503 -1.0784 -0.7120  1.5475
 8626TIP3   OH247368   5.369   4.106  17.096  0.5813 -0.3205  0.5043
 8626TIP3    H147369   5.349   4.111  17.002  0.0805  1.3458  0.6739
 8626TIP3    H247370   5.444   4.047  17.102  0.4441 -0.6609 -0.9163
 8627TIP3   OH247371   1.831   3.740  16.719  0.1985 -0.4070  0.0032
 8627TIP3    H147372   1.813   3.667  16.660 -0.6024 -0.6878  0.5922
 8627TIP3    H247373   1.797   3.712  16.803 -0.2621  0.7179  0.1980
 8628TIP3   OH247374   6.276   5.524   5.705 -0.5026 -0.7271  0.0980
 8628TIP3    H147375   6.275   5.428   5.710  0.2133 -0.7098  0.6649
 8628TIP3    H247376   6.192   5.550   5.744 -1.8811 -1.1953 -2.4196
 8629TIP3   OH247377   4.490   1.737  15.205 -0.1914 -1.0763  0.5419
 8629TIP3    H147378   4.458   1.654  15.170  0.2051 -1.0619  0.1404
 8629TIP3    H247379   4.534   1.780  15.131  0.6697 -1.0573  1.0482
 8630TIP3   OH247380   6.384   2.244   1.358 -0.0567  0.0048  0.4037
 8630TIP3    H147381   6.434   2.251   1.440  0.1508 -2.8699  0.5734
 8630TIP3    H247382   6.302   2.201   1.384 -1.1779  1.5751 -0.4604
 8631TIP3   OH247383   2.074   1.181   2.189 -0.4348 -0.2626  0.2948
 8631TIP3    H147384   2.006   1.131   2.144  0.2775 -1.2998  0.3376
 8631TIP3    H247385   2.148   1.181   2.128 -0.1122 -0.0611  0.6842
 8632TIP3   OH247386   6.807   0.506   4.989  0.2792 -0.5897 -0.2600
 8632TIP3    H147387   6.844   0.553   4.914 -0.2452  1.0568  0.4894
 8632TIP3    H247388   6.751   0.438   4.949  1.4662 -0.9376 -1.3594
 8633TIP3   OH247389   3.010   4.544  14.868  0.0793  0.1028  0.6159
 8633TIP3    H147390   3.076   4.549  14.937 -0.4310 -0.4828  1.1500
 8633TIP3    H247391   2.927   4.557  14.913 -0.4111 -2.1496  0.4213
 8634TIP3   OH247392   4.828   0.934  15.304 -0.5677 -0.4596 -0.3108
 8634TIP3    H147393   4.753   0.989  15.280 -0.8640 -1.0252 -0.6892
 8634TIP3    H247394   4.861   0.972  15.386  0.5106  1.5529 -1.6305
 8635TIP3   OH247395   6.757   0.288  16.251  0.1282  0.2714 -0.2583
 8635TIP3    H147396   6.692   0.349  16.286 -0.0234  0.0164 -0.0984
 8635TIP3    H247397   6.822   0.345  16.209  0.4374  0.6006  0.6404
 8636TIP3   OH247398   3.611   3.036   2.400 -0.0271 -0.1843 -0.3410
 8636TIP3    H147399   3.523   3.001   2.388 -0.3592 -0.4047  2.5173
 8636TIP3    H247400   3.598   3.124   2.434  0.8550  0.3295 -1.3102
 8637TIP3   OH247401   0.693   1.961  15.732  0.5279  0.1012  0.0019
 8637TIP3    H147402   0.618   1.911  15.698  0.6240 -0.5273  0.6864
 8637TIP3    H247403   0.709   2.029  15.666 -1.0882  0.6836  0.1908
 8638TIP3   OH247404   1.896   4.236  16.675  0.4252 -0.2074  0.2855
 8638TIP3    H147405   1.807   4.252  16.644  0.3521 -0.9093  0.1321
 8638TIP3    H247406   1.890   4.155  16.726  0.7753  0.3022  1.1541
 8639TIP3   OH247407   4.615   1.970  10.783  1.1616  0.0421  0.0196
 8639TIP3    H147408   4.616   1.878  10.757  1.7003 -0.2028  0.8955
 8639TIP3    H247409   4.674   2.013  10.721 -0.5137  0.1289 -1.5524
 8640TIP3   OH247410   0.045   4.794  15.869 -0.1773  0.0729  0.1799
 8640TIP3    H147411   0.076   4.859  15.806 -2.1406  0.8882  0.0018
 8640TIP3    H247412   0.009   4.846  15.941  0.2862 -0.8438  1.0796
 8641TIP3   OH247413   6.314   1.430   2.891  0.0914  0.3917  1.0467
 8641TIP3    H147414   6.375   1.504   2.891  0.1232  0.3750 -0.6833
 8641TIP3    H247415   6.367   1.356   2.861 -0.7261  0.3447 -0.3098
 8642TIP3   OH247416   2.970   0.667   0.634 -0.1574 -0.2691  0.6338
 8642TIP3    H147417   3.045   0.635   0.585 -0.1911  1.1769 -0.4001
 8642TIP3    H247418   2.911   0.592   0.642  0.5672 -0.9213 -0.1411
 8643TIP3   OH247419   2.834   6.386   2.259  0.5904 -0.6476  0.3181
 8643TIP3    H147420   2.817   6.357   2.348  0.7528 -1.6117  0.0398
 8643TIP3    H247421   2.914   6.340   2.233 -0.0577 -1.2180 -0.7063
 8644TIP3   OH247422   5.839   2.304   2.013 -0.0501 -0.1707 -0.2225
 8644TIP3    H147423   5.908   2.238   2.008 -0.4993 -0.6799  0.2846
 8644TIP3    H247424   5.855   2.361   1.937  2.5812  1.3839  1.4393
 8645TIP3   OH247425   0.440   4.722   4.344  0.5077 -0.4187  0.6894
 8645TIP3    H147426   0.399   4.670   4.275  3.0108 -2.6267  0.7847
 8645TIP3    H247427   0.388   4.704   4.422 -0.7605  0.0410 -0.0283
 8646TIP3   OH247428   6.086   4.321  15.413  0.2277  0.3246 -0.2763
 8646TIP3    H147429   6.059   4.342  15.324  1.7843 -3.4925 -1.7720
 8646TIP3    H247430   6.169   4.367  15.425  1.9198 -2.0954 -2.2526
 8647TIP3   OH247431   0.019   0.414  14.018 -0.0432 -0.3690  0.1858
 8647TIP3    H147432   0.107   0.441  14.043 -0.1735 -0.5767  0.8668
 8647TIP3    H247433   0.026   0.392  13.925  0.4311  0.4370  0.0236
 8648TIP3   OH247434   4.760   2.863   1.311  0.1167 -0.2332  0.4695
 8648TIP3    H147435   4.836   2.829   1.358  2.3141  0.1410 -2.6514
 8648TIP3    H247436   4.729   2.788   1.259 -0.4335  0.1258  0.2765
 8649TIP3   OH247437   5.954   4.602   3.320  0.2245 -0.5269  0.7155
 8649TIP3    H147438   5.889   4.547   3.363 -1.4435  0.7538 -0.0928
 8649TIP3    H247439   5.929   4.601   3.227 -0.7122  2.6388  0.8719
 8650TIP3   OH247440   4.555   0.843   0.815 -0.6307 -0.4204  0.1521
 8650TIP3    H147441   4.590   0.816   0.730  0.2446  1.4024 -0.0938
 8650TIP3    H247442   4.605   0.791   0.878  0.5027  0.0256 -0.3465
 8651TIP3   OH247443   1.299   5.647  13.483 -0.2681 -0.4119 -0.9570
 8651TIP3    H147444   1.331   5.705  13.415 -1.5622 -0.6495 -1.7722
 8651TIP3    H247445   1.265   5.705  13.551  0.5688 -0.1916 -0.7124
 8652TIP3   OH247446   0.746   5.755   1.948 -0.3314 -0.5376  0.1326
 8652TIP3    H147447   0.761   5.772   1.855 -1.2057 -0.2977  0.0357
 8652TIP3    H247448   0.814   5.806   1.993 -0.7127  0.3695 -0.3154
 8653TIP3   OH247449   6.770   0.713   3.747  0.2223 -0.7377  0.2071
 8653TIP3    H147450   6.762   0.789   3.804  0.6930 -2.1125  2.1655
 8653TIP3    H247451   6.743   0.639   3.801  0.0294 -2.0163 -1.5694
 8654TIP3   OH247452   3.509   2.850   5.978  0.2870 -0.1587 -0.5875
 8654TIP3    H147453   3.507   2.830   6.072 -0.0522  1.8334 -0.1452
 8654TIP3    H247454   3.420   2.832   5.948  0.6252 -1.6790 -0.7480
 8655TIP3   OH247455   1.929   5.530   0.032  0.1644  0.0636  0.3155
 8655TIP3    H147456   1.967   5.601  -0.018 -0.2493 -0.7520 -1.1902
 8655TIP3    H247457   1.836   5.552   0.040  0.2695  0.2998  0.9201
 8656TIP3   OH247458   0.860   1.478   0.370  0.4653  0.7653 -0.4943
 8656TIP3    H147459   0.830   1.428   0.446 -0.6845  1.2563 -0.6275
 8656TIP3    H247460   0.849   1.418   0.296 -0.2179  0.9668 -0.5510
 8657TIP3   OH247461   0.860   4.603   3.631 -0.3491  0.3766  0.1051
 8657TIP3    H147462   0.909   4.683   3.645  1.1313 -0.7460  1.5537
 8657TIP3    H247463   0.922   4.544   3.588 -1.0674 -0.3621  0.0716
 8658TIP3   OH247464   1.152   1.958  11.844  0.3367 -0.1206 -0.3621
 8658TIP3    H147465   1.137   1.898  11.771 -0.1731 -1.6603  1.0065
 8658TIP3    H247466   1.244   1.943  11.869  0.3227 -0.0512 -0.2670
 8659TIP3   OH247467   5.562   5.373  12.574 -0.1422  0.0133  0.5322
 8659TIP3    H147468   5.588   5.313  12.644  0.3477 -0.9275 -0.4597
 8659TIP3    H247469   5.575   5.460  12.612 -0.0963 -0.4923  1.6925
 8660TIP3   OH247470   6.587   2.105   4.343 -0.2801 -0.1399 -0.3039
 8660TIP3    H147471   6.497   2.078   4.326 -1.1787  1.5952  1.5538
 8660TIP3    H247472   6.596   2.190   4.299  0.1745  0.1003  0.2445
 8661TIP3   OH247473   6.283   3.860   4.810  0.1598  0.3752 -0.3316
 8661TIP3    H147474   6.229   3.891   4.737  0.7093  0.2452 -0.7932
 8661TIP3    H247475   6.234   3.788   4.847 -0.3610  0.7594 -0.2622
 8662TIP3   OH247476   1.285   4.031  11.736 -0.1378 -0.6538  0.4148
 8662TIP3    H147477   1.206   4.005  11.689 -0.4048  0.4923  0.2114
 8662TIP3    H247478   1.354   4.028  11.670  0.2473 -2.8552  0.8722
 8663TIP3   OH247479   1.585   4.978   5.576 -0.2967  0.3033 -0.1437
 8663TIP3    H147480   1.522   5.047   5.599  1.1856  1.5180  0.3413
 8663TIP3    H247481   1.572   4.964   5.483 -2.1796 -0.3778  0.1932
 8664TIP3   OH247482   2.583   0.800  11.570  0.3256  0.1688 -0.3335
 8664TIP3    H147483   2.622   0.759  11.493  0.6020  0.0856 -0.1516
 8664TIP3    H247484   2.566   0.891  11.543  0.4911  0.1608 -0.4650
 8665TIP3   OH247485   2.816   0.824  14.479 -0.4076  0.1515  0.1266
 8665TIP3    H147486   2.764   0.904  14.475  0.1318  0.5078  0.1547
 8665TIP3    H247487   2.896   0.850  14.526 -0.4080 -0.4999  0.4904
 8666TIP3   OH247488   6.512   0.674   4.309 -1.1777 -0.0058 -0.5831
 8666TIP3    H147489   6.551   0.754   4.342 -1.4233 -0.9124  1.9785
 8666TIP3    H247490   6.421   0.697   4.291 -1.8844 -0.2656  2.4155
 8667TIP3   OH247491   3.468   2.054  11.403  0.1632  0.1597 -0.5503
 8667TIP3    H147492   3.557   2.089  11.403 -0.1186  0.8746  0.0354
 8667TIP3    H247493   3.457   2.016  11.316  1.0616  0.0202 -0.6067
 8668TIP3   OH247494   1.365   4.444   6.378  0.8394  0.1154  0.1881
 8668TIP3    H147495   1.284   4.398   6.402  0.8076 -0.4412 -0.8939
 8668TIP3    H247496   1.390   4.492   6.456  0.3871 -1.0704  1.0839
 8669TIP3   OH247497   6.712   2.099   2.114  0.3715  0.5382  0.3315
 8669TIP3    H147498   6.644   2.047   2.156  0.5677  0.5514  0.6691
 8669TIP3    H247499   6.780   2.036   2.092 -0.2538  0.3367 -1.0733
 8670TIP3   OH247500   1.009   2.394   4.779 -0.3527 -0.1851 -0.0542
 8670TIP3    H147501   1.099   2.370   4.756 -0.4327 -2.9222  2.1376
 8670TIP3    H247502   0.958   2.377   4.700  1.2065  2.9224 -1.8562
 8671TIP3   OH247503   3.547   0.854   1.992 -0.3136 -1.2910 -0.6430
 8671TIP3    H147504   3.627   0.857   1.939 -1.5184 -0.2299 -2.4605
 8671TIP3    H247505   3.572   0.892   2.076  0.8957 -0.2386 -1.4614
 8672TIP3   OH247506   5.828   0.322   0.458 -0.0335  0.1076 -0.9996
 8672TIP3    H147507   5.893   0.252   0.450 -1.6595 -1.6250  0.5315
 8672TIP3    H247508   5.880   0.400   0.483  1.6574 -0.7819 -1.6434
 8673TIP3   OH247509   3.024   5.341   5.699  0.0387 -0.5375  0.3389
 8673TIP3    H147510   3.089   5.394   5.652 -0.6160 -0.6221 -0.6742
 8673TIP3    H247511   2.960   5.316   5.632 -0.3284 -1.5735  1.0551
 8674TIP3   OH247512   6.293   0.121  15.233  0.4163 -0.3934 -0.4020
 8674TIP3    H147513   6.266   0.030  15.245 -3.5751  0.7182 -0.2915
 8674TIP3    H247514   6.307   0.129  15.138 -0.3766 -0.8173 -0.5593
 8675TIP3   OH247515   6.051   5.128   4.049  0.3523 -0.1528 -0.1319
 8675TIP3    H147516   5.966   5.166   4.072  1.2751  1.6520  0.4404
 8675TIP3    H247517   6.059   5.142   3.955 -0.2994 -0.9849 -0.3110
 8676TIP3   OH247518   0.816   2.592  16.756  0.0445  0.4013 -0.3683
 8676TIP3    H147519   0.741   2.574  16.700 -1.1427  1.5169  0.8551
 8676TIP3    H247520   0.832   2.686  16.747  1.8967  0.0227 -1.3499
 8677TIP3   OH247521   5.031   3.154  12.152  0.2275 -0.1461  0.9932
 8677TIP3    H147522   4.983   3.072  12.154 -2.1133  1.1832  1.2833
 8677TIP3    H247523   5.002   3.197  12.071  0.4111  0.9634  1.5015
 8678TIP3   OH247524   1.877   0.090  12.808 -0.5000  0.4747 -0.1598
 8678TIP3    H147525   1.870   0.185  12.794  0.7750  0.6581  0.3077
 8678TIP3    H247526   1.955   0.064  12.759 -1.1053 -0.4095 -0.6485
 8679TIP3   OH247527   5.609   0.778  13.394  0.2368  0.4590  0.1041
 8679TIP3    H147528   5.695   0.743  13.370 -0.0004 -0.9788  1.2298
 8679TIP3    H247529   5.608   0.776  13.490 -2.1767 -2.5356  0.1181
 8680TIP3   OH247530   2.441   0.046  16.786 -0.4459  0.0750  0.2551
 8680TIP3    H147531   2.499   0.108  16.830 -1.3442  0.6861  0.5960
 8680TIP3    H247532   2.466  -0.039  16.822 -0.6519  0.4816  1.4003
 8681TIP3   OH247533   6.671   0.685   5.713 -0.1568 -0.3051  0.0049
 8681TIP3    H147534   6.616   0.656   5.639  1.8455 -0.1613 -1.5706
 8681TIP3    H247535   6.736   0.616   5.722 -0.4177 -0.3405  1.7107
 8682TIP3   OH247536   0.222   2.403  16.815 -0.0565 -0.0073  0.5653
 8682TIP3    H147537   0.317   2.416  16.808  0.1118 -0.4398  1.8306
 8682TIP3    H247538   0.184   2.481  16.776  0.8547  1.1064  1.8592
 8683TIP3   OH247539   4.845   4.048  11.108  0.1943  0.5582  0.0733
 8683TIP3    H147540   4.853   4.057  11.013 -2.0406  2.7539  0.0562
 8683TIP3    H247541   4.936   4.043  11.139  1.0054  1.9340 -1.9861
 8684TIP3   OH247542   1.672   3.717  11.311 -0.3704  0.3731  0.3579
 8684TIP3    H147543   1.698   3.643  11.256  1.4249 -0.0470  1.7182
 8684TIP3    H247544   1.580   3.700  11.332  0.0935 -1.6436  0.8738
 8685TIP3   OH247545   5.356   2.795   3.134 -0.1827  0.3492 -0.7201
 8685TIP3    H147546   5.381   2.880   3.099 -0.2226  0.4226 -0.5709
 8685TIP3    H247547   5.429   2.769   3.190 -0.4224  0.5440 -0.3189
 8686TIP3   OH247548   4.257   4.113   2.921  0.0800 -0.9082  0.6716
 8686TIP3    H147549   4.296   4.040   2.969  0.6883 -1.1202 -0.1300
 8686TIP3    H247550   4.330   4.172   2.904 -0.6137  0.4913  2.3578
 8687TIP3   OH247551   4.748   1.713  14.407  0.5523  0.3547  0.1353
 8687TIP3    H147552   4.832   1.668  14.406  0.7950  0.7713  1.2074
 8687TIP3    H247553   4.688   1.652  14.451  0.9382  1.1482  1.8087
 8688TIP3   OH247554   6.754   2.916   1.253 -0.2245 -0.0212 -0.5366
 8688TIP3    H147555   6.774   2.998   1.298 -2.5786 -0.8995  2.2735
 8688TIP3    H247556   6.659   2.917   1.242 -0.1176 -1.6699 -1.8566
 8689TIP3   OH247557   5.936   6.617   0.353  0.0723 -0.6259 -0.1369
 8689TIP3    H147558   5.972   6.626   0.264 -0.4084  0.6330 -0.2163
 8689TIP3    H247559   5.903   6.527   0.356  0.8457 -0.9482 -0.9523
 8690TIP3   OH247560   2.861   6.448  17.033  0.0220  0.2988 -0.3705
 8690TIP3    H147561   2.891   6.362  17.062  0.8670  0.2224 -1.4470
 8690TIP3    H247562   2.789   6.430  16.974 -0.3773  0.3712  0.0917
 8691TIP3   OH247563   2.568   5.993   4.731  0.3461  0.8427 -0.3636
 8691TIP3    H147564   2.541   6.077   4.768  0.3903  1.0938 -0.8860
 8691TIP3    H247565   2.488   5.941   4.729  0.6126  0.3470  1.3171
 8692TIP3   OH247566   6.262   4.488   0.080  1.0883  0.0370 -0.5546
 8692TIP3    H147567   6.240   4.507   0.172  1.0156 -0.5334 -0.4529
 8692TIP3    H247568   6.186   4.441   0.047  1.0562  0.3685 -0.9483
 8693TIP3   OH247569   0.255   3.380  14.136  0.3223 -0.2529 -0.0770
 8693TIP3    H147570   0.308   3.404  14.060 -0.5891 -0.4444 -0.7776
 8693TIP3    H247571   0.314   3.391  14.211  2.1506 -2.8082 -1.0475
 8694TIP3   OH247572   6.235   3.838  17.056  0.2975 -0.0992 -0.6805
 8694TIP3    H147573   6.299   3.789  17.108  1.3152  0.0538 -1.7561
 8694TIP3    H247574   6.247   3.805  16.967 -0.9592  0.1182 -0.9309
 8695TIP3   OH247575   4.248   3.441   5.431 -0.1741 -0.1610 -0.1623
 8695TIP3    H147576   4.161   3.445   5.471 -0.0518 -1.5898  0.2884
 8695TIP3    H247577   4.269   3.348   5.429  1.5128  0.2000  0.0840
 8696TIP3   OH247578   5.382   4.371  16.669  0.4407 -0.2798  0.0626
 8696TIP3    H147579   5.448   4.316  16.626  0.5326 -0.5481  0.5449
 8696TIP3    H247580   5.313   4.380  16.603  1.4742  0.9964 -0.8905
 8697TIP3   OH247581   2.361   2.082  13.069 -0.2162  0.1496  0.5679
 8697TIP3    H147582   2.379   2.065  13.161 -0.7976  0.0328  0.6643
 8697TIP3    H247583   2.351   2.177  13.064 -1.5085  0.0382  0.8782
 8698TIP3   OH247584   5.831   6.147   1.961  0.1771 -0.0657  0.3157
 8698TIP3    H147585   5.784   6.190   2.033  0.1743 -0.7936  0.7541
 8698TIP3    H247586   5.903   6.207   1.941  1.4351 -0.8397  2.3789
 8699TIP3   OH247587   1.068   1.330  13.658 -0.0473  0.2574 -0.3557
 8699TIP3    H147588   1.142   1.270  13.652 -0.6993 -0.7230  0.9739
 8699TIP3    H247589   1.015   1.310  13.581 -0.0807 -0.6435 -0.1022
 8700TIP3   OH247590   6.253   4.891   1.023  0.0865 -0.4678  0.1034
 8700TIP3    H147591   6.301   4.966   0.988  1.6383 -0.6411  1.7869
 8700TIP3    H247592   6.304   4.815   0.994 -0.2334 -0.7522  0.2860
 8701TIP3   OH247593   1.392   4.346   3.533 -0.0677  0.1530 -0.6533
 8701TIP3    H147594   1.351   4.428   3.559 -1.9899 -1.0164  0.1347
 8701TIP3    H247595   1.422   4.307   3.615  0.3218 -0.1999 -0.9602
 8702TIP3   OH247596   4.693   4.348  13.237 -0.3388  0.5787  0.3302
 8702TIP3    H147597   4.721   4.362  13.147  1.1699  1.3009  0.8871
 8702TIP3    H247598   4.652   4.262  13.237  0.0494  0.3933 -0.9500
 8703TIP3   OH247599   5.707   2.440  16.915 -0.6530  0.5420  0.3945
 8703TIP3    H147600   5.673   2.396  16.837 -2.7110  1.2631  0.8698
 8703TIP3    H247601   5.748   2.519  16.882 -0.9052  0.4996 -0.0198
 8704TIP3   OH247602   3.898   0.842  17.046  0.0911  0.2579 -0.5507
 8704TIP3    H147603   3.820   0.846  17.102  1.2768 -2.0689  1.3625
 8704TIP3    H247604   3.864   0.811  16.962 -1.0922 -0.8386  0.2910
 8705TIP3   OH247605   5.263   6.267   2.131 -0.0234  0.5833 -0.2233
 8705TIP3    H147606   5.265   6.186   2.182  0.1549  0.1843 -0.8565
 8705TIP3    H247607   5.188   6.315   2.164 -0.1258  0.1582  0.1588
 8706TIP3   OH247608   4.716   0.733  14.705 -0.0277 -0.4965 -0.0919
 8706TIP3    H147609   4.687   0.742  14.614 -0.7685  0.8219  0.2656
 8706TIP3    H247610   4.724   0.823  14.737 -1.6030 -0.9750  1.7091
 8707TIP3   OH247611   6.761   1.532  10.274  0.4341 -0.5305 -0.4601
 8707TIP3    H147612   6.831   1.592  10.302  0.1784  0.3658 -1.7178
 8707TIP3    H247613   6.779   1.452  10.323  2.6398 -0.4743 -1.1003
 8708TIP3   OH247614   2.096   4.274  16.471 -0.4424 -0.3608  0.0996
 8708TIP3    H147615   2.049   4.296  16.552 -0.2502  0.6320 -0.0526
 8708TIP3    H247616   2.033   4.222  16.421  0.2242 -2.9585  1.8496
 8709TIP3   OH247617   1.057   2.729   1.225 -0.4948  0.4712  0.5008
 8709TIP3    H147618   1.052   2.684   1.141 -1.1736 -0.3700  0.9862
 8709TIP3    H247619   1.056   2.822   1.202 -1.5640  0.2561 -0.3698
 8710TIP3   OH247620   5.763   3.273  11.716 -0.3385  0.0042 -0.2743
 8710TIP3    H147621   5.750   3.362  11.681  1.3965  0.3490 -0.0542
 8710TIP3    H247622   5.695   3.221  11.673  0.3002  0.8947 -2.4154
 8711TIP3   OH247623   3.928   2.361   3.208  0.0169  0.6994  0.7661
 8711TIP3    H147624   3.985   2.389   3.280  0.9824  1.3468 -0.2416
 8711TIP3    H247625   3.969   2.396   3.130 -0.0756 -1.4714 -0.2928
 8712TIP3   OH247626   2.833   2.239  15.009  0.3720  0.2604 -0.2796
 8712TIP3    H147627   2.768   2.305  15.030  3.1994  2.9447  0.4340
 8712TIP3    H247628   2.830   2.177  15.082 -1.5525  0.1686 -0.4208
 8713TIP3   OH247629   0.681   2.586   0.970 -0.1875 -0.6029  0.2998
 8713TIP3    H147630   0.619   2.558   0.902  0.4757 -1.0033 -0.1437
 8713TIP3    H247631   0.756   2.621   0.921  0.3900 -1.1112  0.8150
 8714TIP3   OH247632   5.906   2.229   5.589 -0.3178  0.3561 -0.3791
 8714TIP3    H147633   5.866   2.142   5.593 -1.6723  0.9750 -0.3341
 8714TIP3    H247634   5.924   2.251   5.681 -0.0263  0.1479 -0.3863
 8715TIP3   OH247635   2.805   0.576   2.123 -0.7651  0.0612  0.0848
 8715TIP3    H147636   2.805   0.504   2.060 -2.1375  0.8172 -0.8067
 8715TIP3    H247637   2.758   0.542   2.199 -0.4020 -0.3632  0.1184
 8716TIP3   OH247638   0.232   0.528   0.696 -0.6521  0.3917 -0.6570
 8716TIP3    H147639   0.139   0.514   0.680 -0.6963  1.0482 -0.9715
 8716TIP3    H247640   0.238   0.619   0.726 -0.2531  0.0040  0.4893
 8717TIP3   OH247641   2.703   5.855   0.883  0.4383  0.1215  0.3392
 8717TIP3    H147642   2.768   5.835   0.816 -0.1231 -0.5062 -0.0260
 8717TIP3    H247643   2.633   5.792   0.867 -0.2829  0.8308  0.6881
 8718TIP3   OH247644   0.590   1.335  15.244  0.1888 -0.1410 -0.4765
 8718TIP3    H147645   0.566   1.406  15.303  0.1752  0.1971 -0.8851
 8718TIP3    H247646   0.606   1.260  15.301 -1.5028 -0.2844 -0.1699
 8719TIP3   OH247647   6.133   0.990   4.865 -0.0432 -0.1948  0.0141
 8719TIP3    H147648   6.086   0.941   4.933  0.1342 -0.5776 -0.1324
 8719TIP3    H247649   6.082   1.070   4.854  0.2878  0.1725  1.0588
 8720TIP3   OH247650   4.940   5.490  13.987  0.6933 -0.8183 -0.4539
 8720TIP3    H147651   4.922   5.417  13.928  1.2713 -1.7942  0.5601
 8720TIP3    H247652   5.034   5.502  13.983  0.4000  1.1606 -2.1001
 8721TIP3   OH247653   6.683   1.030   1.114 -0.2002  0.0943  0.7535
 8721TIP3    H147654   6.652   0.942   1.138 -0.4050  0.5394  2.1462
 8721TIP3    H247655   6.606   1.075   1.081 -0.0977 -0.2404  0.0473
 8722TIP3   OH247656   2.406   5.236   1.833  0.3357 -0.7363 -0.3794
 8722TIP3    H147657   2.399   5.202   1.922 -0.4539  1.8860  0.6344
 8722TIP3    H247658   2.330   5.202   1.787 -0.5461 -0.1737  0.6594
 8723TIP3   OH247659   5.483   3.046   1.401  0.2317 -0.4611  0.3792
 8723TIP3    H147660   5.491   2.981   1.471  0.4921 -0.3953  0.4111
 8723TIP3    H247661   5.439   2.999   1.330 -0.8708 -0.2563  0.9237
 8724TIP3   OH247662   5.627   5.306  12.844 -0.1331  0.1315  0.4382
 8724TIP3    H147663   5.616   5.278  12.934 -0.8102  0.2160  0.3858
 8724TIP3    H247664   5.691   5.377  12.848 -0.1770  0.1483  0.8540
 8725TIP3   OH247665   0.655   5.904   5.714 -0.2213 -0.1941  0.2966
 8725TIP3    H147666   0.716   5.835   5.688 -0.4945 -0.8659  1.3884
 8725TIP3    H247667   0.707   5.984   5.714  0.2598 -0.5007 -0.3552
 8726TIP3   OH247668   3.958   5.084  13.064 -0.0060  0.0897  0.6828
 8726TIP3    H147669   3.884   5.026  13.048  0.6288 -0.7403  0.7515
 8726TIP3    H247670   3.999   5.096  12.979  1.6268 -1.9758  1.1235
 8727TIP3   OH247671   2.372   6.279   4.499 -0.4280 -0.7546 -0.1202
 8727TIP3    H147672   2.341   6.367   4.521  1.8399 -0.3420  1.6177
 8727TIP3    H247673   2.403   6.243   4.582  1.0257 -2.2082 -1.2695
 8728TIP3   OH247674   0.739   3.017   0.412 -0.6814 -0.3073  0.1544
 8728TIP3    H147675   0.797   3.004   0.337 -1.4832  1.5053 -0.8141
 8728TIP3    H247676   0.667   3.069   0.378 -0.5513  1.4483  2.4229
 8729TIP3   OH247677   2.818   3.551   2.710  0.5083  0.4258  0.0651
 8729TIP3    H147678   2.820   3.459   2.736  1.9266  0.6318  0.7346
 8729TIP3    H247679   2.786   3.597   2.788  1.6979  0.6957  0.4137
 8730TIP3   OH247680   3.139   5.116  15.532 -0.0577  0.2285  0.0478
 8730TIP3    H147681   3.175   5.126  15.620 -0.2049 -0.5998  0.2019
 8730TIP3    H247682   3.145   5.023  15.514  5.1980  0.9651 -3.0716
 8731TIP3   OH247683   2.173   4.636   5.762 -0.9001  0.4440 -0.2513
 8731TIP3    H147684   2.172   4.695   5.688  0.9395  1.0841  0.2067
 8731TIP3    H247685   2.156   4.691   5.838 -1.9241 -0.0659 -0.1041
 8732TIP3   OH247686   4.281   1.190  14.202  0.4776  0.2121 -0.6392
 8732TIP3    H147687   4.262   1.132  14.128 -0.5207 -0.2306 -0.0502
 8732TIP3    H247688   4.252   1.276  14.172 -0.0702  0.0069 -0.7154
 8733TIP3   OH247689   0.254   3.932  15.383  0.0277 -0.0086 -0.7900
 8733TIP3    H147690   0.323   3.880  15.342 -1.9110 -2.5391 -0.9596
 8733TIP3    H247691   0.250   3.900  15.473 -1.0515 -0.0020 -0.8305
 8734TIP3   OH247692   3.623   6.368  15.560 -0.4966 -0.5011  0.4709
 8734TIP3    H147693   3.580   6.444  15.520 -0.2715 -0.4835  0.2637
 8734TIP3    H247694   3.555   6.300  15.561 -0.3781 -0.6327 -0.3230
 8735TIP3   OH247695   3.783   4.587   2.530 -0.3416  0.2818 -0.3496
 8735TIP3    H147696   3.845   4.528   2.487  0.5914 -0.0138  1.3410
 8735TIP3    H247697   3.806   4.674   2.498  2.1083  0.3810  1.5304
 8736TIP3   OH247698   1.707   2.210   0.309 -0.6126 -0.2772  0.5351
 8736TIP3    H147699   1.796   2.225   0.277 -0.3698 -1.5936  0.5472
 8736TIP3    H247700   1.717   2.144   0.378 -1.4405  0.5648  1.4721
 8737TIP3   OH247701   0.004   1.543  14.448  0.0472 -0.3253  0.0064
 8737TIP3    H147702  -0.057   1.544  14.374  1.3286 -0.9282 -1.0706
 8737TIP3    H247703  -0.030   1.474  14.505 -0.7807 -0.0558 -0.1452
 8738TIP3   OH247704   3.408   3.101   5.308  0.1314  0.2777  0.5381
 8738TIP3    H147705   3.395   3.097   5.403 -0.4512  1.4715  0.5188
 8738TIP3    H247706   3.341   3.043   5.272 -1.4782  1.9880  0.7306
 8739TIP3   OH247707   6.546   1.630   5.661  0.0361  0.3750  0.6438
 8739TIP3    H147708   6.472   1.637   5.722  0.9026  2.0357  1.5291
 8739TIP3    H247709   6.524   1.688   5.589 -0.0587 -0.0344  0.3413
 8740TIP3   OH247710   2.615   0.240  16.110 -0.1214 -0.3498 -0.3548
 8740TIP3    H147711   2.531   0.197  16.095 -0.3345  0.2203 -0.8061
 8740TIP3    H247712   2.648   0.260  16.023  0.5198 -0.6411 -0.1819
 8741TIP3   OH247713   2.283   0.352  17.038  0.3387  0.4399  0.0017
 8741TIP3    H147714   2.339   0.429  17.052 -1.2300  1.2627  2.0506
 8741TIP3    H247715   2.292   0.301  17.119 -2.0935  0.7581  0.5059
 8742TIP3   OH247716   5.105   1.477   4.957 -0.2808  0.0986 -0.0324
 8742TIP3    H147717   5.162   1.403   4.977 -1.4416 -0.6917  0.3621
 8742TIP3    H247718   5.101   1.479   4.861  0.4720  0.2222 -0.0706
 8743TIP3   OH247719   5.804   2.246   3.618 -0.0136  0.3719  0.0233
 8743TIP3    H147720   5.719   2.279   3.648  0.1547  1.4322 -0.6570
 8743TIP3    H247721   5.784   2.162   3.577 -0.6148  0.2083  0.6285
 8744TIP3   OH247722   0.072   2.009  10.738  0.2874 -0.2603  0.5416
 8744TIP3    H147723  -0.009   1.986  10.692  1.1217 -0.7706 -0.7098
 8744TIP3    H247724   0.068   2.104  10.747  0.2984 -0.0958 -0.9960
 8745TIP3   OH247725   3.718   2.009  14.524 -0.1532  0.6304  0.0352
 8745TIP3    H147726   3.641   1.960  14.497 -0.4626  0.0150  1.9269
 8745TIP3    H247727   3.733   2.072  14.454 -1.1229 -0.6445 -1.3254
 8746TIP3   OH247728   0.571   5.023  16.660  0.3319  0.0679 -0.2264
 8746TIP3    H147729   0.529   4.991  16.740 -0.4772 -1.4857 -1.2389
 8746TIP3    H247730   0.504   5.078  16.618 -0.5724 -2.0300 -1.6079
 8747TIP3   OH247731   4.861   0.197   2.302 -0.0120  0.1730 -0.5611
 8747TIP3    H147732   4.775   0.235   2.286 -0.7603 -1.0670  0.3915
 8747TIP3    H247733   4.917   0.231   2.232 -1.2607  1.0216 -1.1483
 8748TIP3   OH247734   1.084   1.926   5.840  0.2659  0.1331 -0.5363
 8748TIP3    H147735   1.047   2.005   5.878 -2.2219 -1.0420 -0.4370
 8748TIP3    H247736   1.129   1.883   5.913  0.0025  0.5083 -0.1505
 8749TIP3   OH247737   2.345   6.444  14.824  0.3935  0.3057 -0.1644
 8749TIP3    H147738   2.350   6.468  14.917 -0.9209  1.8579 -0.4704
 8749TIP3    H247739   2.257   6.409  14.813  0.7187 -0.3399 -0.7306
 8750TIP3   OH247740   3.781   6.557  11.871  0.0212  0.2976  0.1124
 8750TIP3    H147741   3.788   6.617  11.945  0.1500  0.4565 -0.0314
 8750TIP3    H247742   3.723   6.487  11.903  0.8860 -0.1571  0.7042
 8751TIP3   OH247743   1.646   6.752   6.646  0.6363  0.3053 -0.1680
 8751TIP3    H147744   1.611   6.753   6.557  1.7255 -0.4179 -0.6125
 8751TIP3    H247745   1.735   6.786   6.638  1.2282 -1.0349  0.4127
 8752TIP3   OH247746   2.081   5.748  13.897  0.1118  0.2896 -0.1462
 8752TIP3    H147747   2.035   5.804  13.959  0.3216 -0.2939  0.5493
 8752TIP3    H247748   2.013   5.692  13.860  0.3232 -0.8876  1.2220
 8753TIP3   OH247749   1.667   5.770   3.135  0.8724  0.2726  0.1358
 8753TIP3    H147750   1.701   5.686   3.103 -0.2298  1.3089 -4.0604
 8753TIP3    H247751   1.743   5.828   3.137  0.6751  0.6547 -2.3734
 8754TIP3   OH247752   2.526   4.695   5.790 -0.1895 -0.2717  0.2569
 8754TIP3    H147753   2.517   4.676   5.697 -0.5497  0.8170  0.0677
 8754TIP3    H247754   2.550   4.788   5.794  3.2947 -1.1256  1.0869
 8755TIP3   OH247755   2.455   5.766   5.371 -0.1656 -0.4460 -1.1876
 8755TIP3    H147756   2.483   5.845   5.418  1.2387 -0.6032 -1.7246
 8755TIP3    H247757   2.429   5.799   5.285 -3.0044 -0.1201 -0.2558
 8756TIP3   OH247758   6.115   4.845   3.915 -0.2595  0.3253 -0.4774
 8756TIP3    H147759   6.026   4.816   3.893  0.1473 -2.1107  0.9179
 8756TIP3    H247760   6.171   4.789   3.862  0.5275 -0.4570  1.1767
 8757TIP3   OH247761   1.495   1.025  16.661  0.0455 -0.4110  0.1897
 8757TIP3    H147762   1.590   1.016  16.655  0.0572 -1.0611  1.3474
 8757TIP3    H247763   1.463   0.989  16.578  0.7914 -0.4097 -0.1066
 8758TIP3   OH247764   5.303   6.092   3.962 -0.1228  0.4769  0.0034
 8758TIP3    H147765   5.229   6.113   4.019 -0.9081 -2.8065  0.2589
 8758TIP3    H247766   5.277   6.125   3.876 -1.0033  1.1333  0.5145
 8759TIP3   OH247767   6.282   6.220   6.600  0.0811  0.0044 -0.1271
 8759TIP3    H147768   6.223   6.214   6.525 -0.7069  0.6319  0.4299
 8759TIP3    H247769   6.335   6.298   6.582 -1.5519  1.4125  0.9549
 8760TIP3   OH247770   0.148   4.195   3.964  0.7743 -0.1864  0.9859
 8760TIP3    H147771   0.063   4.236   3.969  0.7048 -0.0590 -0.9365
 8760TIP3    H247772   0.137   4.112   4.011 -1.2653 -1.5347 -1.7189
 8761TIP3   OH247773   5.357   6.550   4.808 -0.1194 -0.3215 -0.2371
 8761TIP3    H147774   5.298   6.525   4.879  1.3517 -0.9773  0.7733
 8761TIP3    H247775   5.431   6.490   4.816  1.3568  1.4259 -0.5937
 8762TIP3   OH247776   0.923   5.342  12.249  0.2571 -0.2271 -0.0156
 8762TIP3    H147777   0.914   5.340  12.154  1.4186 -1.3028 -0.1160
 8762TIP3    H247778   1.000   5.288  12.267  1.4431  1.8362  1.3712
 8763TIP3   OH247779   4.653   0.988   4.340 -1.0401  0.3604  0.0164
 8763TIP3    H147780   4.672   0.897   4.317 -0.0642 -0.0292  2.2386
 8763TIP3    H247781   4.575   0.982   4.396 -3.1215  1.2489 -2.6681
 8764TIP3   OH247782   4.087   1.031  12.346  0.3389  0.0388  0.2050
 8764TIP3    H147783   4.146   1.048  12.273  1.1711  0.4954  0.9775
 8764TIP3    H247784   4.145   1.010  12.419 -0.4544  0.5505  0.9875
 8765TIP3   OH247785   2.191   0.812   3.843  0.2141  0.2683  0.0991
 8765TIP3    H147786   2.200   0.900   3.880 -1.2390  0.9328 -1.0696
 8765TIP3    H247787   2.269   0.799   3.790 -0.6215  1.7720 -1.5392
 8766TIP3   OH247788   1.470   5.300   0.986 -0.4611 -0.0253  0.0716
 8766TIP3    H147789   1.552   5.348   0.986  0.4039 -1.4759  0.8277
 8766TIP3    H247790   1.438   5.307   1.076 -0.3273 -0.8646  0.1855
 8767TIP3   OH247791   2.371   6.816   2.598 -0.0393 -0.7187  0.0855
 8767TIP3    H147792   2.324   6.835   2.516  0.2843 -1.8753 -0.3688
 8767TIP3    H247793   2.459   6.790   2.570  0.3626 -0.2109  0.8514
 8768TIP3   OH247794   2.196   4.533  16.504 -0.3984 -0.6317 -0.8476
 8768TIP3    H147795   2.145   4.547  16.585 -1.7139 -0.1848 -1.7356
 8768TIP3    H247796   2.186   4.440  16.486  1.1390 -1.0352  0.3157
 8769TIP3   OH247797   0.675   6.487   5.759 -0.2256  0.3155  0.5645
 8769TIP3    H147798   0.615   6.562   5.756 -1.8116 -0.9237  0.6119
 8769TIP3    H247799   0.660   6.440   5.677 -1.9044 -1.9198  2.0775
 8770TIP3   OH247800   3.994   1.193  12.626  0.0108 -0.6082 -0.1055
 8770TIP3    H147801   4.085   1.195  12.657  0.5225  0.1146 -1.5948
 8770TIP3    H247802   3.974   1.284  12.605 -1.1757 -0.7179  0.4792
 8771TIP3   OH247803   6.487   2.037   6.270  0.7574  0.1535 -0.1921
 8771TIP3    H147804   6.512   2.126   6.246 -0.3405  0.7044  0.6753
 8771TIP3    H247805   6.413   2.048   6.330  0.2587 -1.3548 -0.5056
 8772TIP3   OH247806   0.595   1.254   1.379  0.1712 -0.1143 -0.4067
 8772TIP3    H147807   0.539   1.329   1.361 -1.1126 -0.8767  0.3236
 8772TIP3    H247808   0.590   1.201   1.299 -0.4612 -0.3595 -0.2114
 8773TIP3   OH247809   5.620   0.553  11.509 -0.0706  0.2355 -0.0920
 8773TIP3    H147810   5.697   0.603  11.537  0.0850  1.1051 -2.0115
 8773TIP3    H247811   5.618   0.563  11.414 -0.2361 -3.1329 -0.5297
 8774TIP3   OH247812   3.692   0.029  14.099 -0.0031 -0.0966 -0.2488
 8774TIP3    H147813   3.601   0.044  14.125  0.0773 -0.8862  0.5063
 8774TIP3    H247814   3.730  -0.021  14.172  0.6603 -0.9710 -1.1807
 8775TIP3   OH247815   0.304   4.534   5.846  0.5037  0.3176  0.3218
 8775TIP3    H147816   0.337   4.551   5.934 -1.6666  0.3976  1.1391
 8775TIP3    H247817   0.257   4.451   5.854 -0.4546  0.7704 -0.5668
 8776TIP3   OH247818   6.695   3.658   6.319  0.2986 -0.8742 -0.4240
 8776TIP3    H147819   6.672   3.566   6.310  0.0693 -0.7815 -0.7639
 8776TIP3    H247820   6.621   3.698   6.364  2.5784 -1.8889  4.6251
 8777TIP3   OH247821   2.145   3.254  12.684 -0.1901 -0.0170 -0.3336
 8777TIP3    H147822   2.204   3.316  12.727 -0.7171 -0.3587  0.8990
 8777TIP3    H247823   2.122   3.296  12.602  0.8757  0.6250 -0.3171
 8778TIP3   OH247824   1.662   1.067   2.361  0.1377  0.0145  0.3783
 8778TIP3    H147825   1.632   0.990   2.313  0.5155 -0.0617  0.2626
 8778TIP3    H247826   1.681   1.132   2.293  0.4331 -0.0081  0.4373
 8779TIP3   OH247827   5.668   4.682  11.461 -0.4384 -0.1021 -0.1916
 8779TIP3    H147828   5.750   4.716  11.497 -0.8382 -0.3073  0.9300
 8779TIP3    H247829   5.616   4.659  11.538 -1.8295  0.6951 -0.8766
 8780TIP3   OH247830   6.538   5.573  12.897  0.2351  0.2091  0.1658
 8780TIP3    H147831   6.613   5.632  12.894  0.3425  0.0866  0.4163
 8780TIP3    H247832   6.570   5.495  12.943  0.2105 -0.2092 -0.5241
 8781TIP3   OH247833   5.087   5.533   4.252 -0.2382  0.5987  0.1113
 8781TIP3    H147834   5.101   5.461   4.314 -0.1064  1.0619  0.6234
 8781TIP3    H247835   5.060   5.607   4.307  2.9148  1.8993 -0.0101
 8782TIP3   OH247836   0.840   0.625  14.698  0.3669 -0.2504  0.6952
 8782TIP3    H147837   0.851   0.534  14.724 -0.0273 -0.7395 -0.7801
 8782TIP3    H247838   0.917   0.644  14.644 -0.0951 -0.0558  0.0996
 8783TIP3   OH247839   1.478   3.393  17.156 -0.5402  0.1169  0.7136
 8783TIP3    H147840   1.542   3.462  17.175  0.4051 -0.8575  1.1550
 8783TIP3    H247841   1.451   3.361  17.242  1.1192 -1.9338  0.5103
 8784TIP3   OH247842   1.763   0.401   3.470  0.2638  0.5694  0.2663
 8784TIP3    H147843   1.671   0.377   3.462  0.6724 -1.0218  0.3477
 8784TIP3    H247844   1.792   0.363   3.552  1.2752  0.1585 -0.2656
 8785TIP3   OH247845   5.085   4.484  12.137 -0.1330 -0.3328  0.3233
 8785TIP3    H147846   5.043   4.502  12.053  1.9612  1.0923 -0.4565
 8785TIP3    H247847   5.163   4.434  12.114  1.1906  1.2542  1.2594
 8786TIP3   OH247848   3.441   1.377   2.614  0.7543  0.3321  0.3304
 8786TIP3    H147849   3.394   1.424   2.683 -3.4482 -0.0242 -2.0991
 8786TIP3    H247850   3.460   1.445   2.548 -0.4134 -0.3483 -0.7187
 8787TIP3   OH247851   3.905   5.810   1.528  0.4792  0.0132 -0.5508
 8787TIP3    H147852   3.913   5.751   1.453 -2.0352 -0.4221 -0.4986
 8787TIP3    H247853   3.857   5.885   1.495 -1.2041 -0.4634  0.7617
 8788TIP3   OH247854   6.705   2.712   5.693 -0.7952 -0.2104 -0.2818
 8788TIP3    H147855   6.636   2.758   5.644 -1.7410 -1.5916 -0.2728
 8788TIP3    H247856   6.786   2.737   5.649 -1.4917 -0.2119 -1.5992
 8789TIP3   OH247857   4.312   0.297  11.820 -0.4174 -0.3816 -0.3942
 8789TIP3    H147858   4.249   0.234  11.855 -0.0774  0.0974  1.0956
 8789TIP3    H247859   4.301   0.292  11.725 -0.4326 -2.6537 -0.2956
 8790TIP3   OH247860   4.715   0.839   3.579 -0.0537  0.0006 -0.2062
 8790TIP3    H147861   4.676   0.811   3.497 -1.3337  1.5584 -0.1718
 8790TIP3    H247862   4.719   0.935   3.572 -1.2292  0.2557  1.9578
 8791TIP3   OH247863   6.692   5.980  13.349 -0.1477  0.2380  0.1675
 8791TIP3    H147864   6.705   6.028  13.267 -0.8936  1.3298  0.6743
 8791TIP3    H247865   6.683   5.889  13.323 -0.7475  0.6282 -0.9997
 8792TIP3   OH247866   3.421   3.302   5.644  0.2361  0.0376  0.4052
 8792TIP3    H147867   3.442   3.366   5.576 -0.1359  0.3282  0.5618
 8792TIP3    H247868   3.410   3.220   5.596  0.4540  0.1417  0.1730
 8793TIP3   OH247869   3.438   3.578   2.290  0.0354  0.2411 -0.3364
 8793TIP3    H147870   3.361   3.560   2.345  1.7080  0.0505  2.0167
 8793TIP3    H247871   3.403   3.586   2.202 -2.6284 -0.3578  0.6204
 8794TIP3   OH247872   0.809   0.503   1.897  0.6867 -0.1284  0.8794
 8794TIP3    H147873   0.892   0.549   1.912  0.3447  0.4529  0.9618
 8794TIP3    H247874   0.802   0.497   1.801  1.0049 -0.5150  0.8749
 8795TIP3   OH247875   0.980   0.145  12.942 -0.1645 -0.1010 -0.1095
 8795TIP3    H147876   0.895   0.120  12.906  0.4002 -0.8136 -0.9655
 8795TIP3    H247877   0.961   0.223  12.995 -1.3183 -0.1577 -0.4154
 8796TIP3   OH247878   1.205   6.518  11.795  0.5827  0.3321  0.5247
 8796TIP3    H147879   1.162   6.593  11.838 -0.5473 -1.6098  2.9102
 8796TIP3    H247880   1.133   6.459  11.774  1.6537 -0.8922  0.2852
 8797TIP3   OH247881   2.132   1.603  13.054 -0.0506 -0.1026  0.2336
 8797TIP3    H147882   2.101   1.688  13.024 -1.5739 -0.0478  1.8293
 8797TIP3    H247883   2.204   1.623  13.113 -0.8461  0.1416  1.1369
 8798TIP3   OH247884   4.615   4.329  12.991  0.1069  0.1861 -0.4127
 8798TIP3    H147885   4.629   4.383  12.913 -1.5823  0.2605 -0.6894
 8798TIP3    H247886   4.526   4.350  13.018 -0.8325 -2.9556 -0.9049
 8799TIP3   OH247887   1.663   1.859   0.889 -0.7939 -0.2911  0.1595
 8799TIP3    H147888   1.599   1.827   0.953 -2.5240  0.6470 -1.0639
 8799TIP3    H247889   1.617   1.857   0.806  0.3674  1.5952 -0.5589
 8800TIP3   OH247890   1.918   1.841   0.427 -0.1701  0.0598  0.1434
 8800TIP3    H147891   1.832   1.872   0.454  1.0086  1.3627  2.4863
 8800TIP3    H247892   1.912   1.745   0.436 -1.0051  0.2153  1.3991
 8801TIP3   OH247893   0.872   6.182   4.673  0.4171  0.0743  0.2751
 8801TIP3    H147894   0.795   6.215   4.718  0.0224 -0.7086  0.1943
 8801TIP3    H247895   0.901   6.254   4.617 -2.7423 -0.9794 -2.8883
 8802TIP3   OH247896   1.367   6.075  12.351 -0.4275 -0.0388  0.6738
 8802TIP3    H147897   1.386   6.079  12.445  0.6940  0.6333  0.4422
 8802TIP3    H247898   1.359   6.167  12.326 -1.4887 -0.2488  0.2590
 8803TIP3   OH247899   1.901   4.600  13.397  0.3238  0.5486 -0.3383
 8803TIP3    H147900   1.917   4.516  13.353 -0.2592  0.3443 -0.1650
 8803TIP3    H247901   1.982   4.618  13.444  0.9008  0.6974 -1.3728
 8804TIP3   OH247902   4.227   4.117  14.860  0.0119 -0.2118  0.0792
 8804TIP3    H147903   4.165   4.161  14.802 -0.3299  1.2401  1.5220
 8804TIP3    H247904   4.221   4.165  14.943 -0.4069 -2.9751  1.7241
 8805TIP3   OH247905   1.747   0.959  11.612 -0.2508  0.1154 -0.0738
 8805TIP3    H147906   1.723   0.985  11.701 -1.8717  0.2352 -0.5362
 8805TIP3    H247907   1.668   0.919  11.576  0.4345 -0.0622 -1.4258
 8806TIP3   OH247908   1.176   0.251   2.546  0.1808 -0.4150 -0.1159
 8806TIP3    H147909   1.171   0.342   2.575  2.1660 -1.0305  2.2940
 8806TIP3    H247910   1.098   0.239   2.492 -2.5648  1.4344  3.2502
 8807TIP3   OH247911   3.506   6.614  15.683  0.7284  0.0365 -0.2884
 8807TIP3    H147912   3.424   6.574  15.712  0.8029  0.9318  1.2160
 8807TIP3    H247913   3.574   6.564  15.728  0.9223  0.3932 -0.1819
 8808TIP3   OH247914   1.403   0.398  13.415  0.5639  0.2338 -0.2136
 8808TIP3    H147915   1.400   0.418  13.321  0.8162 -2.9855 -0.9601
 8808TIP3    H247916   1.494   0.416  13.440  0.6901  0.3792 -0.7661
 8809TIP3   OH247917   3.267   1.650   3.830  0.2969 -0.2502  0.8551
 8809TIP3    H147918   3.286   1.681   3.741 -2.3674 -1.7826 -0.3115
 8809TIP3    H247919   3.203   1.713   3.864 -0.0150 -0.6417  1.0043
 8810TIP3   OH247920   0.949   1.884   0.850  0.3207  0.0774  0.5802
 8810TIP3    H147921   1.040   1.869   0.825  0.5907 -0.0930  1.6729
 8810TIP3    H247922   0.953   1.910   0.942 -0.8866 -1.8024  1.1837
 8811TIP3   OH247923   0.548   5.227   1.603 -0.1069 -0.1577  0.3143
 8811TIP3    H147924   0.466   5.257   1.563  0.7231 -0.7197 -1.8725
 8811TIP3    H247925   0.606   5.209   1.529  1.9667  0.1063  1.8264
 8812TIP3   OH247926   6.374   0.471   1.652 -0.3235 -0.6230 -0.9339
 8812TIP3    H147927   6.406   0.560   1.661  0.0043 -0.7583 -0.7805
 8812TIP3    H247928   6.353   0.463   1.559  1.8006 -1.1200 -1.3835
 8813TIP3   OH247929   1.404   2.299  15.717 -0.7368 -0.3657  0.1104
 8813TIP3    H147930   1.311   2.277  15.713 -0.2990 -1.9989 -2.2334
 8813TIP3    H247931   1.415   2.368  15.652 -0.3925  0.2186  0.7798
 8814TIP3   OH247932   5.272   3.254   0.623  0.3757 -0.2328 -0.2409
 8814TIP3    H147933   5.327   3.264   0.545  0.0840  0.7649 -0.3188
 8814TIP3    H247934   5.292   3.166   0.655  0.1687 -0.8067 -1.6873
 8815TIP3   OH247935   1.752   2.199  13.086 -0.1935  0.6275 -0.2842
 8815TIP3    H147936   1.848   2.203  13.082 -0.2138  1.2373 -0.1489
 8815TIP3    H247937   1.727   2.275  13.139 -0.7669  0.5962 -0.5093
 8816TIP3   OH247938   6.339   4.221  14.861  0.7746 -0.0598  0.4035
 8816TIP3    H147939   6.365   4.192  14.773 -0.5998  0.3479 -0.1435
 8816TIP3    H247940   6.417   4.205  14.915  0.8460 -2.5432 -0.3724
 8817TIP3   OH247941   4.605   5.290  14.075  0.0998  0.4133 -0.3873
 8817TIP3    H147942   4.582   5.198  14.064 -2.3666  0.8343  1.1064
 8817TIP3    H247943   4.624   5.321  13.986  0.4912 -1.4092 -0.9442
 8818TIP3   OH247944   0.461   1.491  14.313 -0.1759  0.1078 -0.0811
 8818TIP3    H147945   0.476   1.525  14.225 -1.9323  1.7251  0.2202
 8818TIP3    H247946   0.490   1.562  14.372  1.0320 -0.9735  0.6720
 8819TIP3   OH247947   5.632   1.399   1.910 -0.4782  0.1306 -0.6007
 8819TIP3    H147948   5.547   1.363   1.937 -0.0707 -1.7411 -1.6982
 8819TIP3    H247949   5.694   1.327   1.923  1.1556  1.8108  1.2061
 8820TIP3   OH247950   2.845   2.462  12.500 -0.4171  0.0711  0.2466
 8820TIP3    H147951   2.939   2.443  12.504 -0.9212 -2.3841  1.1331
 8820TIP3    H247952   2.839   2.554  12.526  1.7232  0.2656  0.2135
 8821TIP3   OH247953   2.324   3.928  16.180 -0.2937  0.1567 -0.2903
 8821TIP3    H147954   2.251   3.906  16.237 -1.1515  3.5008  0.0111
 8821TIP3    H247955   2.391   3.962  16.240  0.1811  0.3543 -0.9321
 8822TIP3   OH247956   2.840   2.992  12.621  0.5184  0.0387 -0.0218
 8822TIP3    H147957   2.844   3.081  12.654 -0.1345  0.1319 -0.1867
 8822TIP3    H247958   2.882   2.939  12.689 -2.4757 -0.0187  1.8578
 8823TIP3   OH247959   5.985   0.953   1.929 -0.7746 -0.0057 -0.3807
 8823TIP3    H147960   6.055   0.949   1.995 -1.6697 -1.9613  0.4852
 8823TIP3    H247961   6.031   0.942   1.846  0.1575  0.4745  0.0650
 8824TIP3   OH247962   6.725   6.140  15.282 -0.2635 -0.4048  0.1856
 8824TIP3    H147963   6.710   6.047  15.268 -0.7130 -0.1928 -0.7889
 8824TIP3    H247964   6.789   6.165  15.215  1.9694 -0.5911  2.2038
 8825TIP3   OH247965   4.518   0.642   5.739 -0.7091  0.4339  0.0504
 8825TIP3    H147966   4.606   0.673   5.720 -0.8710  2.0038  1.6856
 8825TIP3    H247967   4.462   0.719   5.727 -1.9694 -0.6998 -1.6023
 8826TIP3   OH247968   1.200   4.577   5.018 -0.6007  0.4585  0.4826
 8826TIP3    H147969   1.171   4.486   5.014  0.7939  0.0368 -0.7145
 8826TIP3    H247970   1.230   4.589   5.108 -2.9515  0.4397  1.2830
 8827TIP3   OH247971   4.490   2.878  13.196  0.2348  0.1003 -0.2301
 8827TIP3    H147972   4.445   2.794  13.182 -1.0489  0.9967 -1.6133
 8827TIP3    H247973   4.536   2.867  13.280 -0.6382 -1.6603  0.0411
 8828TIP3   OH247974   0.785   5.632   0.331  1.0210  0.2778  0.7693
 8828TIP3    H147975   0.744   5.713   0.362  2.3214  0.8498  1.0508
 8828TIP3    H247976   0.813   5.652   0.241 -1.1024 -0.7730 -0.1538
 8829TIP3   OH247977   0.830   3.256   1.442 -0.4045 -0.0842  0.4450
 8829TIP3    H147978   0.744   3.287   1.415  0.0273  0.8368  0.0865
 8829TIP3    H247979   0.834   3.165   1.413 -1.5317 -0.3571  1.1229
 8830TIP3   OH247980   5.121   5.873  15.694  0.3607 -0.2386 -0.2652
 8830TIP3    H147981   5.027   5.890  15.686  0.1675 -0.0649  2.1133
 8830TIP3    H247982   5.155   5.950  15.740  1.5541 -0.6553 -0.4467
 8831TIP3   OH247983   5.054   4.885   4.780  0.3582  0.2699  0.3537
 8831TIP3    H147984   5.116   4.834   4.728 -3.0080 -0.5883 -3.0454
 8831TIP3    H247985   4.992   4.820   4.814 -0.8779  1.4962  0.4851
 8832TIP3   OH247986   1.083   2.210   5.391 -0.5454  0.0502  0.0574
 8832TIP3    H147987   1.071   2.202   5.486  1.3158  1.9859  0.5086
 8832TIP3    H247988   1.165   2.164   5.374 -1.2816 -0.9588 -0.7307
 8833TIP3   OH247989   0.232   3.791   2.889  0.0385 -0.0391 -0.4163
 8833TIP3    H147990   0.154   3.762   2.842  0.3964  0.2199 -1.1944
 8833TIP3    H247991   0.199   3.850   2.957 -0.5774 -1.3045  0.3878
 8834TIP3   OH247992   0.761   5.982   1.023 -0.2305 -0.1655  0.4028
 8834TIP3    H147993   0.829   6.047   1.039 -2.1180  1.4279  2.2635
 8834TIP3    H247994   0.747   5.941   1.108 -0.1945 -1.9149 -0.4164
 8835TIP3   OH247995   5.183   3.811  13.366 -0.1961  0.5429 -0.8766
 8835TIP3    H147996   5.279   3.813  13.359 -0.1376  0.9796 -0.0370
 8835TIP3    H247997   5.165   3.725  13.405 -0.2549 -0.1441 -2.3527
 8836TIP3   OH247998   6.229   0.204  15.695 -0.2160  0.7282 -0.3781
 8836TIP3    H147999   6.135   0.187  15.684  0.2965 -2.3581 -0.3082
 8836TIP3    H248000   6.258   0.235  15.609 -0.9386 -0.1730 -0.9604
 8837TIP3   OH248001   2.614   1.638   1.179  0.2038 -0.3528 -0.4022
 8837TIP3    H148002   2.639   1.561   1.128  1.3829 -0.2470 -0.0025
 8837TIP3    H248003   2.548   1.682   1.125 -0.2294 -1.4514 -0.7824
 8838TIP3   OH248004   6.183   6.564  16.827 -0.1961  0.1616 -0.5067
 8838TIP3    H148005   6.160   6.472  16.838  1.1957  0.0005  1.3689
 8838TIP3    H248006   6.105   6.612  16.853 -1.1705 -0.5074 -2.1980
 8839TIP3   OH248007   5.075   3.611   3.539 -0.1776 -0.3669  0.1826
 8839TIP3    H148008   5.143   3.593   3.604  0.7092  1.8241 -0.1007
 8839TIP3    H248009   4.994   3.612   3.590  0.3047 -0.3127  0.9676
 8840TIP3   OH248010   3.251   4.511  13.802  0.3024  0.0624 -0.0819
 8840TIP3    H148011   3.211   4.428  13.777  2.7721 -1.4033  0.5435
 8840TIP3    H248012   3.204   4.538  13.881 -1.2181 -0.1865 -0.8947
 8841TIP3   OH248013   5.968   5.028   0.751  0.0337 -0.1969  0.1959
 8841TIP3    H148014   6.043   5.051   0.694 -1.0445  0.3252 -1.0430
 8841TIP3    H248015   5.905   4.987   0.692  0.0529 -2.2639  1.5743
 8842TIP3   OH248016   6.791   5.359   3.254  0.0908  0.1996  0.2620
 8842TIP3    H148017   6.776   5.405   3.171 -1.8784 -1.5517 -0.4053
 8842TIP3    H248018   6.849   5.286   3.230 -0.7275 -0.4896  0.3258
 8843TIP3   OH248019   1.629   3.844   3.617 -0.5619 -0.2429  0.2549
 8843TIP3    H148020   1.577   3.764   3.627 -0.5009 -0.3267 -0.1011
 8843TIP3    H248021   1.616   3.892   3.699  0.1014 -1.0275  0.8310
 8844TIP3   OH248022   5.758   4.982   4.820 -0.5368  0.3491  0.3155
 8844TIP3    H148023   5.816   4.972   4.745  0.1031  0.6989  0.7655
 8844TIP3    H248024   5.706   4.902   4.821 -0.6038  0.3785 -0.5505
 8845TIP3   OH248025   3.721   1.980   3.331 -0.4921 -0.0481  0.6545
 8845TIP3    H148026   3.685   2.032   3.259 -0.0270  1.8726  1.7730
 8845TIP3    H248027   3.735   1.893   3.293 -0.2903  0.9125 -1.5648
 8846TIP3   OH248028   0.749   5.106  14.597 -0.4515 -0.0114 -0.2425
 8846TIP3    H148029   0.695   5.067  14.529  0.6310 -1.5384 -0.2553
 8846TIP3    H248030   0.786   5.031  14.644  0.6730  1.0130  0.5308
 8847TIP3   OH248031   3.452   6.331  11.768  0.2299  0.8638 -0.1566
 8847TIP3    H148032   3.387   6.398  11.748 -0.4446  0.4610  0.6903
 8847TIP3    H248033   3.412   6.249  11.741  0.3249  0.6025  0.4924
 8848TIP3   OH248034   6.207   4.505  13.394 -0.1074  0.2115  0.4481
 8848TIP3    H148035   6.269   4.434  13.379 -0.5628  0.1514 -1.2369
 8848TIP3    H248036   6.262   4.580  13.417  0.3224 -0.8853  3.2156
 8849TIP3   OH248037   5.496   2.270  11.218 -0.4206  0.0825  0.1670
 8849TIP3    H148038   5.532   2.354  11.189 -0.0526 -0.8078 -2.0239
 8849TIP3    H248039   5.566   2.230  11.269  0.2201  0.1249 -0.6754
 8850TIP3   OH248040   2.727   4.664  16.215 -0.8929 -0.3485  0.1070
 8850TIP3    H148041   2.679   4.720  16.154  0.2459  0.2858 -0.2288
 8850TIP3    H248042   2.768   4.598  16.160 -0.3315 -0.1183  0.2460
 8851TIP3   OH248043   5.125   4.794  11.191  0.4281  0.1350 -0.5117
 8851TIP3    H148044   5.047   4.827  11.235  0.4681 -1.3942  0.7431
 8851TIP3    H248045   5.162   4.871  11.146 -1.3932  1.0098 -0.5372
 8852TIP3   OH248046   4.308   6.655   3.303 -0.3196  0.3315 -0.0991
 8852TIP3    H148047   4.266   6.725   3.353 -1.9025 -0.2289 -0.5949
 8852TIP3    H248048   4.263   6.575   3.330 -0.8364 -0.0472 -1.9889
 8853TIP3   OH248049   0.321   6.282  10.924  0.7933  0.3307 -0.3644
 8853TIP3    H148050   0.406   6.238  10.921  0.5963 -0.0465 -0.4426
 8853TIP3    H248051   0.330   6.356  10.865  0.9687  0.1092 -0.6169
 8854TIP3   OH248052   4.759   3.167   6.152 -0.7934 -0.4380 -0.0119
 8854TIP3    H148053   4.694   3.185   6.220  0.5137  0.7160  0.9365
 8854TIP3    H248054   4.774   3.251   6.110 -0.1136 -0.7614 -0.4208
 8855TIP3   OH248055   1.365   1.823  15.558 -0.2390 -0.3101  0.1732
 8855TIP3    H148056   1.414   1.747  15.590  0.6024  0.5120  0.8633
 8855TIP3    H248057   1.371   1.887  15.629  0.1183  0.8668 -0.9050
 8856TIP3   OH248058   5.176   3.053   6.181 -0.5623 -0.8598  0.2146
 8856TIP3    H148059   5.114   3.006   6.236 -1.3700  2.3567  2.1613
 8856TIP3    H248060   5.253   3.065   6.236  0.2112 -1.1644 -0.7772
 8857TIP3   OH248061   0.038   4.010  10.779  0.1675  0.1456 -0.2177
 8857TIP3    H148062   0.033   3.936  10.840  2.3362  1.0848  1.1731
 8857TIP3    H248063   0.114   3.990  10.724 -0.5835  0.2841 -1.3369
 8858TIP3   OH248064   1.003   5.188  15.115  0.8456 -0.2174  0.1713
 8858TIP3    H148065   0.964   5.268  15.152  0.2596 -0.1728 -0.5168
 8858TIP3    H248066   0.933   5.151  15.061  1.1694 -1.1232  0.3792
 8859TIP3   OH248067   5.483   3.578   1.734  0.2636 -0.3541 -0.4876
 8859TIP3    H148068   5.439   3.643   1.679 -0.0178 -0.3169 -0.2237
 8859TIP3    H248069   5.571   3.571   1.697  0.3117  0.2172 -0.4903
 8860TIP3   OH248070   5.155   2.130   4.713 -0.1785 -0.4162 -0.0575
 8860TIP3    H148071   5.168   2.223   4.730  1.9291 -0.6118 -0.4230
 8860TIP3    H248072   5.201   2.086   4.784  1.3544 -1.1694 -1.4906
 8861TIP3   OH248073   5.971   2.032  16.267  0.4140 -0.0984  0.3156
 8861TIP3    H148074   6.040   2.072  16.320  1.8929 -1.3106 -0.6223
 8861TIP3    H248075   5.961   1.944  16.303 -0.6520  0.0875  0.4583
 8862TIP3   OH248076   6.024   2.062   1.961  0.0181  0.0167 -0.6775
 8862TIP3    H148077   5.984   1.979   1.936  1.0581 -0.6518 -0.1745
 8862TIP3    H248078   6.094   2.075   1.897 -1.0703  1.2665 -1.6631
 8863TIP3   OH248079   4.513   6.326  11.543 -0.5660 -0.0061  0.4340
 8863TIP3    H148080   4.599   6.300  11.509 -0.9828 -1.9530  0.7863
 8863TIP3    H248081   4.518   6.421  11.551  1.1620  0.0188 -0.6207
 8864TIP3   OH248082   5.743   3.276   1.586 -0.2493  0.0375 -0.0976
 8864TIP3    H148083   5.738   3.279   1.490  0.6497 -0.0341 -0.1500
 8864TIP3    H248084   5.657   3.244   1.613  0.3941 -2.5967 -1.0237
 8865TIP3   OH248085   0.818   6.526  13.833 -0.4419 -0.3021 -0.1069
 8865TIP3    H148086   0.836   6.619  13.846 -0.9389 -0.0056 -1.4690
 8865TIP3    H248087   0.723   6.518  13.837 -0.3685 -0.8694  0.7076
 8866TIP3   OH248088   6.357   4.749   0.034 -0.4491  0.2374  0.0334
 8866TIP3    H148089   6.286   4.771  -0.026  1.1178  2.4066 -1.1231
 8866TIP3    H248090   6.348   4.655   0.049 -0.6697 -0.4743 -3.9319
 8867TIP3   OH248091   4.864   0.094   0.774 -0.0319 -0.0817  0.0376
 8867TIP3    H148092   4.906   0.016   0.737 -1.1248 -0.6533 -0.0325
 8867TIP3    H248093   4.802   0.059   0.838 -2.1102  0.5987 -1.5455
 8868TIP3   OH248094   3.131   3.484   1.293  0.1703  0.3445  0.1335
 8868TIP3    H148095   3.127   3.462   1.386  1.8399  4.1224  1.1793
 8868TIP3    H248096   3.206   3.435   1.260  2.3968  2.4489  1.8702
 8869TIP3   OH248097   3.651   5.231  12.727  0.1229 -0.7096 -0.5092
 8869TIP3    H148098   3.708   5.174  12.676  0.3885 -0.3692 -0.5926
 8869TIP3    H248099   3.694   5.316  12.726  0.6601 -0.9463  1.1660
 8870TIP3   OH248100   2.035   5.348   1.976 -0.0804  0.7651 -0.1560
 8870TIP3    H148101   1.991   5.266   1.951 -2.2665  1.9935 -0.4522
 8870TIP3    H248102   2.089   5.370   1.900 -0.9015  0.5494 -0.8101
 8871TIP3   OH248103   4.494   0.252   5.636 -0.8036  0.6709  0.1128
 8871TIP3    H148104   4.553   0.304   5.581  0.7426 -1.2850 -0.1747
 8871TIP3    H248105   4.551   0.220   5.706 -2.5128  2.2105  2.2325
 8872TIP3   OH248106   4.250   6.178  14.176  0.2289 -0.1898  0.3459
 8872TIP3    H148107   4.206   6.097  14.200 -0.7854  0.1404 -0.3621
 8872TIP3    H248108   4.202   6.247  14.221  0.6317  0.0836  0.3630
 8873TIP3   OH248109   0.623   2.078   3.908  0.0948 -0.0406 -0.3628
 8873TIP3    H148110   0.599   1.992   3.940  0.0987 -0.6086 -1.8224
 8873TIP3    H248111   0.685   2.112   3.972 -0.5745 -0.7558  0.6669
 8874TIP3   OH248112   1.948   6.740   1.870 -0.3174  0.0235 -0.0133
 8874TIP3    H148113   2.004   6.688   1.928  1.0457  2.0543  0.5470
 8874TIP3    H248114   1.994   6.741   1.787 -0.1990  0.5974  0.0620
 8875TIP3   OH248115   0.270   5.064   6.555  0.3492  0.1831 -0.4892
 8875TIP3    H148116   0.229   5.135   6.604  1.8319  0.3729  0.5291
 8875TIP3    H248117   0.331   5.025   6.617  0.3969 -1.2395 -1.4070
 8876TIP3   OH248118   0.526   5.917   5.171  0.1436 -0.5386 -0.0495
 8876TIP3    H148119   0.469   5.843   5.153 -2.7146  2.0952 -2.6091
 8876TIP3    H248120   0.515   5.934   5.264  0.0326 -2.6711  0.3485
 8877TIP3   OH248121   4.195   2.418  13.925 -0.2273  0.2578 -0.1282
 8877TIP3    H148122   4.257   2.488  13.904 -1.1115  1.3347  0.7724
 8877TIP3    H248123   4.229   2.380  14.006  0.9291 -1.1882 -1.2699
 8878TIP3   OH248124   1.996   1.440  11.173 -0.2831 -0.1924 -0.0827
 8878TIP3    H148125   1.928   1.432  11.106  0.4267 -0.1105 -0.8163
 8878TIP3    H248126   2.022   1.349  11.191 -0.9727 -0.2616  0.6096
 8879TIP3   OH248127   6.136   5.600   1.701  0.5793  0.4243  0.4379
 8879TIP3    H148128   6.109   5.652   1.777 -1.3614  0.2616 -0.1180
 8879TIP3    H248129   6.104   5.512   1.719  0.9937  0.1645 -0.1008
 8880TIP3   OH248130   2.966   4.786  14.693  0.1558  0.2884  0.4386
 8880TIP3    H148131   2.976   4.691  14.702 -1.0390 -0.0170 -1.2840
 8880TIP3    H248132   3.055   4.820  14.699  0.6331 -0.9869  0.6817
 8881TIP3   OH248133   5.564   4.930  13.894  0.0588 -0.1077 -0.1109
 8881TIP3    H148134   5.615   5.001  13.854 -0.7392  2.0194  2.4424
 8881TIP3    H248135   5.628   4.880  13.945  0.1561  0.5947  0.4664
 8882TIP3   OH248136   6.019   6.510  13.428  0.1991  0.3223  0.2307
 8882TIP3    H148137   6.079   6.442  13.460  0.8758  0.7928 -0.0166
 8882TIP3    H248138   6.031   6.511  13.333 -1.6018 -0.8758 -0.0189
 8883TIP3   OH248139   0.098   4.600  13.319  0.5102 -0.2655  0.7315
 8883TIP3    H148140   0.007   4.624  13.299  0.7943  0.6716  0.5495
 8883TIP3    H248141   0.090   4.534  13.388 -0.2518  1.3285  2.2178
 8884TIP3   OH248142   0.751   4.799   0.137  0.4458 -0.2251 -0.0243
 8884TIP3    H148143   0.809   4.818   0.211  2.3713  0.6184 -1.7021
 8884TIP3    H248144   0.778   4.712   0.107  1.2901  0.4426 -1.2156
 8885TIP3   OH248145   0.071   0.176  12.495  0.2983  0.2179 -0.2472
 8885TIP3    H148146   0.086   0.267  12.519  0.5746  0.4177 -1.1450
 8885TIP3    H248147   0.157   0.142  12.471  0.5713 -0.9555  2.2831
 8886TIP3   OH248148   3.990   4.572   5.072 -0.9348  0.3581  0.3347
 8886TIP3    H148149   4.028   4.660   5.067 -1.9464  0.7464 -0.6026
 8886TIP3    H248150   4.065   4.514   5.087 -0.3495  1.4491  1.7288
 8887TIP3   OH248151   5.960   0.180  16.579 -0.2074  0.0966  0.5885
 8887TIP3    H148152   6.049   0.176  16.614  0.1476 -0.6307 -0.3699
 8887TIP3    H248153   5.948   0.270  16.551  0.3708  0.0995  0.3558
 8888TIP3   OH248154   6.803   4.986   4.876  0.4789 -0.3964 -0.5423
 8888TIP3    H148155   6.735   4.921   4.895 -1.1553  1.0072 -1.4280
 8888TIP3    H248156   6.885   4.942   4.897 -0.8181 -1.2520  3.0809
 8889TIP3   OH248157   2.185   1.295  12.535  0.3637  0.3612  0.6119
 8889TIP3    H148158   2.099   1.313  12.496  0.7733  1.7537  0.3038
 8889TIP3    H248159   2.180   1.205  12.566 -1.4803  0.6987  1.3177
 8890TIP3   OH248160   6.248   1.277   5.364 -0.3274 -0.4285  0.1897
 8890TIP3    H148161   6.153   1.286   5.374 -0.3376  0.1663 -0.4383
 8890TIP3    H248162   6.281   1.367   5.369 -0.0294 -0.4020 -2.0371
 8891TIP3   OH248163   5.512   2.153   3.505 -0.4145 -0.0898 -0.5763
 8891TIP3    H148164   5.484   2.198   3.426 -0.0397  0.8595 -0.1760
 8891TIP3    H248165   5.543   2.223   3.563 -0.2717 -0.8131  0.2351
 8892TIP3   OH248166   0.584   0.544   0.282  0.3595 -0.1160  0.2701
 8892TIP3    H148167   0.527   0.604   0.329 -0.7957 -0.8837 -0.1276
 8892TIP3    H248168   0.567   0.562   0.189  0.4009 -0.6864  0.1499
 8893TIP3   OH248169   2.573   0.679   2.816 -0.0300  0.2718  0.4037
 8893TIP3    H148170   2.479   0.672   2.830  0.1346  1.1491  2.0588
 8893TIP3    H248171   2.582   0.745   2.747 -0.6385  0.2730  0.3230
 8894TIP3   OH248172   6.394   5.632   5.143  0.1156 -0.1186 -0.3049
 8894TIP3    H148173   6.397   5.718   5.185  1.2298 -0.9324  1.3221
 8894TIP3    H248174   6.357   5.574   5.209  0.9524 -1.2251 -0.7954
 8895TIP3   OH248175   2.145   1.277  16.369 -0.0190 -0.4229 -0.2753
 8895TIP3    H148176   2.136   1.272  16.465 -3.4038 -2.3518 -0.5801
 8895TIP3    H248177   2.208   1.208  16.348  0.8193  0.0715  0.5768
 8896TIP3   OH248178   0.683   2.094   4.775  0.1181  0.3481  0.1213
 8896TIP3    H148179   0.628   2.016   4.767 -0.1932  0.6575 -0.7965
 8896TIP3    H248180   0.720   2.107   4.688  0.3465  1.0954  0.3244
 8897TIP3   OH248181   6.248   2.619   4.821 -0.5580 -0.3449 -0.1114
 8897TIP3    H148182   6.189   2.661   4.758  0.7427 -0.0220 -1.1270
 8897TIP3    H248183   6.219   2.652   4.906 -1.1613  0.6403 -0.6814
 8898TIP3   OH248184   4.205   6.547  12.294 -0.1856  0.2875 -0.7397
 8898TIP3    H148185   4.211   6.461  12.336  0.1483 -0.6269 -2.6136
 8898TIP3    H248186   4.292   6.564  12.260 -0.5393  0.8389 -1.4004
 8899TIP3   OH248187   2.727   4.606  17.130  0.2390 -0.3023 -0.2973
 8899TIP3    H148188   2.724   4.701  17.140 -0.8822 -0.2768 -0.8367
 8899TIP3    H248189   2.807   4.580  17.175  0.3260  0.8501  0.2306
 8900TIP3   OH248190   3.440   2.902   2.149  0.6163 -0.5004  0.2719
 8900TIP3    H148191   3.378   2.871   2.215 -0.0786 -0.6066 -0.4277
 8900TIP3    H248192   3.387   2.916   2.071  1.3936 -0.1331 -0.1935
 8901TIP3   OH248193   6.360   3.204  10.539  0.0928 -0.5077  0.0463
 8901TIP3    H148194   6.367   3.113  10.511 -0.9857 -0.1985 -1.2533
 8901TIP3    H248195   6.330   3.199  10.630 -0.1499 -1.4503 -0.0859
 8902TIP3   OH248196   3.058   0.075   1.899 -0.0670 -0.3602 -0.3602
 8902TIP3    H148197   3.028   0.090   1.810 -1.8151  3.1936  0.6992
 8902TIP3    H248198   2.985   0.104   1.954  2.0876  0.3677  2.2397
 8903TIP3   OH248199   4.762   5.184  13.372  0.3336  0.7448 -0.0125
 8903TIP3    H148200   4.778   5.099  13.329 -0.7738  0.0192  0.9781
 8903TIP3    H248201   4.822   5.184  13.447  0.6751  1.0564 -0.2818
 8904TIP3   OH248202   1.287   0.012  13.433 -0.1069 -0.1933  0.1273
 8904TIP3    H148203   1.195   0.009  13.461 -0.2052 -2.2725 -0.3571
 8904TIP3    H248204   1.330  -0.056  13.486  1.1148  0.6204  0.1906
 8905TIP3   OH248205   4.979   4.127  16.225 -0.3487  0.7436 -0.2283
 8905TIP3    H148206   5.003   4.035  16.231 -1.5470  0.3019 -1.8256
 8905TIP3    H248207   4.956   4.152  16.315 -0.2845 -0.5799  0.1641
 8906TIP3   OH248208   5.816   0.237  13.866 -0.3735 -0.3020  0.5160
 8906TIP3    H148209   5.863   0.187  13.800  0.0664 -0.7547  1.1610
 8906TIP3    H248210   5.848   0.203  13.950 -2.2708 -1.0214  0.9855
 8907TIP3   OH248211   6.809   3.370   6.927  0.0697 -1.0429 -0.3259
 8907TIP3    H148212   6.849   3.285   6.910 -0.0114 -0.9922 -0.7751
 8907TIP3    H248213   6.865   3.410   6.993  0.0418 -1.4918 -0.0251
 8908TIP3   OH248214   1.778   0.650   0.187 -0.2737 -0.2765  0.2425
 8908TIP3    H148215   1.851   0.712   0.180 -0.6185  0.3062  1.6502
 8908TIP3    H248216   1.729   0.679   0.263 -1.0781 -1.6336  0.2618
 8909TIP3   OH248217   3.083   5.727  15.207 -0.4485 -0.4583 -0.2015
 8909TIP3    H148218   3.139   5.743  15.131  0.6710  2.3037  1.1518
 8909TIP3    H248219   2.998   5.762  15.182 -0.4190 -0.6835 -0.6289
 8910TIP3   OH248220   5.955   0.816  13.995  0.3932 -0.2908 -0.0976
 8910TIP3    H148221   6.039   0.789  13.960  0.4333 -0.9893  0.5295
 8910TIP3    H248222   5.891   0.781  13.933  0.4657 -1.4780  0.4874
 8911TIP3   OH248223   1.536   3.694   3.249 -0.4917  0.2891 -0.3583
 8911TIP3    H148224   1.528   3.608   3.290  1.6369  0.8955  1.3994
 8911TIP3    H248225   1.447   3.730   3.252 -1.0919 -1.2042  0.3321
 8912TIP3   OH248226   2.835   4.513   4.132  0.4894 -0.6648  0.6589
 8912TIP3    H148227   2.928   4.500   4.113  0.5335  0.0924  0.3187
 8912TIP3    H248228   2.790   4.456   4.070  0.7145 -0.6676  0.4941
 8913TIP3   OH248229   0.426   4.033  14.878 -0.0027 -0.0560  0.1654
 8913TIP3    H148230   0.512   3.994  14.891 -0.1767 -0.8395 -0.9029
 8913TIP3    H248231   0.412   4.027  14.783 -0.8881  0.7920  0.2417
 8914TIP3   OH248232   3.332   0.784   2.570 -0.3643 -0.3285 -0.6134
 8914TIP3    H148233   3.237   0.771   2.562 -0.5810  1.1624 -0.6560
 8914TIP3    H248234   3.343   0.879   2.570  0.9080 -0.4399  2.0579
 8915TIP3   OH248235   3.448   0.849  17.169 -0.3458  0.6659 -0.1990
 8915TIP3    H148236   3.461   0.761  17.203 -0.5335  0.0600 -1.6788
 8915TIP3    H248237   3.412   0.898  17.243  0.4405 -0.3079  0.8437
 8916TIP3   OH248238   6.509   5.430  15.772 -0.3957 -0.3191  0.1402
 8916TIP3    H148239   6.443   5.363  15.758 -0.1584 -0.3895 -0.6855
 8916TIP3    H248240   6.496   5.458  15.863 -2.1145  0.2854 -0.2744
 8917TIP3   OH248241   5.121   4.029  14.906  0.1958 -0.0092  0.3415
 8917TIP3    H148242   5.172   3.964  14.858 -0.6636 -0.5025  0.0895
 8917TIP3    H248243   5.083   3.981  14.979 -2.2568 -0.3100 -1.0953
 8918TIP3   OH248244   6.285   3.223  14.862 -0.1584 -0.2172 -0.3344
 8918TIP3    H148245   6.377   3.238  14.840 -0.1866  0.9164  0.2702
 8918TIP3    H248246   6.269   3.131  14.839  1.6182 -0.9463  1.2232
 8919TIP3   OH248247   1.309   2.318   2.915  0.3757 -1.0210  0.6473
 8919TIP3    H148248   1.359   2.247   2.874 -1.1050 -0.6265 -1.9714
 8919TIP3    H248249   1.261   2.358   2.843 -0.0334  1.6676  2.3291
 8920TIP3   OH248250   0.484   0.533   1.770  0.3351  0.3104  0.2305
 8920TIP3    H148251   0.562   0.539   1.715 -1.4240  0.0203 -2.3768
 8920TIP3    H248252   0.478   0.441   1.793  1.6501  0.5963  1.8427
 8921TIP3   OH248253   3.859   1.648  14.809  0.0972  0.3653  0.3460
 8921TIP3    H148254   3.787   1.586  14.800  1.6624 -2.1476  3.7636
 8921TIP3    H248255   3.931   1.608  14.761  0.5503  0.5445  0.8718
 8922TIP3   OH248256   6.037   0.496  11.169  0.0002 -0.2890 -0.3466
 8922TIP3    H148257   5.966   0.554  11.197  0.6977  1.4918 -2.1682
 8922TIP3    H248258   6.092   0.486  11.246 -1.3195 -0.3325  0.6064
 8923TIP3   OH248259   4.555   1.645   3.327  0.4654 -0.1747  0.3644
 8923TIP3    H148260   4.467   1.672   3.356 -0.0579 -0.8366 -0.5640
 8923TIP3    H248261   4.576   1.570   3.383  0.3217 -0.1881  0.4018
 8924TIP3   OH248262   2.263   2.929  17.212 -0.2032 -0.4938  0.1061
 8924TIP3    H148263   2.328   2.997  17.201 -0.7553  0.1665  0.8331
 8924TIP3    H248264   2.237   2.935  17.304 -2.8802  0.7174 -0.6795
 8925TIP3   OH248265   0.649   1.821  12.818  0.1027  0.4206 -0.5276
 8925TIP3    H148266   0.628   1.826  12.724 -1.1924 -1.5890 -0.3783
 8925TIP3    H248267   0.649   1.727  12.837 -1.9048  0.8991  1.9844
 8926TIP3   OH248268   5.202   5.520  13.905 -0.3796  0.3022 -0.5211
 8926TIP3    H148269   5.297   5.519  13.917 -0.1672  3.6963 -1.4983
 8926TIP3    H248270   5.190   5.526  13.810 -1.5276  1.5669 -0.3155
 8927TIP3   OH248271   4.916   2.132   5.329  0.0930 -0.2341 -0.0538
 8927TIP3    H148272   4.871   2.149   5.246 -0.5144 -0.1008  0.3010
 8927TIP3    H248273   4.902   2.038   5.345  0.2394 -0.2673 -0.1157
 8928TIP3   OH248274   0.883   1.555  16.443  0.6230 -0.3518  0.0322
 8928TIP3    H148275   0.888   1.481  16.504  1.1628 -1.2079 -1.0316
 8928TIP3    H248276   0.953   1.539  16.379  1.4761  1.6714  0.4228
 8929TIP3   OH248277   3.289   2.673  16.664  0.1509  0.3592 -0.0072
 8929TIP3    H148278   3.381   2.691  16.644 -0.1700  0.1460 -1.8189
 8929TIP3    H248279   3.292   2.618  16.743  1.5924  0.1576 -0.1835
 8930TIP3   OH248280   1.737   4.443  14.792 -0.7085 -0.3674 -0.4957
 8930TIP3    H148281   1.672   4.430  14.723 -0.2577  0.1212 -1.0137
 8930TIP3    H248282   1.690   4.491  14.860 -0.4547  1.4421 -1.5681
 8931TIP3   OH248283   4.315   5.980   6.682 -0.0196 -0.1516 -0.0679
 8931TIP3    H148284   4.411   5.972   6.684  0.2019  2.1552 -0.2474
 8931TIP3    H248285   4.299   6.071   6.656 -2.2514  0.0296  1.7681
 8932TIP3   OH248286   2.014   4.863  13.616  0.3662 -0.1674 -0.0798
 8932TIP3    H148287   1.939   4.905  13.574 -1.3058 -2.3375  0.6476
 8932TIP3    H248288   1.992   4.863  13.710  0.4193 -2.3985 -0.0381
 8933TIP3   OH248289   2.682   6.035   1.761 -0.2271 -0.2878  0.0701
 8933TIP3    H148290   2.609   6.015   1.701 -0.6092  0.4036  0.3006
 8933TIP3    H248291   2.741   6.089   1.708 -1.4153  1.8249  0.8193
 8934TIP3   OH248292   3.393   1.285  14.280  0.1542  0.0179 -0.4995
 8934TIP3    H148293   3.373   1.326  14.364  0.7462 -0.4391 -0.1342
 8934TIP3    H248294   3.445   1.350  14.233  0.6008 -0.0849 -0.1485
 8935TIP3   OH248295   2.088   3.954   6.332  0.0702 -0.2385 -0.0677
 8935TIP3    H148296   2.095   3.983   6.241 -0.7305 -0.0478 -0.0771
 8935TIP3    H248297   2.002   3.986   6.361 -0.4634 -1.8562  0.2002
 8936TIP3   OH248298   1.128   3.924  14.180 -0.1361 -0.8759 -0.0163
 8936TIP3    H148299   1.132   3.829  14.164  1.6531 -1.0113  1.0328
 8936TIP3    H248300   1.178   3.936  14.260 -1.1293  0.8726  0.3475
 8937TIP3   OH248301   0.689   6.008  13.620  0.6048 -0.2726  0.2172
 8937TIP3    H148302   0.638   6.072  13.670  0.0889 -0.6343  0.1504
 8937TIP3    H248303   0.765   6.058  13.588  1.3308 -0.2013  1.9638
 8938TIP3   OH248304   4.584   4.063   1.561  0.1773 -0.0248  0.7588
 8938TIP3    H148305   4.669   4.051   1.518 -1.5730 -1.4044 -2.4507
 8938TIP3    H248306   4.559   3.975   1.589 -0.5063  0.2691  1.0703
 8939TIP3   OH248307   1.569   1.853  16.614  0.3784 -0.0685  0.1559
 8939TIP3    H148308   1.548   1.916  16.546 -2.1255 -0.9108  0.0721
 8939TIP3    H248309   1.538   1.895  16.695 -2.3218 -1.5644 -0.0334
 8940TIP3   OH248310   2.786   4.452  13.980 -0.5626 -0.1722  0.0586
 8940TIP3    H148311   2.765   4.362  13.955 -1.9743 -0.1912  1.2572
 8940TIP3    H248312   2.770   4.455  14.075 -0.3092  1.2731  0.0678
 8941TIP3   OH248313   6.276   5.259  15.756 -0.6324  0.3383 -0.0402
 8941TIP3    H148314   6.226   5.225  15.831 -1.6204  0.5146 -0.6019
 8941TIP3    H248315   6.231   5.340  15.733  0.9400  1.3807  0.4810
 8942TIP3   OH248316   4.201   2.687  13.643 -0.2751 -0.0241  0.2945
 8942TIP3    H148317   4.204   2.612  13.585 -2.5599  1.1497 -1.4138
 8942TIP3    H248318   4.147   2.660  13.716 -1.0222 -0.0772 -0.2768
 8943TIP3   OH248319   5.148   6.521  11.800  0.0455 -0.2425  0.1315
 8943TIP3    H148320   5.177   6.599  11.753 -2.0634  0.6925  0.3381
 8943TIP3    H248321   5.105   6.555  11.878  0.7146 -1.6918  1.1696
 8944TIP3   OH248322   5.876   6.321   4.214 -0.0816 -0.1582 -0.9430
 8944TIP3    H148323   5.925   6.403   4.208  0.1007 -0.1379  0.6891
 8944TIP3    H248324   5.926   6.259   4.160  1.8399 -0.1781  0.8225
 8945TIP3   OH248325   3.478   3.463  10.807 -0.4701  0.2646  0.1067
 8945TIP3    H148326   3.417   3.488  10.737 -0.0983  1.1655  0.0985
 8945TIP3    H248327   3.483   3.367  10.801  0.5478  0.4210 -1.9361
 8946TIP3   OH248328   1.955   0.995  11.337 -0.0783 -0.0686  0.2285
 8946TIP3    H148329   1.990   1.031  11.256  0.4369 -0.5224  0.2454
 8946TIP3    H248330   1.922   1.070  11.385  2.7107  0.6303  1.1286
 8947TIP3   OH248331   4.183   0.142  15.523  0.1175 -0.2834 -0.3831
 8947TIP3    H148332   4.099   0.159  15.480  0.3135  1.4844 -0.1242
 8947TIP3    H248333   4.248   0.187  15.469  0.8373 -1.1686 -0.2701
 8948TIP3   OH248334   0.085   3.268  15.398  0.6293 -0.1377  0.1019
 8948TIP3    H148335   0.013   3.222  15.441  1.1977  0.1788  1.3836
 8948TIP3    H248336   0.058   3.272  15.306 -1.1096  0.2134  0.6106
 8949TIP3   OH248337   2.719   0.872  14.216  0.5284 -0.0786 -0.0602
 8949TIP3    H148338   2.804   0.892  14.256  0.9228  0.8231 -1.3158
 8949TIP3    H248339   2.659   0.867  14.290  1.3103  1.1910  0.6838
 8950TIP3   OH248340   3.085   1.769  16.234  0.8113  0.6274 -0.6078
 8950TIP3    H148341   3.171   1.801  16.260  0.0703  2.3819 -0.2471
 8950TIP3    H248342   3.024   1.809  16.297 -0.3272 -0.1131 -1.2191
 8951TIP3   OH248343   5.740   2.555  16.652  0.0808  0.6602 -0.0564
 8951TIP3    H148344   5.722   2.461  16.657 -0.9263  0.9275  2.2376
 8951TIP3    H248345   5.658   2.593  16.622  0.3213  0.8779 -0.4475
 8952TIP3   OH248346   5.260   2.642   5.991  0.3723  0.1147 -0.0848
 8952TIP3    H148347   5.178   2.666   6.033  0.0169  0.4424 -0.9636
 8952TIP3    H248348   5.321   2.712   6.015  0.7020 -0.6656  1.4405
 8953TIP3   OH248349   5.439   0.049  13.510  0.3383 -0.1140  0.6326
 8953TIP3    H148350   5.385   0.003  13.445  0.1672  1.6548 -0.5147
 8953TIP3    H248351   5.382   0.059  13.586 -0.0566 -0.6376  0.4083
 8954TIP3   OH248352   4.758   6.548  10.983 -0.1314 -0.3304 -0.6402
 8954TIP3    H148353   4.806   6.544  11.065  1.4005 -1.0307 -1.5439
 8954TIP3    H248354   4.666   6.548  11.009  0.3391  0.3212  1.0929
 8955TIP3   OH248355   0.350   6.396   5.343  0.2556 -0.2789 -0.4206
 8955TIP3    H148356   0.341   6.410   5.248  2.1034 -1.0205 -0.7164
 8955TIP3    H248357   0.444   6.402   5.359  0.1463 -2.2174  1.0432
 8956TIP3   OH248358   6.027   5.332  14.906 -0.4305  0.8908  0.0988
 8956TIP3    H148359   6.050   5.425  14.910 -1.5016  1.1545  0.2699
 8956TIP3    H248360   5.937   5.331  14.871 -1.5118  0.0972  2.7916
 8957TIP3   OH248361   5.319   2.542  10.313  0.2506 -0.0061 -0.2461
 8957TIP3    H148362   5.415   2.543  10.322 -0.0182 -0.7855  3.8863
 8957TIP3    H248363   5.296   2.630  10.284  2.1822  0.3292 -0.8193
 8958TIP3   OH248364   4.209   2.901   0.194 -0.5879 -0.2564 -0.1224
 8958TIP3    H148365   4.219   2.850   0.114  0.3381  1.3845 -1.0762
 8958TIP3    H248366   4.134   2.959   0.176 -0.1104  0.4147  0.0135
 8959TIP3   OH248367   4.515   4.354  17.112  0.3029 -0.4510  0.3258
 8959TIP3    H148368   4.589   4.412  17.092  1.4359 -0.5621  3.9812
 8959TIP3    H248369   4.441   4.414  17.126 -0.0203 -0.2744 -1.8343
 8960TIP3   OH248370   4.772   0.030   0.035 -0.0405 -0.4397  0.1301
 8960TIP3    H148371   4.800   0.078   0.113  0.3620  0.9949 -0.8900
 8960TIP3    H248372   4.729   0.095  -0.020 -2.1115 -1.8612  0.0224
 8961TIP3   OH248373   3.256   2.054   3.100 -0.3644  0.0942 -0.4874
 8961TIP3    H148374   3.237   1.996   3.026  0.6313 -2.5473  1.2587
 8961TIP3    H248375   3.313   2.122   3.063  1.4333 -2.0679 -1.8749
 8962TIP3   OH248376   1.102   0.393   1.117  0.1355  0.5343 -0.2815
 8962TIP3    H148377   1.108   0.312   1.065  0.6777  0.5181 -0.2023
 8962TIP3    H248378   1.190   0.403   1.154  0.6936  2.3249 -2.0130
 8963TIP3   OH248379   1.190   2.917   0.563 -0.2242 -0.0408  0.3022
 8963TIP3    H148380   1.249   2.896   0.635 -2.1438  0.6910  2.1306
 8963TIP3    H248381   1.183   2.835   0.513 -0.0512 -1.0033  1.8202
 8964TIP3   OH248382   3.718   4.558   5.690 -0.7982  0.1727  0.2618
 8964TIP3    H148383   3.695   4.641   5.647 -0.3455 -0.3451 -1.0139
 8964TIP3    H248384   3.678   4.564   5.777 -2.1186  1.0665 -0.3867
 8965TIP3   OH248385   0.896   1.420   5.451 -0.2140  0.1480  0.1454
 8965TIP3    H148386   0.876   1.457   5.537 -1.9262 -1.1597  0.3574
 8965TIP3    H248387   0.974   1.367   5.465  0.7029  1.5482  0.4235
 8966TIP3   OH248388   2.735   1.246  12.478  0.0880 -0.2611  0.0476
 8966TIP3    H148389   2.699   1.328  12.510  1.0924  0.0839  0.3017
 8966TIP3    H248390   2.745   1.259  12.384 -2.1191 -0.9992 -0.3369
 8967TIP3   OH248391   6.014   0.504  11.718  0.0004 -0.1251 -0.3751
 8967TIP3    H148392   6.007   0.597  11.738  0.9618 -0.3062  0.9351
 8967TIP3    H248393   5.925   0.470  11.728 -0.2681  0.5676 -0.3852
 8968TIP3   OH248394   0.561   2.958  12.084 -0.3082 -0.1751  0.1672
 8968TIP3    H148395   0.578   3.042  12.042 -0.3036 -0.4319 -0.3484
 8968TIP3    H248396   0.466   2.948  12.081 -0.2725 -0.4144 -0.2169
 8969TIP3   OH248397   0.860   2.819  16.991 -0.4460  0.2554  0.9653
 8969TIP3    H148398   0.878   2.863  16.908 -0.5885 -0.1062  0.7377
 8969TIP3    H248399   0.934   2.760  17.003 -1.3881 -1.1443  0.0918
 8970TIP3   OH248400   5.136   3.965  17.158  0.1241  0.6502  0.4532
 8970TIP3    H148401   5.043   3.989  17.159  0.1588  1.0256 -2.2054
 8970TIP3    H248402   5.181   4.047  17.139  0.8588  0.0792 -0.2878
 8971TIP3   OH248403   3.548   4.705  12.963 -0.2021 -0.3236 -0.1241
 8971TIP3    H148404   3.549   4.612  12.986 -2.7307 -0.6342 -1.0124
 8971TIP3    H248405   3.527   4.706  12.870 -1.0368  1.1287  0.0562
 8972TIP3   OH248406   0.485   2.759  11.323 -0.1963  0.6776 -0.1991
 8972TIP3    H148407   0.407   2.807  11.349 -1.9371 -0.7877 -2.3846
 8972TIP3    H248408   0.545   2.825  11.290 -0.6653  1.7858  1.1476
 8973TIP3   OH248409   1.360   3.209   4.502 -0.8079 -0.5888  0.0389
 8973TIP3    H148410   1.430   3.190   4.439  1.0157 -0.5281  1.9954
 8973TIP3    H248411   1.291   3.145   4.481  0.2724 -1.3696 -1.2197
 8974TIP3   OH248412   3.543   2.740  15.617  0.8542 -0.0966 -0.1290
 8974TIP3    H148413   3.613   2.799  15.644  1.6027 -1.9074  2.0181
 8974TIP3    H248414   3.494   2.722  15.697 -1.3043  0.1265 -1.3664
 8975TIP3   OH248415   0.894   0.926   3.320  0.0169 -0.9872 -0.3333
 8975TIP3    H148416   0.848   0.862   3.375 -1.1537  0.2807  0.1802
 8975TIP3    H248417   0.958   0.966   3.378 -2.3791  1.5859  0.6493
 8976TIP3   OH248418   1.760   0.893  10.709 -0.2789 -0.0534 -0.3625
 8976TIP3    H148419   1.749   0.837  10.632  0.7530 -0.9170  0.1161
 8976TIP3    H248420   1.829   0.954  10.684 -0.2227 -0.0782 -0.2670
 8977TIP3   OH248421   2.488   4.619  16.537 -0.7966  0.3013 -0.1596
 8977TIP3    H148422   2.482   4.662  16.622 -0.4812  0.2624 -0.1169
 8977TIP3    H248423   2.401   4.581  16.524 -0.1586 -1.7666  1.2610
 8978TIP3   OH248424   1.319   4.267   1.479  0.5043  0.3661 -0.0251
 8978TIP3    H148425   1.253   4.335   1.493  0.8319  0.9888 -1.4238
 8978TIP3    H248426   1.308   4.208   1.554 -0.6048  1.2863  0.5647
 8979TIP3   OH248427   4.822   2.604   3.541 -0.1176  0.7143 -0.1306
 8979TIP3    H148428   4.898   2.551   3.566  0.0817  0.1778 -1.8575
 8979TIP3    H248429   4.765   2.543   3.495  0.3593  2.0961 -2.6513
 8980TIP3   OH248430   5.511   2.713   2.192 -0.2819 -0.1799  0.0915
 8980TIP3    H148431   5.574   2.641   2.201 -0.2344  0.1080  2.5848
 8980TIP3    H248432   5.565   2.789   2.170  0.0067 -0.3660  0.1487
 8981TIP3   OH248433   2.341   2.853  12.686  0.0039 -0.0401  0.0541
 8981TIP3    H148434   2.288   2.782  12.648 -0.1353  0.9527 -1.6373
 8981TIP3    H248435   2.405   2.874  12.618  0.6140  0.8636  0.9042
 8982TIP3   OH248436   1.213   4.158   3.944  0.3382 -0.3763  0.3815
 8982TIP3    H148437   1.294   4.163   3.893  1.1408 -0.9849  1.5957
 8982TIP3    H248438   1.147   4.197   3.886  1.2969 -0.7398 -0.9923
 8983TIP3   OH248439   2.737   1.817   4.558  0.0429 -0.2393 -0.0358
 8983TIP3    H148440   2.690   1.787   4.480  1.4218 -1.1689 -0.5396
 8983TIP3    H248441   2.822   1.847   4.524 -0.0296  1.0649  0.8933
 8984TIP3   OH248442   3.199   3.977  11.860  0.0271  0.3051  0.4310
 8984TIP3    H148443   3.247   3.942  11.785 -0.0136 -0.5586  0.8015
 8984TIP3    H248444   3.159   3.901  11.900 -0.5228  0.8541  0.9306
 8985TIP3   OH248445   0.824   4.925  16.690 -0.4648  0.5806 -0.4371
 8985TIP3    H148446   0.879   4.949  16.764 -0.5003 -1.4370  0.2755
 8985TIP3    H248447   0.740   4.967  16.708 -0.4755  0.0873  0.6738
 8986TIP3   OH248448   2.128   5.825   5.498  0.1798 -0.3962  0.4383
 8986TIP3    H148449   2.140   5.901   5.440  0.7698 -0.4758  0.4486
 8986TIP3    H248450   2.099   5.863   5.581  1.6292 -0.0544  0.8187
 8987TIP3   OH248451   5.507   6.452   0.096  0.0398  0.0218 -0.0056
 8987TIP3    H148452   5.593   6.410   0.093  1.1407  2.2286 -0.5323
 8987TIP3    H248453   5.493   6.470   0.189 -0.8723 -2.3107  0.3370
 8988TIP3   OH248454   4.112   5.695  14.346  0.5929 -0.0902 -0.0920
 8988TIP3    H148455   4.133   5.655  14.430 -0.6306  0.5914  0.5495
 8988TIP3    H248456   4.017   5.707  14.348  0.7569  1.5043 -0.8696
 8989TIP3   OH248457   6.703   3.071  13.671  0.2063  0.1035  0.3776
 8989TIP3    H148458   6.633   3.043  13.729  1.2061 -1.4173  0.8691
 8989TIP3    H248459   6.783   3.053  13.719  0.9388  2.5233  0.1260
 8990TIP3   OH248460   6.588   4.323   1.188  0.3939  0.2965  0.7575
 8990TIP3    H148461   6.510   4.270   1.204  0.2779  1.1208  3.1111
 8990TIP3    H248462   6.638   4.319   1.269  2.2437  0.7260 -0.3258
 8991TIP3   OH248463   1.636   3.057   4.042  0.5866  0.0239 -0.3547
 8991TIP3    H148464   1.709   3.000   4.064  1.8131  1.9839  0.8771
 8991TIP3    H248465   1.567   2.998   4.013  2.3876 -1.9332 -0.8165
 8992TIP3   OH248466   1.132   4.251  11.501 -0.6063  0.1169  0.0661
 8992TIP3    H148467   1.118   4.341  11.472 -0.4063 -0.0933 -0.6943
 8992TIP3    H248468   1.227   4.245  11.514 -0.5136 -0.2571 -0.7892
 8993TIP3   OH248469   5.998   6.053  17.023 -1.0767 -0.4167  0.0124
 8993TIP3    H148470   5.982   6.004  17.104  0.8764  0.2311  0.8121
 8993TIP3    H248471   6.091   6.041  17.006 -1.1019  0.9580 -1.1707
 8994TIP3   OH248472   1.304   6.730   6.436 -0.1803  0.0394 -0.0424
 8994TIP3    H148473   1.321   6.737   6.530 -0.9925  1.1157  0.0411
 8994TIP3    H248474   1.229   6.671   6.429 -0.4077  0.3174  0.0245
 8995TIP3   OH248475   0.167   3.851  15.893  0.2086 -0.1031 -0.0476
 8995TIP3    H148476   0.216   3.933  15.883  1.5982 -1.0523 -1.1513
 8995TIP3    H248477   0.136   3.853  15.983  0.8762  1.2996  0.1681
 8996TIP3   OH248478   6.341   4.833   5.125  1.1305 -0.5396  0.3266
 8996TIP3    H148479   6.300   4.807   5.207  0.8772  1.5920  0.9098
 8996TIP3    H248480   6.405   4.900   5.151  2.1573 -0.9829 -1.0285
 8997TIP3   OH248481   4.804   0.399  13.213  0.1213 -0.4901 -0.8853
 8997TIP3    H148482   4.816   0.494  13.215  1.2506 -0.5852 -2.4623
 8997TIP3    H248483   4.893   0.364  13.209 -0.2892 -1.6302 -0.3260
 8998TIP3   OH248484   2.958   4.670   0.493  0.1145  0.6988 -0.0915
 8998TIP3    H148485   3.049   4.686   0.470  0.5402 -1.1744  0.2317
 8998TIP3    H248486   2.928   4.605   0.430 -0.0350 -1.0678  1.7523
 8999TIP3   OH248487   5.048   5.869   6.191  1.1705 -0.2532 -0.0327
 8999TIP3    H148488   4.976   5.891   6.132  0.9140  0.3974  0.5204
 8999TIP3    H248489   5.117   5.930   6.169  0.4428  1.1798  1.5296
 9000TIP3   OH248490   0.030   0.798   3.131 -0.0951  0.2614 -0.0436
 9000TIP3    H148491  -0.028   0.734   3.089 -0.1126 -0.1662  0.6333
 9000TIP3    H248492   0.031   0.872   3.070  0.4295 -0.6265 -1.1330
 9001TIP3   OH248493   0.401   3.785  11.666  0.1258 -0.0422  0.1217
 9001TIP3    H148494   0.312   3.766  11.636  0.5789 -0.4577 -0.9868
 9001TIP3    H248495   0.423   3.712  11.724  0.0272 -0.3337 -0.2068
 9002TIP3   OH248496   3.846   0.261  17.228 -0.2648 -0.8285 -0.2917
 9002TIP3    H148497   3.815   0.171  17.217 -2.5440 -0.0707 -0.3020
 9002TIP3    H248498   3.784   0.314  17.177 -0.2584  0.9600  1.5014
 9003TIP3   OH248499   4.737   3.654   2.079 -0.1185 -0.9701 -0.2124
 9003TIP3    H148500   4.686   3.714   2.133 -0.1459  0.0645 -1.3566
 9003TIP3    H248501   4.769   3.708   2.007  1.7681 -1.8334 -0.0497
 9004TIP3   OH248502   6.180   1.138  12.260  0.2996 -0.3988  0.6770
 9004TIP3    H148503   6.152   1.198  12.329 -0.4840 -0.5938  0.5297
 9004TIP3    H248504   6.185   1.192  12.181  0.3143 -0.3675  0.6991
 9005TIP3   OH248505   3.364   1.830  12.506 -0.4504  1.1632 -0.2959
 9005TIP3    H148506   3.284   1.778  12.507  0.3521 -0.0845 -1.0897
 9005TIP3    H248507   3.405   1.813  12.591  0.7503 -0.9867 -1.2747
 9006TIP3   OH248508   0.890   3.303   0.244 -0.5194 -0.5406  0.1160
 9006TIP3    H148509   0.893   3.225   0.299 -2.1401  0.1736  1.2772
 9006TIP3    H248510   0.836   3.277   0.169  1.3655 -1.3962 -0.9707
 9007TIP3   OH248511   3.890   4.329  15.471 -0.4177  0.2080  0.2910
 9007TIP3    H148512   3.934   4.414  15.468  0.4380 -0.1536  2.1257
 9007TIP3    H248513   3.822   4.336  15.404  0.3003  1.9591 -0.3046
 9008TIP3   OH248514   4.734   0.884  13.714  0.0438 -0.2399 -0.4694
 9008TIP3    H148515   4.650   0.840  13.711 -0.6659  0.9719  0.7987
 9008TIP3    H248516   4.717   0.964  13.764  2.2125 -0.5753  0.8766
 9009TIP3   OH248517   4.265   5.657   1.614  0.0769  0.1937  0.4332
 9009TIP3    H148518   4.327   5.591   1.645  0.6131  0.8773  0.8303
 9009TIP3    H248519   4.204   5.608   1.558  1.0702 -0.4612 -0.1011
 9010TIP3   OH248520   3.056   4.197   4.714 -0.0625 -0.0637  0.0280
 9010TIP3    H148521   3.117   4.246   4.769 -0.4972  1.1605 -0.5574
 9010TIP3    H248522   3.035   4.257   4.643 -1.6328 -0.6180  0.0106
 9011TIP3   OH248523   2.593   3.786   1.884 -0.1171  0.5072  0.2452
 9011TIP3    H148524   2.502   3.759   1.899  0.3156  0.1376  2.3545
 9011TIP3    H248525   2.645   3.708   1.903  0.7416  1.1170  0.4577
 9012TIP3   OH248526   6.534   2.825  14.720  0.0069 -0.0042 -0.0596
 9012TIP3    H148527   6.611   2.784  14.760  0.2774 -0.2926 -0.8747
 9012TIP3    H248528   6.495   2.755  14.667 -0.7353  0.1850  0.2317
 9013TIP3   OH248529   0.226   0.780   2.005  0.1750  0.7579 -0.0640
 9013TIP3    H148530   0.219   0.865   2.049  0.2461  2.0477 -2.4662
 9013TIP3    H248531   0.313   0.749   2.028  0.0318  1.1562  1.1003
 9014TIP3   OH248532   0.332   2.141  12.328 -0.0306 -0.3734  0.5950
 9014TIP3    H148533   0.372   2.053  12.326 -1.0125 -0.8354  1.0464
 9014TIP3    H248534   0.282   2.146  12.247 -2.3938 -1.3906  1.9450
 9015TIP3   OH248535   4.077   2.107   3.040 -0.0197  0.3397 -0.1289
 9015TIP3    H148536   3.996   2.056   3.036  0.0370  0.2338  0.0557
 9015TIP3    H248537   4.055   2.181   3.097  0.2674 -0.1513  0.6213
 9016TIP3   OH248538   4.603   6.414   2.736 -0.3083 -0.1944 -0.2309
 9016TIP3    H148539   4.621   6.505   2.758  0.9744 -0.3064 -0.7745
 9016TIP3    H248540   4.677   6.366   2.773 -0.1712 -0.8330 -1.3310
 9017TIP3   OH248541   3.450   4.593  11.717  0.5014 -0.1894 -0.2019
 9017TIP3    H148542   3.453   4.506  11.755 -0.3640 -0.2244 -0.2176
 9017TIP3    H248543   3.363   4.626  11.738 -0.1970 -0.4247 -2.5857
 9018TIP3   OH248544   1.082   1.700  13.509 -0.1241 -0.2576  0.1300
 9018TIP3    H148545   1.106   1.629  13.450 -0.6004  0.2478 -0.6841
 9018TIP3    H248546   0.987   1.694  13.517 -0.2443  0.6394 -0.4329
 9019TIP3   OH248547   5.676   4.410  15.529  0.7001 -0.0411 -0.5641
 9019TIP3    H148548   5.764   4.393  15.563  1.1571 -0.4014 -1.9021
 9019TIP3    H248549   5.690   4.433  15.437 -0.4891  1.2672 -0.4274
 9020TIP3   OH248550   4.637   1.042   5.744 -0.3450  0.1605 -0.4674
 9020TIP3    H148551   4.602   1.130   5.731  1.1525  0.5532 -2.0134
 9020TIP3    H248552   4.631   1.001   5.657  0.5457 -0.6694 -0.1496
 9021TIP3   OH248553   3.731   3.074   2.722  0.3212 -0.3014  0.2757
 9021TIP3    H148554   3.804   3.043   2.669 -0.3875 -2.5945  0.5784
 9021TIP3    H248555   3.695   3.148   2.673  1.7867 -0.2314 -0.7108
 9022TIP3   OH248556   1.004   3.824  16.482 -0.9528 -0.0479  0.6186
 9022TIP3    H148557   1.018   3.919  16.483 -0.9425  0.0053 -1.3465
 9022TIP3    H248558   0.944   3.810  16.409 -0.4798 -1.6092  0.5171
 9023TIP3   OH248559   6.453   1.259  14.989 -0.8851  0.1254 -0.2272
 9023TIP3    H148560   6.437   1.209  15.069  1.3020 -0.1466  0.0740
 9023TIP3    H248561   6.412   1.208  14.920 -1.5013 -0.4008  0.5202
 9024TIP3   OH248562   3.408   3.020   4.780  0.4480  0.1600 -0.6736
 9024TIP3    H148563   3.449   2.945   4.737  0.4745  0.3611 -1.0013
 9024TIP3    H248564   3.352   3.058   4.713  2.2252  1.8385 -1.2334
 9025TIP3   OH248565   2.744   4.172  14.232  0.1855  0.0091 -0.0893
 9025TIP3    H148566   2.736   4.267  14.224 -1.1460 -0.1950 -1.4071
 9025TIP3    H248567   2.655   4.143  14.255  0.0932 -1.1083 -1.7919
 9026TIP3   OH248568   0.739   1.815   2.778 -0.0839  0.2920 -0.1097
 9026TIP3    H148569   0.687   1.824   2.699  0.0539 -0.3528 -0.2789
 9026TIP3    H248570   0.757   1.905   2.806  1.2441  0.5578 -1.7147
 9027TIP3   OH248571   5.270   2.514  13.674 -0.3678 -0.0880  0.0964
 9027TIP3    H148572   5.224   2.541  13.753 -0.4535  2.5940 -0.8295
 9027TIP3    H248573   5.298   2.424  13.693 -1.6044 -0.0073  2.5981
 9028TIP3   OH248574   3.899   3.943  14.450 -0.4274 -0.2999  0.2737
 9028TIP3    H148575   3.920   3.998  14.374  0.7802 -2.1852 -0.8093
 9028TIP3    H248576   3.873   3.859  14.411  1.1187 -1.5831  1.9879
 9029TIP3   OH248577   0.904   2.822  13.209  0.0019  0.4520  0.4108
 9029TIP3    H148578   0.821   2.788  13.175  0.7028 -1.0557  0.2155
 9029TIP3    H248579   0.964   2.818  13.135  0.3128  1.4130  0.5906
 9030TIP3   OH248580   6.711   5.243  12.326  0.0611 -0.3632 -0.2359
 9030TIP3    H148581   6.709   5.154  12.361  0.8761 -0.4513 -0.4036
 9030TIP3    H248582   6.622   5.274  12.336  0.2045 -0.4782  1.7302
 9031TIP3   OH248583   1.299   5.154   3.732 -0.5138 -0.0838 -0.4678
 9031TIP3    H148584   1.366   5.201   3.781  0.8864 -0.4038 -2.0447
 9031TIP3    H248585   1.220   5.207   3.743  0.7405  2.0132 -1.1846
 9032TIP3   OH248586   5.396   5.110  14.542  0.5345  0.0728 -0.0285
 9032TIP3    H148587   5.425   5.201  14.547 -0.0332  0.2607 -0.0359
 9032TIP3    H248588   5.344   5.106  14.461 -0.1050 -0.0650  0.3880
 9033TIP3   OH248589   3.856   6.723  13.610  0.1404 -0.2969 -0.1413
 9033TIP3    H148590   3.797   6.682  13.547  0.5853 -1.2333  0.0371
 9033TIP3    H248591   3.819   6.701  13.695  0.2058 -0.0570 -0.0505
 9034TIP3   OH248592   6.518   2.981  13.893  0.6157  0.6301  0.0572
 9034TIP3    H148593   6.427   2.960  13.870  1.3115 -0.6499 -1.5643
 9034TIP3    H248594   6.528   2.949  13.983 -0.1215 -0.5000 -0.2516
 9035TIP3   OH248595   3.480   4.554  16.605  0.4882  0.0420 -0.3511
 9035TIP3    H148596   3.511   4.644  16.616  1.7477 -0.1695 -1.9644
 9035TIP3    H248597   3.539   4.501  16.658  0.8191 -0.0123 -0.7735
 9036TIP3   OH248598   5.329   0.948  12.652  0.5623  0.3757 -0.4737
 9036TIP3    H148599   5.388   1.001  12.598 -1.4909  1.8649 -1.3162
 9036TIP3    H248600   5.327   0.862  12.609  2.9323 -0.0320  0.1815
 9037TIP3   OH248601   0.848   0.596   4.949 -0.1256  0.2463 -0.0380
 9037TIP3    H148602   0.925   0.543   4.969 -0.5700 -1.5652 -2.8003
 9037TIP3    H248603   0.774   0.537   4.963 -0.7040  0.5156 -1.8182
 9038TIP3   OH248604   1.442   2.347   4.926  0.3928 -0.1943  0.2643
 9038TIP3    H148605   1.391   2.371   5.004  0.2344  0.0018  0.1022
 9038TIP3    H248606   1.526   2.318   4.960  0.0633 -0.8170  0.5554
 9039TIP3   OH248607   1.449   4.057  14.834 -0.5124 -0.7036  0.0172
 9039TIP3    H148608   1.430   4.079  14.742  0.1899 -0.4073 -0.0597
 9039TIP3    H248609   1.437   4.140  14.881  1.0136 -0.4005 -0.0996
 9040TIP3   OH248610   4.217   5.532   4.771  0.7971  0.2536 -0.1674
 9040TIP3    H148611   4.249   5.460   4.826 -0.8254 -0.0119  0.4532
 9040TIP3    H248612   4.204   5.493   4.685 -1.8334 -0.7061  0.6014
 9041TIP3   OH248613   4.566   1.085   6.675  0.2552  0.3028  0.2406
 9041TIP3    H148614   4.645   1.090   6.729 -0.0955  0.5599  0.7325
 9041TIP3    H248615   4.497   1.123   6.730 -0.3656 -0.6048  0.1033
 9042TIP3   OH248616   2.636   3.413   0.691 -0.2045  0.1796 -0.0416
 9042TIP3    H148617   2.675   3.408   0.779  0.1582 -0.9260 -0.2614
 9042TIP3    H248618   2.646   3.325   0.656  1.6050  1.1217 -2.0316
 9043TIP3   OH248619   2.109   0.228  14.086  0.0490 -0.3743  0.7098
 9043TIP3    H148620   2.182   0.227  14.147  0.3355  0.6864  0.4016
 9043TIP3    H248621   2.074   0.317  14.092 -0.9317 -0.7426  0.5267
 9044TIP3   OH248622   5.740   1.456  13.115  0.1100 -0.1040 -0.1477
 9044TIP3    H148623   5.756   1.463  13.209 -1.0870  3.8765 -0.1551
 9044TIP3    H248624   5.653   1.493  13.102  0.5813  0.1750 -2.9146
 9045TIP3   OH248625   1.040   0.029   0.056  0.0806 -0.9794  0.1134
 9045TIP3    H148626   1.100  -0.044   0.074  1.7623  0.0948 -0.9505
 9045TIP3    H248627   0.962  -0.012   0.018  1.0168 -2.2266 -0.5032
 9046TIP3   OH248628   2.741   3.124   1.471  0.1863  0.6238  0.3310
 9046TIP3    H148629   2.651   3.137   1.441 -0.2213 -0.6507  0.9446
 9046TIP3    H248630   2.786   3.205   1.449 -1.1630  1.3427  0.1625
 9047TIP3   OH248631   3.445   5.244  13.964 -0.1283 -0.2748  0.1858
 9047TIP3    H148632   3.423   5.166  14.014 -0.3206 -1.3440 -1.5350
 9047TIP3    H248633   3.361   5.284  13.943 -0.0154  0.5963  1.3627
 9048TIP3   OH248634   6.735   5.011   2.632 -0.2577 -0.7101 -0.1786
 9048TIP3    H148635   6.678   4.986   2.559 -0.8772 -1.1128  0.4443
 9048TIP3    H248636   6.750   5.105   2.619 -0.5509 -0.7309 -0.6963
 9049TIP3   OH248637   0.693   1.317  13.443 -0.6803  0.1403  0.0866
 9049TIP3    H148638   0.684   1.222  13.438 -0.1376  0.1516 -1.3856
 9049TIP3    H248639   0.755   1.339  13.372 -3.2798  1.9126 -1.7201
 9050TIP3   OH248640   2.604   1.488  12.567  0.1948 -0.4233  0.1191
 9050TIP3    H148641   2.617   1.540  12.487  0.1080 -1.0211 -0.2864
 9050TIP3    H248642   2.515   1.509  12.595 -0.5823 -1.8575 -1.1657
 9051TIP3   OH248643   4.695   2.595  16.952  0.2382  0.0707  0.9618
 9051TIP3    H148644   4.716   2.637  17.035  1.6326  0.4090  0.4407
 9051TIP3    H248645   4.638   2.658  16.907  0.2376  0.2813  1.2573
 9052TIP3   OH248646   5.224   4.561   4.192 -0.7109  0.2106 -0.1994
 9052TIP3    H148647   5.135   4.535   4.214 -0.9207  0.1885 -1.0604
 9052TIP3    H248648   5.222   4.657   4.193 -1.1960  0.2365 -1.9540
 9053TIP3   OH248649   2.143   4.846  15.258 -0.2879 -0.5307  0.4880
 9053TIP3    H148650   2.118   4.776  15.199  0.2591  0.8519 -1.4160
 9053TIP3    H248651   2.079   4.841  15.329 -1.4811 -1.6504 -0.6497
 9054TIP3   OH248652   2.583   4.138   5.939 -0.2295 -0.3888  0.0792
 9054TIP3    H148653   2.604   4.105   5.852 -0.2379 -0.3214  0.0517
 9054TIP3    H248654   2.639   4.215   5.949 -3.6273  2.4427 -1.7461
 9055TIP3   OH248655   5.082   4.956   3.909  0.3272 -0.3968  0.5379
 9055TIP3    H148656   5.064   4.890   3.976 -1.0595  0.2697  0.8520
 9055TIP3    H248657   4.997   4.999   3.895  0.6581 -0.3287 -1.4289
 9056TIP3   OH248658   6.563   2.801   0.733 -0.2076  0.1423  0.2173
 9056TIP3    H148659   6.485   2.750   0.753  0.1058  0.1884  1.6002
 9056TIP3    H248660   6.554   2.825   0.641 -0.5962 -1.9813 -0.3123
 9057TIP3   OH248661   6.676   3.662   3.607 -0.2692 -0.6056 -0.2734
 9057TIP3    H148662   6.621   3.722   3.557  1.5120  1.3029  0.0332
 9057TIP3    H248663   6.752   3.714   3.633  1.1025 -2.8671  0.3755
 9058TIP3   OH248664   4.608   2.476  14.542  0.3671 -0.4640 -0.6518
 9058TIP3    H148665   4.513   2.466  14.536  0.2510 -0.8500  1.3659
 9058TIP3    H248666   4.636   2.404  14.599  1.7101  0.4089 -0.1864
 9059TIP3   OH248667   4.408   6.020   6.363  0.2269 -0.0164 -0.2131
 9059TIP3    H148668   4.417   6.104   6.407 -1.3500  0.8226 -1.4422
 9059TIP3    H248669   4.489   5.973   6.383  0.6019  1.3214  1.4736
 9060TIP3   OH248670   6.441   3.429  10.407  0.4058  0.3656  0.2599
 9060TIP3    H148671   6.472   3.487  10.476  1.8834  0.1796 -0.2367
 9060TIP3    H248672   6.426   3.345  10.451 -0.0208  0.6332  0.6273
 9061TIP3   OH248673   2.683   0.334   1.572 -0.5991 -0.0880 -0.3025
 9061TIP3    H148674   2.641   0.387   1.640 -0.0662  0.6564 -0.5471
 9061TIP3    H248675   2.703   0.251   1.616 -0.7783  0.1759  0.2898
 9062TIP3   OH248676   3.253   5.929   0.981  0.3041  0.2527 -0.0501
 9062TIP3    H148677   3.221   6.017   1.001 -3.3365 -1.3156  1.5261
 9062TIP3    H248678   3.294   5.938   0.895 -0.7071  3.3208 -0.2900
 9063TIP3   OH248679   2.606   6.752  12.638 -0.1234  0.1389 -0.3694
 9063TIP3    H148680   2.636   6.779  12.552 -0.1026 -1.7011 -0.9688
 9063TIP3    H248681   2.558   6.670  12.622  1.0861 -0.9797  1.5249
 9064TIP3   OH248682   1.313   1.452  13.606 -0.4967  0.0153 -1.0245
 9064TIP3    H148683   1.221   1.434  13.623 -0.0992 -1.0820  0.0759
 9064TIP3    H248684   1.321   1.452  13.511 -1.5119 -0.5296 -1.1132
 9065TIP3   OH248685   3.764   0.140   0.946  0.2611 -0.2853 -0.0459
 9065TIP3    H148686   3.808   0.136   0.861  0.9992  0.4288  0.2934
 9065TIP3    H248687   3.702   0.213   0.936  0.3245 -0.2231  0.0146
 9066TIP3   OH248688   2.014   3.048  16.625 -0.5988  0.1599  0.5267
 9066TIP3    H148689   2.032   3.141  16.611  0.6016 -0.4842 -2.5559
 9066TIP3    H248690   2.095   3.012  16.660 -0.4306 -0.0850 -0.1071
 9067TIP3   OH248691   0.457   5.319  16.810  0.3034  0.1733 -0.1221
 9067TIP3    H148692   0.428   5.276  16.730 -2.2215  0.1715  0.7455
 9067TIP3    H248693   0.377   5.351  16.851  1.7350  2.0467  1.3495
 9068TIP3   OH248694   1.626   3.311  13.855 -0.3008 -0.1246  0.0584
 9068TIP3    H148695   1.667   3.266  13.928  2.2029  0.1777 -1.0969
 9068TIP3    H248696   1.649   3.258  13.778 -0.3601  1.1548 -0.8622
 9069TIP3   OH248697   4.247   3.056   1.618 -0.0351 -0.4967 -0.1582
 9069TIP3    H148698   4.260   3.054   1.713 -0.5987 -1.0951 -0.0947
 9069TIP3    H248699   4.226   3.147   1.599  2.9365  0.2631 -0.0943
 9070TIP3   OH248700   0.418   6.577  14.895  0.2324 -0.3546  0.0686
 9070TIP3    H148701   0.342   6.580  14.838  1.4447  0.2994 -1.5658
 9070TIP3    H248702   0.434   6.484  14.909  0.2576 -0.5436 -1.1471
 9071TIP3   OH248703   2.280   6.078  14.751 -0.0033  0.1818  0.0671
 9071TIP3    H148704   2.318   6.045  14.833 -1.3085 -1.5432  0.0070
 9071TIP3    H248705   2.350   6.130  14.712  1.5541 -1.1275  1.0222
 9072TIP3   OH248706   3.489   1.658  16.694 -0.2519  0.1750  0.0423
 9072TIP3    H148707   3.545   1.589  16.658  1.0067  1.9583 -1.5160
 9072TIP3    H248708   3.527   1.678  16.779 -0.7885 -1.2152  0.6227
 9073TIP3   OH248709   0.868   0.269   3.876  0.2930 -0.2270  0.2077
 9073TIP3    H148710   0.795   0.220   3.915  0.3960  0.3509  1.1274
 9073TIP3    H248711   0.905   0.319   3.948  1.7594 -0.6942 -0.2110
 9074TIP3   OH248712   3.211   1.666  14.535 -0.0126  0.0225 -0.7485
 9074TIP3    H148713   3.234   1.690  14.445 -0.6155 -0.5704 -1.0618
 9074TIP3    H248714   3.272   1.596  14.558  0.5321  0.5816 -0.4845
 9075TIP3   OH248715   1.640   4.652   4.199 -0.6013  0.2100 -0.3043
 9075TIP3    H148716   1.731   4.667   4.174 -0.3963 -0.6164 -0.0705
 9075TIP3    H248717   1.634   4.558   4.211 -1.5054  0.2568 -0.3673
 9076TIP3   OH248718   2.992   4.652  11.636 -0.0158  0.4836 -0.0748
 9076TIP3    H148719   3.065   4.681  11.580  1.9971 -0.2338  2.0890
 9076TIP3    H248720   2.979   4.724  11.697  0.5372 -0.3960  1.0971
 9077TIP3   OH248721   3.741   1.686  11.395  0.3882 -0.3076 -0.4033
 9077TIP3    H148722   3.668   1.662  11.337 -0.4951  2.7370 -0.6454
 9077TIP3    H248723   3.729   1.631  11.472 -0.5559 -1.8173 -1.5949
 9078TIP3   OH248724   0.982   1.697  12.727 -0.4404  0.8334 -0.2268
 9078TIP3    H148725   1.044   1.709  12.655  0.7487  0.3935  0.7116
 9078TIP3    H248726   0.953   1.606  12.718 -1.3695  1.1951 -0.9813
 9079TIP3   OH248727   0.107   3.148   4.508 -0.3001 -0.0813  0.4229
 9079TIP3    H148728   0.194   3.189   4.499 -0.2361  0.4188  2.8889
 9079TIP3    H248729   0.122   3.056   4.489  0.4033  0.3215 -1.0185
 9080TIP3   OH248730   4.611   1.915   6.089 -0.4378  0.3409 -0.2930
 9080TIP3    H148731   4.613   1.860   6.167  1.3544 -0.5314 -0.9071
 9080TIP3    H248732   4.628   2.003   6.122  0.4663 -0.0438  0.3176
 9081TIP3   OH248733   5.295   1.426   0.356 -0.0772 -0.2343 -0.1371
 9081TIP3    H148734   5.226   1.482   0.319 -0.5575 -0.4766  0.3760
 9081TIP3    H248735   5.309   1.462   0.444  0.7682  0.0876 -0.3964
 9082TIP3   OH248736   1.664   4.042   0.466  0.1741 -0.1273  0.5097
 9082TIP3    H148737   1.632   4.051   0.556 -0.0859  0.4774  0.3631
 9082TIP3    H248738   1.584   4.034   0.413  0.3454 -1.0444  0.3913
 9083TIP3   OH248739   2.335   2.650  11.165  0.3295  0.4700  0.1022
 9083TIP3    H148740   2.380   2.568  11.181  0.1437  0.0600 -1.3794
 9083TIP3    H248741   2.385   2.691  11.094 -0.1911  1.1419  0.1203
 9084TIP3   OH248742   1.981   5.852  12.378  0.4118  0.0736  0.1312
 9084TIP3    H148743   1.900   5.842  12.428  0.3393  0.8781  0.1756
 9084TIP3    H248744   1.953   5.854  12.287  0.2577  1.6998  0.2149
 9085TIP3   OH248745   0.161   5.243  11.680 -0.4164  0.0282  0.3430
 9085TIP3    H148746   0.238   5.212  11.728 -1.1606 -0.3181  1.3340
 9085TIP3    H248747   0.192   5.254  11.590  0.7499 -0.2473  0.6947
 9086TIP3   OH248748   2.667   5.930   5.686 -0.0274  0.3919  0.7900
 9086TIP3    H148749   2.617   5.991   5.740 -0.5895  0.3021  0.3820
 9086TIP3    H248750   2.640   5.950   5.596  1.5140  1.1036  0.4692
 9087TIP3   OH248751   6.631   0.823   5.955 -0.8335 -0.0908  0.3821
 9087TIP3    H148752   6.688   0.781   6.020  0.3613  0.6583 -0.1713
 9087TIP3    H248753   6.638   0.769   5.877 -1.2009 -0.2161  0.4326
 9088TIP3   OH248754   4.884   3.111  15.429 -0.1353 -0.6692  0.4326
 9088TIP3    H148755   4.910   3.203  15.418  0.4394 -0.5744  2.4499
 9088TIP3    H248756   4.827   3.093  15.354  1.4844  0.6945 -1.1702
 9089TIP3   OH248757   0.019   6.491  13.204  0.0965  0.1201 -0.0184
 9089TIP3    H148758  -0.071   6.484  13.173  0.1754 -0.4311 -0.1255
 9089TIP3    H248759   0.066   6.423  13.156  0.0928 -1.1767  1.7788
 9090TIP3   OH248760   3.987   2.859  10.255  0.2386  0.6209  0.4056
 9090TIP3    H148761   3.995   2.858  10.351 -0.8562 -2.0572  0.5031
 9090TIP3    H248762   3.896   2.883  10.239  0.8216  2.6466 -0.0417
 9091TIP3   OH248763   1.005   0.237  13.891  0.3982  0.2799 -0.0238
 9091TIP3    H148764   0.986   0.279  13.807  0.1769  0.7043  0.2358
 9091TIP3    H248765   1.017   0.310  13.952 -0.6012 -0.0441  0.5617
 9092TIP3   OH248766   4.443   6.665  12.214  0.5574  0.0790  0.1183
 9092TIP3    H148767   4.472   6.669  12.305  2.3341 -2.8577 -0.2550
 9092TIP3    H248768   4.460   6.753  12.180 -0.4752  1.3237  2.6870
 9093TIP3   OH248769   1.773   0.408  15.220 -0.2123 -0.2783 -0.5808
 9093TIP3    H148770   1.775   0.407  15.316 -1.3582 -1.5361 -0.5481
 9093TIP3    H248771   1.837   0.341  15.194 -0.0850 -0.1125 -0.6994
 9094TIP3   OH248772   4.523   6.377  13.916 -0.3759  0.2396  0.4159
 9094TIP3    H148773   4.494   6.286  13.916  1.5132 -0.3962 -0.2032
 9094TIP3    H248774   4.484   6.414  13.995 -2.7241 -0.5748 -0.3355
 9095TIP3   OH248775   3.874   6.645   3.888 -0.4951 -0.2634  0.0291
 9095TIP3    H148776   3.855   6.626   3.980 -0.2213 -2.6030 -0.3669
 9095TIP3    H248777   3.790   6.667   3.850 -0.5320  1.2412  0.9489
 9096TIP3   OH248778   5.213   6.470  13.960  0.0484  0.6676  0.4796
 9096TIP3    H148779   5.146   6.451  14.026 -0.2654 -0.1099 -0.0572
 9096TIP3    H248780   5.165   6.504  13.886  0.1587 -0.5360 -0.1637
 9097TIP3   OH248781   1.025   0.418   5.032  0.4718  0.1163  0.1286
 9097TIP3    H148782   0.948   0.365   5.054  0.6713  0.4830  1.8296
 9097TIP3    H248783   1.099   0.366   5.065  1.1577 -1.1742 -3.2815
 9098TIP3   OH248784   3.492   4.740   2.749 -0.7354  0.1392  0.0825
 9098TIP3    H148785   3.441   4.817   2.726 -0.6475  0.1891  0.0538
 9098TIP3    H248786   3.552   4.770   2.817 -0.1958  0.2749 -0.4493
 9099TIP3   OH248787   5.648   0.193   1.124 -0.5574 -0.2870  0.1091
 9099TIP3    H148788   5.674   0.105   1.152 -0.6202 -0.2211  0.3687
 9099TIP3    H248789   5.615   0.235   1.203 -3.3159 -1.0326 -0.5582
 9100TIP3   OH248790   4.916   5.913   5.528  0.1797 -0.0700  0.6786
 9100TIP3    H148791   4.918   6.007   5.544 -0.7881 -0.0657  0.7464
 9100TIP3    H248792   4.949   5.904   5.438  0.7999  0.2842  0.8665
 9101TIP3   OH248793   1.644   5.425  12.985 -0.0325 -0.1337  0.3920
 9101TIP3    H148794   1.639   5.394  13.076  1.0402 -1.5092 -0.0108
 9101TIP3    H248795   1.565   5.390  12.944 -0.9610  1.2083  0.9918
 9102TIP3   OH248796   3.956   3.959  13.512  0.0265  0.6278  0.2594
 9102TIP3    H148797   3.913   4.035  13.472  2.1814  1.5147 -0.4387
 9102TIP3    H248798   3.907   3.884  13.479 -1.6013  1.6488  0.2769
 9103TIP3   OH248799   2.999   5.887  11.241  0.0303  0.2286  0.0488
 9103TIP3    H148800   3.023   5.795  11.238 -0.1368  0.0981  2.3361
 9103TIP3    H248801   2.962   5.904  11.154  0.9678 -1.5822 -0.7405
 9104TIP3   OH248802   5.741   5.689  14.388  0.1310 -0.3886  0.4461
 9104TIP3    H148803   5.774   5.607  14.424  0.2686  0.7495  3.0260
 9104TIP3    H248804   5.809   5.753  14.407 -0.6401  0.6307 -0.1525
 9105TIP3   OH248805   5.217   4.458  16.383 -0.2282 -0.0554  0.0857
 9105TIP3    H148806   5.250   4.535  16.337 -1.6739  0.5100 -0.0362
 9105TIP3    H248807   5.142   4.490  16.433  0.5060 -0.9328  1.7931
 9106TIP3   OH248808   4.259   1.275   0.086 -0.3494 -0.0675 -0.0836
 9106TIP3    H148809   4.232   1.282   0.177 -1.4474 -0.6090 -0.3512
 9106TIP3    H248810   4.250   1.182   0.066 -2.1617  0.3398 -1.3295
 9107TIP3   OH248811   1.689   6.161  12.205  0.3602 -0.0299  0.8864
 9107TIP3    H148812   1.645   6.234  12.160  1.2862  1.0251  1.6504
 9107TIP3    H248813   1.638   6.084  12.181 -2.1600  1.1959  2.0615
 9108TIP3   OH248814   0.436   6.603   3.704  0.0466 -0.1834 -0.3849
 9108TIP3    H148815   0.428   6.620   3.798  0.5368 -1.8623 -0.0174
 9108TIP3    H248816   0.529   6.585   3.690 -0.2504 -1.3997 -0.9088
 9109TIP3   OH248817   5.103   5.114  14.788 -0.2997  0.3917 -0.9413
 9109TIP3    H148818   5.140   5.101  14.875 -1.7347  3.9605  0.2861
 9109TIP3    H248819   5.025   5.167  14.802 -2.4970 -1.7546 -4.0971
 9110TIP3   OH248820   0.777   0.496  16.163  0.3510 -0.9673 -0.6890
 9110TIP3    H148821   0.804   0.405  16.152 -1.6221 -1.5959 -0.5265
 9110TIP3    H248822   0.742   0.522  16.077  1.6273 -0.1082 -0.9574
 9111TIP3   OH248823   5.225   1.753  13.752  1.0484  0.4345 -0.3991
 9111TIP3    H148824   5.235   1.698  13.830  1.3528  2.2115  0.8451
 9111TIP3    H248825   5.305   1.738  13.702  2.1974  1.4692  1.0722
 9112TIP3   OH248826   3.467   2.994   4.100  0.1258 -0.0104  0.1642
 9112TIP3    H148827   3.520   3.063   4.140 -0.4059 -0.2828  1.3761
 9112TIP3    H248828   3.517   2.914   4.115 -0.0639 -0.1106  0.2684
 9113TIP3   OH248829   0.211   0.392  15.072  0.8964 -0.0925  0.2668
 9113TIP3    H148830   0.236   0.477  15.037 -1.8463  1.1637  1.2255
 9113TIP3    H248831   0.189   0.339  14.995  1.9908  0.2471 -0.2888
 9114TIP3   OH248832   0.102   2.298  10.811  0.5961  0.4729 -0.3977
 9114TIP3    H148833   0.142   2.357  10.747  4.7353  1.3335  2.6915
 9114TIP3    H248834   0.045   2.354  10.863 -0.0256  0.5084 -1.1126
 9115TIP3   OH248835   5.987   4.533  12.767 -0.1913 -0.2026 -0.3903
 9115TIP3    H148836   6.068   4.570  12.731  1.4467 -1.9938  1.3649
 9115TIP3    H248837   5.973   4.580  12.849 -0.2096 -0.8408 -0.0317
 9116TIP3   OH248838   3.508   4.004   3.473 -0.5401 -0.5821  0.5558
 9116TIP3    H148839   3.552   3.923   3.444  1.5119  0.9816 -0.8869
 9116TIP3    H248840   3.563   4.038   3.543 -0.1088  0.7665 -0.4254
 9117TIP3   OH248841   6.063   2.146   3.332 -0.0959  0.2336  0.4931
 9117TIP3    H148842   5.971   2.134   3.306  0.4271 -0.5966 -1.0609
 9117TIP3    H248843   6.094   2.217   3.276  0.4192  0.0108  0.4967
 9118TIP3   OH248844   5.958   6.480  14.674  0.2518  0.2209  0.6181
 9118TIP3    H148845   5.868   6.463  14.647  0.0050  1.6897  0.4343
 9118TIP3    H248846   5.950   6.531  14.754  0.9310 -0.2630  1.0010
 9119TIP3   OH248847   2.274   2.310  12.447  0.1023  0.1731  0.2347
 9119TIP3    H148848   2.332   2.238  12.470  1.3735  1.2569  0.5069
 9119TIP3    H248849   2.333   2.377  12.412 -1.0499  1.0998  0.0525
 9120TIP3   OH248850   5.211   3.615   1.583 -0.5547 -0.4151 -0.7588
 9120TIP3    H148851   5.126   3.579   1.609  0.4907 -2.0359  0.5606
 9120TIP3    H248852   5.223   3.585   1.493 -0.4947 -1.9031 -0.2710
 9121TIP3   OH248853   2.279   6.760  17.119 -0.3819  0.1311  0.1219
 9121TIP3    H148854   2.233   6.706  17.054  0.9071 -1.5105  0.5517
 9121TIP3    H248855   2.241   6.848  17.107 -2.2876 -0.7687 -0.7973
 9122TIP3   OH248856   4.124   1.165  13.767  0.8219 -0.4474  0.2264
 9122TIP3    H148857   4.046   1.133  13.811  0.5149  0.0873  0.0715
 9122TIP3    H248858   4.197   1.129  13.818  0.4794 -1.1907  0.1892
 9123TIP3   OH248859   2.666   4.656   6.123 -0.2316 -0.4100 -0.8300
 9123TIP3    H148860   2.637   4.659   6.214 -0.4506  0.1011 -0.9144
 9123TIP3    H248861   2.746   4.604   6.125  0.4389  0.6354 -0.1633
 9124TIP3   OH248862   1.866   2.380  16.343 -0.5152  0.6089 -0.0002
 9124TIP3    H148863   1.798   2.343  16.401 -0.5468 -2.0635 -1.6247
 9124TIP3    H248864   1.946   2.334  16.368  0.2528  2.1953  0.4642
 9125TIP3   OH248865   5.255   5.824  15.004  0.2966 -0.3372 -0.2832
 9125TIP3    H148866   5.279   5.909  15.039  0.4410 -0.9902  1.2353
 9125TIP3    H248867   5.163   5.834  14.978  0.6422  0.6019 -1.1657
 9126TIP3   OH248868   1.730   1.571   3.742 -0.4260  0.5405  0.0159
 9126TIP3    H148869   1.776   1.508   3.688  0.6245 -0.1418  1.6818
 9126TIP3    H248870   1.657   1.522   3.780 -0.0536  0.5205  0.7102
 9127TIP3   OH248871   2.176   1.424   4.689 -0.3070 -0.0518 -0.2656
 9127TIP3    H148872   2.223   1.405   4.608 -0.5803 -1.1404 -0.1756
 9127TIP3    H248873   2.150   1.516   4.680  1.2552  0.3788 -0.5988
 9128TIP3   OH248874   0.255   1.511   4.381  0.1077  0.0192 -0.1497
 9128TIP3    H148875   0.164   1.536   4.363 -0.2607  0.6334  2.3635
 9128TIP3    H248876   0.302   1.532   4.300 -1.9583 -0.2716 -1.4736
 9129TIP3   OH248877   5.980   6.391   5.967  0.5253  0.0264  0.0634
 9129TIP3    H148878   6.024   6.474   5.985 -1.3896  1.2463 -0.7562
 9129TIP3    H248879   6.001   6.336   6.042 -1.1113  2.4534  2.3812
 9130TIP3   OH248880   5.280   5.914  14.281 -0.2150  0.0300  0.5324
 9130TIP3    H148881   5.235   5.830  14.280  0.4040 -0.2937 -1.2748
 9130TIP3    H248882   5.367   5.894  14.316  0.6347 -0.4738 -1.7941
 9131TIP3   OH248883   2.832   5.326   1.376  0.0454  0.1171 -0.7152
 9131TIP3    H148884   2.807   5.350   1.465  0.4095  0.2379 -0.6419
 9131TIP3    H248885   2.765   5.265   1.348  0.6883 -1.0062  0.1502
 9132TIP3   OH248886   4.651   0.773   2.720  0.6057 -0.2280 -0.3531
 9132TIP3    H148887   4.631   0.738   2.634  0.5402 -0.4927 -0.2295
 9132TIP3    H248888   4.608   0.858   2.722 -1.2236 -1.1461  0.2239
 9133TIP3   OH248889   2.040   1.617  15.514  0.4763  0.0725  0.6493
 9133TIP3    H148890   2.097   1.687  15.546  1.5000 -0.0421 -0.8814
 9133TIP3    H248891   1.997   1.653  15.437 -0.6883 -0.2388  1.1310
 9134TIP3   OH248892   4.205   3.668   2.916  0.3227 -0.0110  0.7675
 9134TIP3    H148893   4.300   3.670   2.913  0.2895  3.1983  0.4737
 9134TIP3    H248894   4.181   3.740   2.975 -1.9285  0.2031 -0.3481
 9135TIP3   OH248895   5.702   4.756   5.365  0.5070  0.8191 -0.0477
 9135TIP3    H148896   5.646   4.772   5.441 -0.3416  0.2775 -0.5354
 9135TIP3    H248897   5.765   4.828   5.364  0.6817  0.6833  1.3080
 9136TIP3   OH248898   4.905   5.432   4.040 -0.2065 -0.1962 -0.1444
 9136TIP3    H148899   4.970   5.457   4.105  0.1665 -1.2835 -0.0930
 9136TIP3    H248900   4.886   5.340   4.058 -0.4103 -0.3952 -1.3080
 9137TIP3   OH248901   5.220   4.818   4.202 -0.1730 -0.0409 -0.0620
 9137TIP3    H148902   5.159   4.813   4.276 -1.3790  0.1406 -1.0220
 9137TIP3    H248903   5.226   4.911   4.182 -1.8680 -0.2654 -1.8017
 9138TIP3   OH248904   0.417   4.373  13.234 -0.2510 -0.0536  0.2423
 9138TIP3    H148905   0.454   4.315  13.166  2.0155 -0.9646  2.1751
 9138TIP3    H248906   0.340   4.326  13.265 -0.0099 -0.7181 -0.1417
 9139TIP3   OH248907   0.399   1.622   3.764  0.1797  0.2038 -0.4853
 9139TIP3    H148908   0.459   1.645   3.835 -2.1746 -1.7964  2.2405
 9139TIP3    H248909   0.439   1.661   3.686  3.1150  2.0066  1.8063
 9140TIP3   OH248910   1.934   1.364   2.002  0.5950 -0.4686 -0.5794
 9140TIP3    H148911   2.019   1.408   1.997 -0.3798  1.2541 -2.4887
 9140TIP3    H248912   1.938   1.299   1.931 -0.1634  0.4698 -1.4773
 9141TIP3   OH248913   5.807   4.769  13.663  0.1932 -0.1302  0.1749
 9141TIP3    H148914   5.868   4.842  13.671  0.4424 -0.1295 -1.4854
 9141TIP3    H248915   5.764   4.764  13.748  1.4443  0.8135  0.8766
 9142TIP3   OH248916   6.032   0.731   2.992  0.4099 -0.3366 -0.6560
 9142TIP3    H148917   6.011   0.738   2.899  0.9859  0.7224 -0.7167
 9142TIP3    H248918   5.947   0.741   3.036  0.6795  3.9656 -0.9028
 9143TIP3   OH248919   6.321   0.119   3.768  0.4749  0.2301  0.0873
 9143TIP3    H148920   6.403   0.168   3.775  0.5233  0.1472  0.0985
 9143TIP3    H248921   6.265   0.154   3.837  1.0348 -0.7611  1.0533
 9144TIP3   OH248922   4.274   5.768   4.872 -0.2093 -0.8624  0.1479
 9144TIP3    H148923   4.342   5.746   4.935 -0.3678 -0.2769  0.5230
 9144TIP3    H248924   4.264   5.689   4.819 -0.8204 -1.7458  1.5433
 9145TIP3   OH248925   4.046   2.094  11.385 -0.1740 -0.3801 -0.2269
 9145TIP3    H148926   3.996   2.035  11.330 -1.0427 -1.1322  1.3358
 9145TIP3    H248927   3.995   2.102  11.466  1.4111  0.1191  0.7608
 9146TIP3   OH248928   1.887   1.041  15.348  0.4738  0.2829  0.6243
 9146TIP3    H148929   1.792   1.054  15.347  0.2514 -1.1360 -1.9082
 9146TIP3    H248930   1.902   0.969  15.286  3.2405  0.6868  0.7491
 9147TIP3   OH248931   3.332   5.853  14.311  0.4414  0.2953 -0.4335
 9147TIP3    H148932   3.244   5.889  14.308  0.3215  0.0539  0.0865
 9147TIP3    H248933   3.321   5.767  14.352  0.9605  0.4046 -0.0567
 9148TIP3   OH248934   4.769   5.671  11.323  0.2308  0.1632 -0.7357
 9148TIP3    H148935   4.830   5.662  11.250 -0.1219  2.3666 -1.3592
 9148TIP3    H248936   4.812   5.732  11.383 -0.3860  0.0016 -0.1166
 9149TIP3   OH248937   0.105   3.904  14.635 -0.0721  0.2471  0.0551
 9149TIP3    H148938   0.191   3.864  14.620  0.8009  1.6394  1.1545
 9149TIP3    H248939   0.081   3.942  14.551  1.4135  1.7381  0.2825
 9150TIP3   OH248940   3.808   0.103   2.999  0.2714 -0.2452 -0.4542
 9150TIP3    H148941   3.844   0.028   2.950 -1.2660 -3.2389  2.7771
 9150TIP3    H248942   3.850   0.098   3.084 -0.3111  2.2827  0.0217
 9151TIP3   OH248943   6.431   5.471  14.874 -0.4830  0.6011 -0.3607
 9151TIP3    H148944   6.525   5.484  14.886 -0.4487 -1.0184  1.2507
 9151TIP3    H248945   6.425   5.411  14.799 -0.1547 -0.6289  0.5805
 9152TIP3   OH248946   3.281   6.105  12.177  0.1529  0.3453  0.0196
 9152TIP3    H148947   3.223   6.076  12.247  0.1976  1.5720  0.5640
 9152TIP3    H248948   3.239   6.072  12.097  0.0316 -0.9289  0.5935
 9153TIP3   OH248949   5.779   5.058  11.538 -0.0458  0.1570  0.7583
 9153TIP3    H148950   5.806   4.969  11.560 -1.1273 -0.2489  0.4706
 9153TIP3    H248951   5.729   5.049  11.457 -0.8191  0.9203  1.1392
 9154TIP3   OH248952   4.174   4.042   4.045 -0.1417 -0.4298 -0.5137
 9154TIP3    H148953   4.149   3.952   4.023  0.5281 -0.5560 -0.7901
 9154TIP3    H248954   4.269   4.043   4.032 -0.0937  0.2018 -0.0932
 9155TIP3   OH248955   4.564   5.576   1.662  0.0259  0.2534  0.0269
 9155TIP3    H148956   4.503   5.650   1.663 -0.3290 -0.0330 -0.1726
 9155TIP3    H248957   4.514   5.503   1.698  0.5625  0.2547  0.7906
 9156TIP3   OH248958   3.842   4.918   2.944 -0.6661  0.3957  0.3628
 9156TIP3    H148959   3.862   4.972   3.021  0.3707  0.0429  0.3462
 9156TIP3    H248960   3.808   4.837   2.980 -0.2544  0.2610  0.4466
 9157TIP3   OH248961   1.921   6.407  17.057 -0.3545  0.7852  0.5469
 9157TIP3    H148962   1.989   6.472  17.037 -1.0484  0.8924 -1.6975
 9157TIP3    H248963   1.941   6.333  17.000 -0.9485 -0.0035  1.3460
 9158TIP3   OH248964   0.142   2.702  16.337 -0.3032 -0.2148 -0.7563
 9158TIP3    H148965   0.054   2.718  16.370  0.3997 -0.2573  1.2182
 9158TIP3    H248966   0.157   2.772  16.273 -1.3706  0.4143 -0.3301
 9159TIP3   OH248967   1.734   4.063   5.567  0.2864  0.2051  0.3615
 9159TIP3    H148968   1.716   4.072   5.660  0.9772 -0.4230  0.5567
 9159TIP3    H248969   1.665   4.005   5.535  2.0594 -2.4671  1.1758
 9160TIP3   OH248970   2.418   3.610  12.276  0.8125 -0.2145  0.0660
 9160TIP3    H148971   2.490   3.643  12.223  0.7984 -0.3154 -0.0157
 9160TIP3    H248972   2.427   3.515  12.272  1.0540 -0.2155  0.5753
 9161TIP3   OH248973   5.199   5.442   0.213  0.0270 -0.3759 -0.0082
 9161TIP3    H148974   5.292   5.445   0.189 -0.3854 -1.1043 -1.7695
 9161TIP3    H248975   5.153   5.433   0.130 -1.4323 -3.6615  1.0894
 9162TIP3   OH248976   0.727   1.692  15.066 -0.1083  0.3942 -0.6554
 9162TIP3    H148977   0.704   1.723  14.979 -0.8457 -0.3616 -0.7360
 9162TIP3    H248978   0.726   1.597  15.059  1.1832  0.3312 -0.1638
 9163TIP3   OH248979   0.048   1.614  16.920  0.1590  0.5501 -0.1605
 9163TIP3    H148980   0.073   1.632  16.830  0.4692 -1.2072 -0.4349
 9163TIP3    H248981   0.131   1.602  16.966 -0.0535 -0.7253 -0.1028
 9164TIP3   OH248982   2.185   2.325  16.001  0.0449 -0.0877  0.3214
 9164TIP3    H148983   2.186   2.352  16.093  0.0335 -0.7323  0.5136
 9164TIP3    H248984   2.118   2.380  15.961 -0.7697 -0.6061  0.9520
 9165TIP3   OH248985   1.260   2.267  15.369  0.8064 -0.7487  0.2382
 9165TIP3    H148986   1.192   2.226  15.422  0.3103 -0.0611  0.1494
 9165TIP3    H248987   1.320   2.196  15.346  1.8192 -0.7922  2.9017
 9166TIP3   OH248988   4.266   5.407  12.615 -0.1802  0.1099 -0.2881
 9166TIP3    H148989   4.204   5.441  12.550 -0.4546 -1.4598 -0.8668
 9166TIP3    H248990   4.351   5.445  12.589 -0.9498  2.6728  0.8098
 9167TIP3   OH248991   5.497   5.274   4.074 -0.5140  0.1569 -0.0161
 9167TIP3    H148992   5.573   5.332   4.076  2.1325 -3.0515 -1.9036
 9167TIP3    H248993   5.493   5.237   4.162 -1.4201  2.1404  0.8044
 9168TIP3   OH248994   6.338   1.269  17.235 -1.0519  0.3036 -0.1707
 9168TIP3    H148995   6.347   1.327  17.311 -0.1585  0.3025 -0.2708
 9168TIP3    H248996   6.364   1.183  17.268  3.6238  1.0684 -1.5248
 9169TIP3   OH248997   5.295   3.787   0.320 -0.5814  0.2613  0.3276
 9169TIP3    H148998   5.302   3.704   0.367 -1.4321 -0.7294 -1.2345
 9169TIP3    H248999   5.256   3.763   0.235 -0.9313  2.2680 -0.1052
 9170TIP3   OH249000   5.288   1.843  13.171 -0.3591 -0.0111 -0.3018
 9170TIP3    H149001   5.286   1.934  13.200  0.1325  0.2746 -1.1481
 9170TIP3    H249002   5.210   1.835  13.116 -1.1294 -0.4699  0.8488
 9171TIP3   OH249003   4.983   1.829  14.847 -0.0725 -0.0919  0.0555
 9171TIP3    H149004   4.945   1.810  14.761 -0.2606 -2.0082  0.5357
 9171TIP3    H249005   4.995   1.743  14.887  0.4976  0.7560  1.7426
 9172TIP3   OH249006   3.451   1.923   5.387 -0.1363 -0.2138 -0.0200
 9172TIP3    H149007   3.366   1.925   5.429 -0.5600 -1.1682 -0.7999
 9172TIP3    H249008   3.503   1.989   5.433 -1.4961  0.8513  0.0186
 9173TIP3   OH249009   6.264   2.574  10.900  0.0754 -0.0218  0.1258
 9173TIP3    H149010   6.173   2.543  10.902 -0.3848  1.2931  0.2634
 9173TIP3    H249011   6.303   2.539  10.980  0.0002 -1.4968 -0.4715
 9174TIP3   OH249012   1.212   6.631  17.060 -0.0663 -0.2710 -0.2766
 9174TIP3    H149013   1.304   6.650  17.044  0.1199 -0.1401  0.9411
 9174TIP3    H249014   1.208   6.602  17.151 -1.2053 -0.4373 -0.3685
 9175TIP3   OH249015   1.668   6.385   3.807 -0.2467  0.1879 -0.0076
 9175TIP3    H149016   1.645   6.293   3.798  0.0535  0.0036  0.9978
 9175TIP3    H249017   1.736   6.386   3.875  0.0624  1.0992 -0.3239
 9176TIP3   OH249018   6.051   0.839   3.292 -0.1861 -0.2797  0.2470
 9176TIP3    H149019   6.015   0.844   3.203  1.0127  0.3736 -0.2124
 9176TIP3    H249020   6.033   0.749   3.320  0.2065 -0.7602 -1.0008
 9177TIP3   OH249021   6.795   5.849   5.532 -0.4159 -0.5030  0.6565
 9177TIP3    H149022   6.826   5.939   5.531 -0.1602 -0.5696  1.9196
 9177TIP3    H249023   6.700   5.856   5.525 -0.4206 -0.1129  1.0732
 9178TIP3   OH249024   4.818   4.906  14.708 -0.1738 -0.2060  0.1982
 9178TIP3    H149025   4.828   4.843  14.637 -0.1735 -0.2940  0.2760
 9178TIP3    H249026   4.902   4.950  14.714  0.6870 -1.9940  1.8612
 9179TIP3   OH249027   0.120   0.654  13.824  0.1052  0.7581 -0.1668
 9179TIP3    H149028   0.179   0.709  13.876  0.5414 -0.2014  0.3571
 9179TIP3    H249029   0.176   0.617  13.755 -0.1981  0.9762 -0.5375
 9180TIP3   OH249030   6.375   6.197   1.661  0.1897  0.3963 -0.3512
 9180TIP3    H149031   6.308   6.254   1.623 -1.6549 -2.2236 -1.1689
 9180TIP3    H249032   6.458   6.234   1.630 -1.0102  1.9335 -1.8409
 9181TIP3   OH249033   6.662   1.516   6.282  0.3183  0.3421  0.3238
 9181TIP3    H149034   6.752   1.550   6.283 -0.2540  2.0031 -1.5899
 9181TIP3    H249035   6.607   1.593   6.293 -0.9795 -0.1548 -2.3661
 9182TIP3   OH249036   1.870   3.729   1.805  0.3065 -0.5188  0.3957
 9182TIP3    H149037   1.872   3.643   1.763  0.3974 -0.5713  0.5057
 9182TIP3    H249038   1.829   3.713   1.890 -2.5407  0.0839 -0.8042
 9183TIP3   OH249039   6.654   6.465  17.069 -0.5980  0.5854  0.1527
 9183TIP3    H149040   6.658   6.402  16.997 -2.5148  0.0198  0.5320
 9183TIP3    H249041   6.561   6.483  17.081 -0.1326  2.9839  0.5105
 9184TIP3   OH249042   1.053   1.537   5.226  0.0960  0.2186 -0.5868
 9184TIP3    H149043   1.000   1.498   5.296  1.1585  0.6410  0.4708
 9184TIP3    H249044   1.140   1.546   5.265  0.8119  0.0065 -2.1403
 9185TIP3   OH249045   3.343   3.063   2.438 -0.3306  0.4380  0.3850
 9185TIP3    H149046   3.311   3.114   2.364  0.0633 -0.3629 -0.3434
 9185TIP3    H249047   3.264   3.045   2.491 -1.1366 -1.5587 -1.4189
 9186TIP3   OH249048   1.948   0.106  12.368 -0.4019  0.1797  0.2014
 9186TIP3    H149049   1.873   0.046  12.368 -1.3863  1.4000 -0.2071
 9186TIP3    H249050   2.007   0.070  12.301 -1.0315 -0.2802 -0.1078
 9187TIP3   OH249051   4.406   1.222   4.274  0.0803 -0.2434 -0.1898
 9187TIP3    H149052   4.415   1.298   4.331  0.8965  0.9665 -1.8753
 9187TIP3    H249053   4.482   1.227   4.216 -1.5868 -0.4971 -2.4574
 9188TIP3   OH249054   4.172   0.058   3.459 -0.1815 -0.5104  0.4494
 9188TIP3    H149055   4.250   0.036   3.510 -0.6405  0.9268  1.8113
 9188TIP3    H249056   4.099   0.022   3.509 -0.5196 -0.5959 -0.0935
 9189TIP3   OH249057   2.776   1.310   4.842  0.3801  0.0751 -0.5317
 9189TIP3    H149058   2.682   1.312   4.821  0.3835  0.1671 -0.5415
 9189TIP3    H249059   2.807   1.398   4.819  0.5999 -0.1642 -1.1427
 9190TIP3   OH249060   3.301   0.362  11.234 -0.3199  0.9119  0.6099
 9190TIP3    H149061   3.289   0.270  11.259  0.6118  0.3100 -1.1579
 9190TIP3    H249062   3.237   0.409  11.289 -0.8047 -0.7670  1.5326
 9191TIP3   OH249063   3.192   3.724   4.379  0.2197  0.2832  0.2321
 9191TIP3    H149064   3.119   3.718   4.316 -0.1037  0.4152  0.5923
 9191TIP3    H249065   3.174   3.654   4.442  0.2493  0.5024  0.4826
 9192TIP3   OH249066   1.696   3.615   6.077 -0.1916 -0.5075 -0.2670
 9192TIP3    H149067   1.632   3.564   6.026 -0.7915 -0.4091  0.3796
 9192TIP3    H249068   1.742   3.550   6.129 -0.4151 -0.4779 -0.0310
 9193TIP3   OH249069   2.307   5.118   3.194 -0.3243  0.4990 -0.3742
 9193TIP3    H149070   2.236   5.165   3.149 -0.4005 -0.0161 -0.7931
 9193TIP3    H249071   2.279   5.027   3.195 -0.6037  0.5862  1.2611
 9194TIP3   OH249072   0.585   0.318   3.505 -0.2011 -0.4557  0.3064
 9194TIP3    H149073   0.538   0.355   3.431 -0.8761  2.6228  2.1704
 9194TIP3    H249074   0.658   0.378   3.520  0.0644 -1.1422  1.9453
 9195TIP3   OH249075   0.291   2.682   0.267 -0.2436 -0.7981 -0.4971
 9195TIP3    H149076   0.262   2.657   0.354 -1.4651 -0.1643 -0.7226
 9195TIP3    H249077   0.352   2.755   0.282 -1.6874  0.3951 -0.2543
 9196TIP3   OH249078   5.911   4.891  14.174  0.1858 -0.5319 -0.2793
 9196TIP3    H149079   5.951   4.924  14.254 -1.5459  1.0084 -0.0059
 9196TIP3    H249080   5.820   4.873  14.199 -0.2199 -0.5738 -1.7430
 9197TIP3   OH249081   3.313   3.437  17.007  0.2852  0.6913  0.5745
 9197TIP3    H149082   3.384   3.499  17.023 -0.1501  1.0045  1.2895
 9197TIP3    H249083   3.347   3.380  16.938  0.7919  1.5561  0.0977
 9198TIP3   OH249084   1.823   6.154   5.230  0.0075 -0.0531  0.0942
 9198TIP3    H149085   1.865   6.178   5.148  0.6500  1.6384  0.8860
 9198TIP3    H249086   1.794   6.064   5.217  2.5114 -0.7476 -1.0103
 9199TIP3   OH249087   0.059   4.250  14.640  0.2844  0.3669  0.7448
 9199TIP3    H149088   0.018   4.204  14.713  0.5427 -0.8759  0.1177
 9199TIP3    H249089   0.146   4.274  14.672  0.2564  0.1582  0.9759
 9200TIP3   OH249090   5.376   5.237  13.622 -0.0760 -0.3457 -1.0487
 9200TIP3    H149091   5.333   5.231  13.707 -0.7253  0.6894 -1.2903
 9200TIP3    H249092   5.413   5.326  13.621  0.2010 -0.4675 -1.7183
 9201TIP3   OH249093   3.165   4.784   5.471 -0.0302 -0.3766  0.1772
 9201TIP3    H149094   3.174   4.840   5.394  0.1853 -1.0497 -0.2898
 9201TIP3    H249095   3.071   4.781   5.488 -0.2484 -1.6846 -1.1534
 9202TIP3   OH249096   6.633   2.795   2.702 -0.3177  0.2026 -0.0102
 9202TIP3    H149097   6.582   2.723   2.740 -0.7466  0.4091 -0.2022
 9202TIP3    H249098   6.590   2.813   2.618 -1.6725  2.3071  1.1050
 9203TIP3   OH249099   0.834   4.266  14.536  0.2587  0.3252 -0.2868
 9203TIP3    H149100   0.836   4.336  14.470 -1.8218  0.9036  0.2363
 9203TIP3    H249101   0.881   4.302  14.611 -0.6215  1.1106 -0.0973
 9204TIP3   OH249102   1.489   3.161  17.001 -0.2172  0.1088  0.1524
 9204TIP3    H149103   1.514   3.237  17.053 -1.6379  1.2969 -0.8422
 9204TIP3    H249104   1.487   3.089  17.063  1.4992  0.8072  1.0389
 9205TIP3   OH249105   5.995   5.052  16.244 -0.0388 -0.4356 -0.0198
 9205TIP3    H149106   5.913   5.008  16.266  0.9098 -1.6149  1.2950
 9205TIP3    H249107   5.986   5.139  16.282 -0.8037 -0.4503 -0.1546
 9206TIP3   OH249108   3.906   5.797   1.232  0.0936  0.5678 -0.1860
 9206TIP3    H149109   3.944   5.730   1.176 -0.3558  1.0382 -1.0633
 9206TIP3    H249110   3.939   5.880   1.197 -0.1067  0.8576  0.3044
 9207TIP3   OH249111   1.813   3.653  16.274 -0.0510 -0.2052 -0.3387
 9207TIP3    H149112   1.750   3.616  16.336 -1.0842  0.7088 -0.8219
 9207TIP3    H249113   1.786   3.619  16.189 -0.8075  1.3698 -0.7451
 9208TIP3   OH249114   6.605   6.704  15.734  0.2247 -0.4765  0.3585
 9208TIP3    H149115   6.658   6.688  15.812  1.6255 -1.0488 -0.6953
 9208TIP3    H249116   6.663   6.685  15.660 -0.7659  0.9848 -0.8527
 9209TIP3   OH249117   3.000   2.589   2.678 -0.8926 -0.3140  0.0297
 9209TIP3    H149118   2.955   2.662   2.721 -1.4174 -0.4361 -0.3092
 9209TIP3    H249119   2.984   2.603   2.585 -2.2479 -1.6786  0.0354
 9210TIP3   OH249120   5.200   0.811   6.074 -0.4110 -0.2471  0.0498
 9210TIP3    H149121   5.119   0.799   6.124 -0.4632 -0.3726 -0.0659
 9210TIP3    H249122   5.171   0.835   5.986 -0.3486 -1.4146 -0.3042
 9211TIP3   OH249123   1.442   2.520   2.714  0.0299  0.6964 -0.6916
 9211TIP3    H149124   1.477   2.452   2.656 -0.7015 -1.3192  1.1657
 9211TIP3    H249125   1.487   2.507   2.797 -2.1118  0.7217  0.5046
 9212TIP3   OH249126   6.768   2.078  13.382  0.1579 -0.5288  0.1493
 9212TIP3    H149127   6.742   2.061  13.292  2.4104 -2.3089 -0.1991
 9212TIP3    H249128   6.777   2.174  13.386  2.2510 -0.5708 -2.1755
 9213TIP3   OH249129   1.841   4.974   1.703 -0.0039  0.1008  0.3039
 9213TIP3    H149130   1.761   5.023   1.685 -0.0105  0.0195  0.1089
 9213TIP3    H249131   1.901   4.998   1.633  0.5005  0.9348  1.0173
 9214TIP3   OH249132   6.661   3.110  11.107 -0.3093  0.1160 -0.2816
 9214TIP3    H149133   6.634   3.033  11.056 -1.8840 -0.8592  1.9427
 9214TIP3    H249134   6.579   3.155  11.128  0.1654 -0.1329  2.3184
 9215TIP3   OH249135   3.183   1.622   4.314  0.5649  0.5310  0.8273
 9215TIP3    H149136   3.100   1.578   4.298 -0.3861  2.0577  1.4680
 9215TIP3    H249137   3.219   1.637   4.227  0.9052 -1.5043  0.6092
 9216TIP3   OH249138   4.095   0.264  16.708 -0.3388 -0.0572  0.3206
 9216TIP3    H149139   4.034   0.281  16.636  1.4475  1.1017 -0.9675
 9216TIP3    H249140   4.145   0.187  16.680 -0.5653 -0.4274  0.9343
 9217TIP3   OH249141   0.733   3.242  11.105  0.4816  0.2124  0.2755
 9217TIP3    H149142   0.703   3.165  11.056  2.5213 -0.7210  0.4146
 9217TIP3    H249143   0.799   3.281  11.048 -0.0520  1.4859  0.5167
 9218TIP3   OH249144   3.493   4.677   5.829 -0.1087 -0.0638 -0.0350
 9218TIP3    H149145   3.477   4.728   5.909  0.8655  0.6930 -0.3080
 9218TIP3    H249146   3.488   4.742   5.759 -0.8807 -0.7150 -0.5902
 9219TIP3   OH249147   5.201   1.101   1.483  0.4882  0.4201  0.2638
 9219TIP3    H149148   5.229   1.061   1.565  0.6978  1.9326  0.9433
 9219TIP3    H249149   5.251   1.182   1.477  0.8835  0.0664 -1.6418
 9220TIP3   OH249150   4.978   0.981  15.588 -0.1784 -0.3986 -0.9143
 9220TIP3    H149151   5.059   0.930  15.581 -0.5301 -1.0923  0.0980
 9220TIP3    H249152   4.932   0.944  15.662 -0.4239  1.4224 -0.1316
 9221TIP3   OH249153   6.008   4.394   2.611  0.0528 -0.8604 -0.4576
 9221TIP3    H149154   6.027   4.300   2.608 -0.1032 -0.9543  0.9341
 9221TIP3    H249155   5.932   4.405   2.554 -0.4002 -1.7083 -0.0301
 9222TIP3   OH249156   3.031   5.492  11.475 -0.6037  0.2372 -0.0634
 9222TIP3    H149157   3.090   5.417  11.466 -0.1610  0.8137 -2.3775
 9222TIP3    H249158   3.077   5.563  11.431 -1.7519  1.4382  0.6564
 9223TIP3   OH249159   5.308   0.698   0.664  0.9248  0.1193 -0.2614
 9223TIP3    H149160   5.315   0.604   0.648  0.5263  0.0532 -0.0442
 9223TIP3    H249161   5.347   0.711   0.750  2.2022  0.3433 -0.8639
 9224TIP3   OH249162   3.004   1.850  11.279 -0.6623 -0.2663 -0.4483
 9224TIP3    H149163   3.021   1.927  11.333  3.0548 -1.6132  0.5092
 9224TIP3    H249164   3.040   1.872  11.193 -0.2514 -0.6600 -0.3794
 9225TIP3   OH249165   5.531   4.423   3.768 -0.2923  0.5486  0.2266
 9225TIP3    H149166   5.556   4.374   3.690 -0.3317  0.6308  0.1622
 9225TIP3    H249167   5.453   4.473   3.741 -0.7975 -0.0570  0.5543
 9226TIP3   OH249168   3.112   1.276   3.401 -0.1095  0.5320  0.0387
 9226TIP3    H149169   3.135   1.296   3.310 -4.0072  2.1040 -0.6754
 9226TIP3    H249170   3.089   1.360   3.439  1.7059 -0.0724  2.6331
 9227TIP3   OH249171   4.402   2.069   0.429 -0.5590 -0.2790 -0.3435
 9227TIP3    H149172   4.319   2.031   0.458 -0.3051  0.4526  1.4228
 9227TIP3    H249173   4.405   2.051   0.335 -2.8561 -0.0612 -0.4903
 9228TIP3   OH249174   6.306   0.565  12.487  0.5516 -0.2546 -0.0859
 9228TIP3    H149175   6.380   0.518  12.448 -0.4109 -0.4080 -1.7912
 9228TIP3    H249176   6.339   0.654  12.503  1.4122 -0.6164  0.1503
 9229TIP3   OH249177   3.799   1.766   3.200  0.2401  0.1972  0.2064
 9229TIP3    H149178   3.786   1.789   3.108  0.3437  0.6157  0.2949
 9229TIP3    H249179   3.888   1.733   3.204 -0.0465 -0.6136  0.0028
 9230TIP3   OH249180   2.835   6.820  16.596 -0.4998  0.0194 -0.1687
 9230TIP3    H149181   2.757   6.783  16.555 -0.2099  0.4673 -1.1357
 9230TIP3    H249182   2.803   6.860  16.677 -0.9942 -1.3157  0.2992
 9231TIP3   OH249183   2.754   2.647   4.202 -0.3190  0.5142 -0.0429
 9231TIP3    H149184   2.812   2.719   4.228 -0.6680  1.5265 -1.9715
 9231TIP3    H249185   2.668   2.689   4.191 -0.6429 -0.2916 -0.6165
 9232TIP3   OH249186   0.223   4.520   3.648 -0.6371 -0.8878  0.0573
 9232TIP3    H149187   0.147   4.571   3.620  1.0043  1.1113 -0.7823
 9232TIP3    H249188   0.221   4.526   3.744 -1.0454 -0.1297  0.0068
 9233TIP3   OH249189   2.233   3.307  11.643 -0.6879  0.1067 -0.5466
 9233TIP3    H149190   2.193   3.297  11.557 -0.1636  0.0846 -0.7956
 9233TIP3    H249191   2.184   3.378  11.684 -0.2302  0.8761 -1.3058
 9234TIP3   OH249192   2.731   6.036  15.750 -0.0933  0.1648 -0.5928
 9234TIP3    H149193   2.651   6.033  15.801  1.3361 -2.4139  1.6399
 9234TIP3    H249194   2.714   5.978  15.675 -0.7893  0.6992 -0.8435
 9235TIP3   OH249195   0.549   5.677   2.120  0.0037  0.0094 -0.0933
 9235TIP3    H149196   0.612   5.665   2.191  1.4578 -0.6830 -1.4633
 9235TIP3    H249197   0.603   5.684   2.041 -1.6017  0.2332 -1.1913
 9236TIP3   OH249198   4.357   1.879   5.567 -0.2636  0.4622  0.8406
 9236TIP3    H149199   4.358   1.783   5.564 -0.5194  0.4585  0.8412
 9236TIP3    H249200   4.332   1.900   5.657 -2.0690  0.5172  0.3355
 9237TIP3   OH249201   3.183   2.541  16.457  0.6060  0.1748  0.1554
 9237TIP3    H149202   3.214   2.573  16.542  2.5968 -0.7996 -0.1760
 9237TIP3    H249203   3.256   2.490  16.423 -1.2288 -1.8397 -0.8599
 9238TIP3   OH249204   1.967   1.402   2.743 -0.0330  0.0936  0.5485
 9238TIP3    H149205   1.949   1.351   2.664  1.2833 -1.0101  0.9440
 9238TIP3    H249206   1.902   1.372   2.807 -0.4530  0.2742  0.2145
 9239TIP3   OH249207   0.175   1.669   5.952  0.2683  0.2171 -0.5288
 9239TIP3    H149208   0.237   1.729   5.993 -0.9147  0.8949  0.3131
 9239TIP3    H249209   0.221   1.635   5.876  2.7965 -1.6810  1.7740
 9240TIP3   OH249210   3.734   6.341  16.811  0.5473 -0.0262  0.8054
 9240TIP3    H149211   3.651   6.309  16.845  1.9466 -3.5516  1.1283
 9240TIP3    H249212   3.718   6.354  16.717 -0.3015 -1.0607  0.7928
 9241TIP3   OH249213   3.470   0.633  13.363 -0.2566 -0.2221  1.0047
 9241TIP3    H149214   3.409   0.574  13.318  1.0132 -0.3994 -0.5033
 9241TIP3    H249215   3.511   0.578  13.430 -1.3479 -0.2399  1.6683
 9242TIP3   OH249216   5.763   4.886  16.255  1.2721 -0.6650 -0.0960
 9242TIP3    H149217   5.781   4.848  16.169 -1.3491 -1.5844 -0.2867
 9242TIP3    H249218   5.739   4.812  16.310  1.3467  0.0934  0.9855
 9243TIP3   OH249219   4.272   2.720   1.357 -0.1945  0.1006 -0.0837
 9243TIP3    H149220   4.333   2.791   1.376 -1.0032  0.7620  0.0515
 9243TIP3    H249221   4.302   2.647   1.411  0.6324  0.3400 -0.2172
 9244TIP3   OH249222   2.070   3.000   5.642  0.1639 -0.4239 -0.4980
 9244TIP3    H149223   2.149   2.949   5.658 -0.1271 -0.7619 -0.1259
 9244TIP3    H249224   2.011   2.976   5.713 -0.1755  0.0244 -0.6274
 9245TIP3   OH249225   0.540   0.925   4.277 -0.5757 -0.1864 -0.3056
 9245TIP3    H149226   0.566   1.001   4.328 -1.1812  0.8454 -1.5082
 9245TIP3    H249227   0.496   0.867   4.340  1.1912 -0.2314  0.9267
 9246TIP3   OH249228   4.288   0.122  12.749 -0.0586  0.0471 -0.5211
 9246TIP3    H149229   4.339   0.173  12.812 -1.0583  1.8310 -1.1301
 9246TIP3    H249230   4.345   0.114  12.672 -0.1800  0.8656 -0.6939
 9247TIP3   OH249231   1.079   6.231  16.909 -0.5124 -0.1428 -0.0021
 9247TIP3    H149232   1.043   6.318  16.927 -0.1094 -0.2924  1.6198
 9247TIP3    H249233   1.002   6.177  16.893 -0.8451  0.2533  0.2221
 9248TIP3   OH249234   2.196   6.358  13.035 -0.0506 -0.4139 -0.2076
 9248TIP3    H149235   2.288   6.338  13.051  0.0667 -0.7212 -1.2422
 9248TIP3    H249236   2.184   6.445  13.071  0.9239  0.0773 -1.0433
 9249TIP3   OH249237   5.232   2.942  12.284 -0.3847 -0.6037  0.1510
 9249TIP3    H149238   5.147   2.916  12.250 -0.3377  0.1036 -0.5420
 9249TIP3    H249239   5.285   2.957  12.206  0.6664 -1.9571  0.5898
 9250TIP3   OH249240   1.765   5.220   2.846  0.1829  0.0289 -0.1368
 9250TIP3    H149241   1.831   5.159   2.881 -0.6660  0.4508  2.2931
 9250TIP3    H249242   1.715   5.248   2.923 -2.0180  0.7208 -1.7722
 9251TIP3   OH249243   1.588   5.002  13.736  0.1575 -0.3669 -0.3413
 9251TIP3    H149244   1.528   4.964  13.673  0.4959 -1.4403 -0.0329
 9251TIP3    H249245   1.656   5.043  13.683  0.8253 -1.8800 -0.6899
 9252TIP3   OH249246   2.634   0.683   3.643  0.0896 -0.5206  0.0918
 9252TIP3    H149247   2.675   0.714   3.724 -2.2307 -1.0176  1.4947
 9252TIP3    H249248   2.691   0.612   3.613  2.1030  1.0409  0.1212
 9253TIP3   OH249249   1.465   1.168   6.678  0.0449  0.4225  0.2421
 9253TIP3    H149250   1.455   1.217   6.759 -0.7673  0.4823  0.1164
 9253TIP3    H249251   1.535   1.213   6.631  1.1122 -0.1472  1.2941
 9254TIP3   OH249252   4.596   6.247  13.553 -0.5731  0.2158 -0.4542
 9254TIP3    H149253   4.587   6.193  13.632  0.4230 -1.6519 -1.5801
 9254TIP3    H249254   4.676   6.298  13.567  0.8220 -1.7317 -1.1640
 9255TIP3   OH249255   4.247   2.094   0.183  0.1238  0.2312 -0.1407
 9255TIP3    H149256   4.166   2.087   0.131  0.9010  2.6564 -1.7512
 9255TIP3    H249257   4.315   2.061   0.125  0.6461  0.5567  0.2888
 9256TIP3   OH249258   1.869   5.172   1.069  0.3619 -0.2608 -0.0600
 9256TIP3    H149259   1.821   5.208   1.144  0.5440  1.1112 -0.5788
 9256TIP3    H249260   1.960   5.198   1.083  0.4522 -0.2801 -0.5870
 9257TIP3   OH249261   1.403   3.672   1.509 -0.7056  0.5240 -0.1472
 9257TIP3    H149262   1.413   3.762   1.477 -1.0320  0.0087 -1.7369
 9257TIP3    H249263   1.467   3.621   1.459 -0.4811 -0.1421  0.7845
 9258TIP3   OH249264   2.217   1.037   5.800 -0.3394  0.1368  0.2242
 9258TIP3    H149265   2.269   1.038   5.719 -1.7257  2.5759 -0.7107
 9258TIP3    H249266   2.213   0.945   5.825  2.5412 -0.3668 -0.8881
 9259TIP3   OH249267   0.021   1.546   2.626 -0.5558  0.1727  0.7868
 9259TIP3    H149268   0.059   1.607   2.563  0.6850  1.3403  2.5994
 9259TIP3    H249269   0.072   1.466   2.617  0.5551  0.8152  1.2937
 9260TIP3   OH249270   0.696   0.425   2.946  0.4125  0.2264  0.3005
 9260TIP3    H149271   0.603   0.437   2.966  0.3928  3.0757 -1.2591
 9260TIP3    H249272   0.697   0.374   2.864  0.2369  0.1490  0.3467
 9261TIP3   OH249273   2.264   5.500   3.423 -0.1201  0.2394  0.5831
 9261TIP3    H149274   2.194   5.452   3.466 -0.6749  0.0909 -0.4669
 9261TIP3    H249275   2.220   5.559   3.362  0.5941  1.5045  1.2662
 9262TIP3   OH249276   0.987   3.397  12.510 -0.1103 -0.5594 -0.4428
 9262TIP3    H149277   1.074   3.423  12.540 -0.7862 -0.7196  1.7538
 9262TIP3    H249278   0.965   3.461  12.441  1.9660 -0.9023 -1.4564
 9263TIP3   OH249279   6.643   6.726   1.759 -0.0253 -0.0350  0.0563
 9263TIP3    H149280   6.708   6.777   1.808  0.7580 -1.0124  0.0576
 9263TIP3    H249281   6.661   6.635   1.784 -1.5928 -0.2878  0.2724
 9264TIP3   OH249282   1.047   6.365  12.259  0.1603  0.0809  0.1629
 9264TIP3    H149283   0.991   6.287  12.253  0.2000 -0.1623  2.7003
 9264TIP3    H249284   0.988   6.438  12.240 -0.3590 -0.3914 -0.0621
 9265TIP3   OH249285   4.732   0.847  11.706  0.1744  0.0670 -0.2320
 9265TIP3    H149286   4.778   0.925  11.735  0.4825  0.0724 -0.7155
 9265TIP3    H249287   4.675   0.823  11.779 -0.2306  0.9817 -0.2535
 9266TIP3   OH249288   3.331   2.285   2.235 -0.0689 -0.2898 -0.6165
 9266TIP3    H149289   3.319   2.243   2.150  0.5064 -1.4802 -0.1052
 9266TIP3    H249290   3.326   2.214   2.298 -0.0750  0.5402  0.3241
 9267TIP3   OH249291   0.879   6.417   4.457 -0.1471  0.2224  0.1934
 9267TIP3    H149292   0.801   6.474   4.458 -0.3151 -0.0315  2.5173
 9267TIP3    H249293   0.951   6.476   4.436 -0.6031  0.9186  0.5644
 9268TIP3   OH249294   2.378   5.770   2.562 -0.5187 -0.1225 -0.0840
 9268TIP3    H149295   2.457   5.819   2.541  0.0998 -0.7554  0.7189
 9268TIP3    H249296   2.308   5.814   2.514  0.1860  0.9450 -0.1325
 9269TIP3   OH249297   6.118   6.763  11.659  0.6435  0.3775  0.2705
 9269TIP3    H149298   6.105   6.834  11.722  1.9640  2.2729 -1.5447
 9269TIP3    H249299   6.114   6.683  11.712  0.9122  1.8926  2.6269
 9270TIP3   OH249300   2.513   0.963   5.393  0.6619  0.1807 -0.1450
 9270TIP3    H149301   2.576   0.910   5.442 -2.2768 -2.0354  1.3897
 9270TIP3    H249302   2.479   1.025   5.457 -0.9133 -0.6642 -0.1402
 9271TIP3   OH249303   1.551   0.876   5.713 -0.3630  0.3277  0.0575
 9271TIP3    H149304   1.564   0.871   5.808 -0.1822 -2.0820 -0.0593
 9271TIP3    H249305   1.639   0.876   5.677 -0.4020 -2.9520 -0.2231
 9272TIP3   OH249306   2.410   5.278  10.916  0.2375  0.0567  0.3299
 9272TIP3    H149307   2.466   5.303  10.842 -0.7421  1.9991  0.2081
 9272TIP3    H249308   2.352   5.353  10.929 -2.7487 -2.1326  0.1046
 9273TIP3   OH249309   0.132   2.153   3.738  0.4830  0.2427 -0.2509
 9273TIP3    H149310   0.113   2.075   3.685  0.0339 -0.4425  0.9085
 9273TIP3    H249311   0.220   2.137   3.772  0.9624  0.8978 -1.1370
 9274TIP3   OH249312   3.989   0.425  15.547 -0.2269 -0.2586 -0.2924
 9274TIP3    H149313   4.043   0.469  15.612  0.6709 -0.6125 -0.7950
 9274TIP3    H249314   4.039   0.429  15.466  0.4289 -3.1860 -0.1072
 9275TIP3   OH249315   4.937   2.626  10.621 -0.6820 -0.0876 -0.0470
 9275TIP3    H149316   5.009   2.686  10.641  0.3972 -1.8481  1.5411
 9275TIP3    H249317   4.952   2.601  10.530 -0.0123  0.5246 -0.1145
 9276TIP3   OH249318   0.277   0.631   5.001 -0.4331 -0.4828 -0.8010
 9276TIP3    H149319   0.213   0.701   5.013 -0.3405 -0.4752 -0.3578
 9276TIP3    H249320   0.253   0.592   4.917 -0.7232 -0.1704 -0.8677
 9277TIP3   OH249321   6.037   1.935  12.002 -0.2652  0.2931 -0.1317
 9277TIP3    H149322   5.953   1.899  12.029  0.1469 -1.3555 -1.0039
 9277TIP3    H249323   6.099   1.863  12.014  1.2216  1.7875  1.4698
 9278TIP3   OH249324   1.737   2.489  12.809  0.5651 -0.0381  0.6540
 9278TIP3    H149325   1.693   2.434  12.744  0.0871 -0.5253  1.3777
 9278TIP3    H249326   1.822   2.447  12.823 -0.5073 -1.6798  2.5580
 9279TIP3   OH249327   6.615   1.981  15.089 -0.0367  0.0469 -0.5578
 9279TIP3    H149328   6.677   1.908  15.088  0.9763  0.8893 -0.8442
 9279TIP3    H249329   6.600   2.000  15.182 -0.8732 -0.9927 -0.4768
 9280TIP3   OH249330   0.835   4.204  11.537  0.1079  0.2991 -0.0782
 9280TIP3    H149331   0.842   4.205  11.633  0.8543  0.3899 -0.1336
 9280TIP3    H249332   0.920   4.173  11.507 -0.1141  0.3062 -0.7164
 9281TIP3   OH249333   2.676   5.218   2.145  0.1622  0.1573 -1.3110
 9281TIP3    H149334   2.758   5.241   2.189 -0.0249  0.9623 -1.3909
 9281TIP3    H249335   2.704   5.173   2.065  0.5197  0.1817 -1.2026
 9282TIP3   OH249336   6.320   6.605   4.692  0.2798  0.2229  0.0653
 9282TIP3    H149337   6.283   6.667   4.630  2.7990  0.0895 -1.6492
 9282TIP3    H249338   6.355   6.660   4.762  0.2853  0.5802 -0.2153
 9283TIP3   OH249339   0.358   2.768   4.267  0.0057  0.0532 -0.6521
 9283TIP3    H149340   0.375   2.684   4.226 -0.5949 -0.6305  0.4759
 9283TIP3    H249341   0.444   2.807   4.281  0.3805 -1.1222  0.3630
 9284TIP3   OH249342   6.783   4.509  13.853  0.0228  0.0791 -0.9962
 9284TIP3    H149343   6.844   4.565  13.806  0.4950 -0.5613 -1.1571
 9284TIP3    H249344   6.803   4.420  13.822  0.1273 -0.3181  0.1721
 9285TIP3   OH249345   6.570   0.706  11.207  0.0176  0.6947  0.6853
 9285TIP3    H149346   6.495   0.655  11.176 -0.5081  0.6131  2.0616
 9285TIP3    H249347   6.533   0.766  11.272  0.7136  2.4996 -0.5513
 9286TIP3   OH249348   2.641   5.125  16.129 -0.4351 -0.2345  0.2889
 9286TIP3    H149349   2.691   5.196  16.169  0.0753  0.1785 -1.0581
 9286TIP3    H249350   2.554   5.133  16.167  0.5832 -1.2166  2.9636
 9287TIP3   OH249351   1.143   2.632   3.025 -0.0136 -0.2684  0.2293
 9287TIP3    H149352   1.126   2.540   3.008 -1.0236 -0.0824  0.1672
 9287TIP3    H249353   1.128   2.643   3.119  0.1863 -0.1848  0.2519
 9288TIP3   OH249354   0.800   2.569   3.992 -0.1769 -0.3465 -0.4960
 9288TIP3    H149355   0.780   2.646   3.938 -0.4000 -0.3741 -0.4539
 9288TIP3    H249356   0.788   2.495   3.933 -1.3646 -0.4359 -0.1490
 9289TIP3   OH249357   6.154   1.384   6.389  0.1681 -0.4351  0.3242
 9289TIP3    H149358   6.123   1.452   6.330 -0.6384 -0.1590  1.0706
 9289TIP3    H249359   6.075   1.340   6.420  0.5785 -0.5108  1.2839
 9290TIP3   OH249360   3.131   3.178  16.732 -0.8946 -0.0467 -0.2581
 9290TIP3    H149361   3.053   3.170  16.677 -2.0992 -2.0287  1.6907
 9290TIP3    H249362   3.185   3.103  16.707 -0.2803  0.4696 -0.5113
 9291TIP3   OH249363   4.698   4.007   0.421  0.1242  0.0334  0.0702
 9291TIP3    H149364   4.742   4.086   0.390  2.0867 -0.5735  1.2428
 9291TIP3    H249365   4.690   4.020   0.516  3.2996 -2.4851  0.7558
 9292TIP3   OH249366   1.641   5.595   0.111 -0.2678 -0.3303  0.6905
 9292TIP3    H149367   1.562   5.644   0.089 -0.3706 -0.9993 -0.4910
 9292TIP3    H249368   1.609   5.508   0.133  0.2259 -0.9354 -0.9348
 9293TIP3   OH249369   0.528   5.645   1.147  0.2504  0.0440 -0.0311
 9293TIP3    H149370   0.571   5.718   1.190 -1.6767  0.8402  0.6095
 9293TIP3    H249371   0.586   5.571   1.161  2.4044  1.5161 -1.0081
 9294TIP3   OH249372   2.792   0.996   2.420 -0.6912 -0.5228  0.2339
 9294TIP3    H149373   2.805   0.941   2.343 -0.9227 -0.5536  0.2164
 9294TIP3    H249374   2.736   1.067   2.390  0.7074  0.4659 -0.0778
 9295TIP3   OH249375   0.397   3.328  10.351 -0.6653 -0.9252 -0.6780
 9295TIP3    H149376   0.437   3.288  10.428 -0.1337  0.3531 -0.2728
 9295TIP3    H249377   0.464   3.388  10.317 -0.3328 -2.5419 -3.0028
 9296TIP3   OH249378   3.370   4.499   2.736 -0.0029  0.2901  0.2944
 9296TIP3    H149379   3.403   4.588   2.734  1.4378 -0.2227  0.5801
 9296TIP3    H249380   3.420   4.453   2.668 -2.0681  0.1426 -1.1641
 9297TIP3   OH249381   2.596   0.358   3.846  0.3240 -0.5116 -0.4442
 9297TIP3    H149382   2.507   0.352   3.881  0.8493 -2.8704  0.5732
 9297TIP3    H249383   2.604   0.449   3.816 -2.1400 -0.0556  0.1951
 9298TIP3   OH249384   5.224   6.793  14.483 -0.1791  0.5961  0.0137
 9298TIP3    H149385   5.301   6.736  14.472 -1.1153 -0.4811 -1.2107
 9298TIP3    H249386   5.257   6.871  14.527  1.2528 -0.6724  1.2404
 9299TIP3   OH249387   2.137   5.958   0.619  0.5474  0.3996 -0.7193
 9299TIP3    H149388   2.124   5.876   0.572  1.0266 -0.4169  0.5537
 9299TIP3    H249389   2.052   5.977   0.660  0.8543 -0.2763  0.2506
 9300TIP3   OH249390   0.398   1.151   4.740  0.1307  0.2891 -0.1430
 9300TIP3    H149391   0.461   1.216   4.770 -0.9192  1.1338  0.2458
 9300TIP3    H249392   0.390   1.167   4.646  2.1677 -1.2869 -0.6450
 9301TIP3   OH249393   6.325   0.918  13.826 -0.6837 -0.5692 -0.1629
 9301TIP3    H149394   6.315   0.829  13.860  0.8925 -1.1100 -1.1042
 9301TIP3    H249395   6.385   0.961  13.888 -1.7190 -0.0273  0.4923
 9302TIP3   OH249396   6.479   4.617  16.120 -0.1752  0.4536  0.4234
 9302TIP3    H149397   6.462   4.642  16.029  3.4208 -1.7851 -0.9786
 9302TIP3    H249398   6.492   4.701  16.165  0.8463  1.5329 -1.7854
 9303TIP3   OH249399   0.190   2.510  14.422  0.2417  0.4565 -0.1293
 9303TIP3    H149400   0.153   2.596  14.405  2.9066  1.4809 -1.0832
 9303TIP3    H249401   0.276   2.528  14.460  1.7697 -1.7229 -2.3435
 9304TIP3   OH249402   4.176   4.241  13.645  0.0158  0.4687  0.4418
 9304TIP3    H149403   4.195   4.148  13.629  0.3500  0.3074  1.7341
 9304TIP3    H249404   4.200   4.285  13.563 -0.0033 -0.5600 -0.1266
 9305TIP3   OH249405   6.759   0.565   0.131  0.6171 -0.3179 -0.3290
 9305TIP3    H149406   6.739   0.550   0.224  2.4751 -1.9738 -0.1492
 9305TIP3    H249407   6.806   0.486   0.104 -1.5240 -0.6937 -3.2086
 9306TIP3   OH249408   6.632   5.233  16.659  0.1896 -0.1307  0.3158
 9306TIP3    H149409   6.665   5.146  16.681  0.6888 -0.3512 -1.2177
 9306TIP3    H249410   6.542   5.218  16.629 -0.5224  0.1791  2.2128
 9307TIP3   OH249411   1.397   3.044  15.482 -0.2844  0.0489  0.3333
 9307TIP3    H149412   1.325   2.983  15.469 -0.2962 -0.3460  2.1982
 9307TIP3    H249413   1.468   2.990  15.516  1.0132  0.3795 -1.7263
 9308TIP3   OH249414   5.505   2.486  14.519 -0.3179 -0.6089 -0.9471
 9308TIP3    H149415   5.442   2.507  14.588  0.0865  0.3377 -0.8612
 9308TIP3    H249416   5.556   2.566  14.507  0.2265 -1.0557 -1.7032
 9309TIP3   OH249417   3.554   2.765   5.295  0.0142  0.0344 -0.3676
 9309TIP3    H149418   3.609   2.828   5.249 -2.1628  0.5935 -2.2999
 9309TIP3    H249419   3.536   2.696   5.230 -1.5710 -0.1159  0.2043
 9310TIP3   OH249420   1.370   6.562   1.310 -0.7523  0.2951  0.1872
 9310TIP3    H149421   1.294   6.535   1.258 -1.1204  1.7856 -0.0819
 9310TIP3    H249422   1.436   6.585   1.244  0.2080 -1.7253  0.4256
 9311TIP3   OH249423   3.661   0.382  17.076  0.5954 -0.0241  0.1966
 9311TIP3    H149424   3.616   0.337  17.006 -2.5200  0.2080  1.9388
 9311TIP3    H249425   3.625   0.471  17.074  1.3512  0.3213  1.3332
 9312TIP3   OH249426   4.095   0.824   1.204  0.5376  0.0184  0.6017
 9312TIP3    H149427   4.045   0.780   1.135  0.4563 -0.5075  0.9890
 9312TIP3    H249428   4.173   0.858   1.160 -0.2263  0.9660 -0.0398
 9313TIP3   OH249429   1.783   5.908   6.288 -0.3612 -0.0349  0.2565
 9313TIP3    H149430   1.850   5.857   6.243  2.5575  0.5688  3.6587
 9313TIP3    H249431   1.826   5.991   6.308 -2.6422  0.9590  1.2229
 9314TIP3   OH249432   6.338   0.246  11.499 -0.1575  0.0968 -0.1155
 9314TIP3    H149433   6.361   0.153  11.505  1.1951  0.3607 -1.0694
 9314TIP3    H249434   6.342   0.277  11.590 -0.9994 -0.8533  0.2600
 9315TIP3   OH249435   1.374   3.237  11.838 -0.4466 -0.2141  0.2092
 9315TIP3    H149436   1.365   3.321  11.795  1.7211  0.0603  0.2363
 9315TIP3    H249437   1.313   3.179  11.793  1.1821  0.2697 -2.6967
 9316TIP3   OH249438   4.263   3.303   3.100 -0.2899 -0.3851  0.0303
 9316TIP3    H149439   4.328   3.279   3.166  0.5045  0.4637 -0.4158
 9316TIP3    H249440   4.310   3.293   3.017 -0.9925 -0.5563 -0.3470
 9317TIP3   OH249441   6.452   4.882   0.252 -0.0497  0.7943  0.5684
 9317TIP3    H149442   6.418   4.838   0.174  0.0552 -0.2662  1.1089
 9317TIP3    H249443   6.537   4.917   0.225 -0.8378  2.0523 -0.3240
 9318TIP3   OH249444   5.099   2.904   3.668  0.0126 -0.1014 -0.2087
 9318TIP3    H149445   5.075   2.976   3.727  3.4381  0.7574  0.2646
 9318TIP3    H249446   5.099   2.944   3.581  4.2471  1.1987  0.3042
 9319TIP3   OH249447   0.968   4.370   5.713 -0.4763  0.1966 -0.1122
 9319TIP3    H149448   0.960   4.339   5.803  0.5362 -0.7592 -0.3366
 9319TIP3    H249449   0.883   4.352   5.673 -0.7012 -0.0078  0.4677
 9320TIP3   OH249450   3.691   2.264  16.796 -0.5590 -0.2119  0.2108
 9320TIP3    H149451   3.741   2.252  16.715 -2.4597  0.2252 -1.0774
 9320TIP3    H249452   3.611   2.212  16.783 -0.9338 -0.0514  1.7620
 9321TIP3   OH249453   6.416   6.119   4.058  0.4215  0.5100 -0.0154
 9321TIP3    H149454   6.426   6.171   4.138  1.0111  0.3907 -0.0051
 9321TIP3    H249455   6.505   6.087   4.040  0.0409 -0.5569  0.0193
 9322TIP3   OH249456   3.248   6.693  14.502 -0.1954 -0.2180 -0.5961
 9322TIP3    H149457   3.214   6.763  14.447 -0.2151  0.0030 -0.3044
 9322TIP3    H249458   3.222   6.717  14.591  0.9640  0.1005 -0.3351
 9323TIP3   OH249459   5.920   3.071  15.633  0.3982  0.2181 -0.1758
 9323TIP3    H149460   5.837   3.043  15.671  0.5291  0.4964  0.3242
 9323TIP3    H249461   5.984   3.058  15.703  0.6042  0.9308 -0.2240
 9324TIP3   OH249462   0.398   4.143   0.547  0.2707  0.7016 -0.5135
 9324TIP3    H149463   0.473   4.152   0.487  0.5237  1.1889 -0.1267
 9324TIP3    H249464   0.336   4.210   0.519 -0.3619 -0.2044 -1.3210
 9325TIP3   OH249465   2.735   1.950  15.563  0.4551  0.1045  0.6159
 9325TIP3    H149466   2.693   1.966  15.647  0.4515 -0.9176  0.8200
 9325TIP3    H249467   2.791   2.026  15.549 -0.4382  0.8272  0.9824
 9326TIP3   OH249468   2.372   6.773  14.240 -0.7902 -0.1243 -0.5303
 9326TIP3    H149469   2.440   6.717  14.280 -0.8647 -1.2732 -1.9385
 9326TIP3    H249470   2.311   6.711  14.201 -1.1079  0.9491 -1.7665
 9327TIP3   OH249471   3.161   3.187  16.369 -0.1214  0.2107  0.4423
 9327TIP3    H149472   3.176   3.093  16.379  1.1109  0.4030  0.4931
 9327TIP3    H249473   3.067   3.198  16.385 -0.4587 -1.1307 -0.5368
 9328TIP3   OH249474   2.058   1.536  11.946 -0.1493  0.6091  0.2295
 9328TIP3    H149475   2.142   1.582  11.942 -0.0114  0.6243  2.3839
 9328TIP3    H249476   1.996   1.601  11.980 -0.3919 -0.1853  1.3640
 9329TIP3   OH249477   0.684   3.767  13.898 -0.4525 -0.2608  0.0707
 9329TIP3    H149478   0.768   3.792  13.938 -0.9308  0.1364  0.8416
 9329TIP3    H249479   0.637   3.850  13.889 -0.9372 -0.5404  0.0554
 9330TIP3   OH249480   5.319   1.667   5.535  0.3160  0.9914  0.4301
 9330TIP3    H149481   5.369   1.745   5.560  1.3784  0.3363  0.3739
 9330TIP3    H249482   5.228   1.696   5.539  0.6696  2.1186  0.8355
 9331TIP3   OH249483   0.314   4.025   5.922 -0.0017  0.2457 -0.4411
 9331TIP3    H149484   0.360   4.068   5.850  0.2783 -0.8241 -0.9043
 9331TIP3    H249485   0.380   4.017   5.991  0.5942 -1.5584 -1.2149
 9332TIP3   OH249486   2.574   5.721   2.894  0.0192 -0.0242  0.1202
 9332TIP3    H149487   2.601   5.808   2.925 -0.4157  0.8660 -1.8985
 9332TIP3    H249488   2.645   5.694   2.836 -0.5720 -0.3521 -0.4445
 9333TIP3   OH249489   3.145   6.225  11.515  0.7166  0.5697 -0.0611
 9333TIP3    H149490   3.144   6.219  11.610 -0.8106 -0.0414 -0.0980
 9333TIP3    H249491   3.059   6.261  11.492  1.2787  1.2453 -1.1806
 9334TIP3   OH249492   1.873   6.784   1.283  0.1522 -0.4228  0.2290
 9334TIP3    H149493   1.861   6.706   1.229 -0.4966 -0.8078  0.9162
 9334TIP3    H249494   1.858   6.754   1.373  1.1325  0.2289  0.6165
 9335TIP3   OH249495   1.850   2.782  15.006 -0.4627  0.0672 -0.0493
 9335TIP3    H149496   1.773   2.838  15.010 -3.2916 -3.6398 -0.1236
 9335TIP3    H249497   1.864   2.753  15.096  0.6508  0.3938 -0.1015
 9336TIP3   OH249498   5.665   4.727   3.629 -0.6933 -0.0562  0.3870
 9336TIP3    H149499   5.661   4.636   3.602 -1.2684 -0.3610  1.4970
 9336TIP3    H249500   5.592   4.738   3.690 -0.7680  1.1992  0.1030
 9337TIP3   OH249501   6.800   2.367  13.324 -0.2521 -0.1584 -0.1217
 9337TIP3    H149502   6.876   2.408  13.365  0.7492 -0.6742 -1.4314
 9337TIP3    H249503   6.725   2.407  13.368  0.7626  0.3875  1.1620
 9338TIP3   OH249504   1.314   4.040   1.664  0.4166  0.1181 -0.1836
 9338TIP3    H149505   1.270   4.021   1.581  0.7092 -0.6418 -0.1691
 9338TIP3    H249506   1.245   4.038   1.729  0.4216 -0.7832 -0.2014
 9339TIP3   OH249507   2.605   3.884   2.726  0.7041  0.1975  0.0261
 9339TIP3    H149508   2.611   3.919   2.638  1.3466  0.3322  0.1242
 9339TIP3    H249509   2.582   3.960   2.780  0.4654  0.1454 -0.0017
 9340TIP3   OH249510   3.839   4.545  14.461 -0.1017  0.1544  0.1375
 9340TIP3    H149511   3.857   4.615  14.524 -1.5983  1.3249 -0.7142
 9340TIP3    H249512   3.760   4.502  14.493  0.2988 -0.5857  0.1609
 9341TIP3   OH249513   1.886   0.253   5.179  0.0334 -0.3412 -0.1348
 9341TIP3    H149514   1.793   0.272   5.172  0.2777  0.6418 -0.8390
 9341TIP3    H249515   1.915   0.243   5.088  0.7078 -0.1458  0.0569
 9342TIP3   OH249516   3.019   6.013   4.913 -0.1622  0.2306  0.3622
 9342TIP3    H149517   2.981   6.086   4.865 -1.0249  0.3344  1.1853
 9342TIP3    H249518   3.017   5.940   4.851  1.0380  0.9721 -0.5850
 9343TIP3   OH249519   4.728   2.071   4.120  0.0994  0.0160  0.1032
 9343TIP3    H149520   4.712   2.124   4.198 -1.9233 -0.6351  0.1718
 9343TIP3    H249521   4.687   1.987   4.140 -0.6937 -0.0552 -1.7582
 9344TIP3   OH249522   5.112   3.250   5.848  0.5705 -0.6974 -0.1053
 9344TIP3    H149523   5.074   3.318   5.903  0.9733 -0.7076  0.1956
 9344TIP3    H249524   5.037   3.202   5.812  0.2993 -0.6406  0.3776
 9345TIP3   OH249525   1.670   4.231  11.831 -0.2171 -0.0415  0.4131
 9345TIP3    H149526   1.678   4.225  11.926  1.5890  1.8951  0.4268
 9345TIP3    H249527   1.738   4.171  11.798  1.4235  1.7659  0.4040
 9346TIP3   OH249528   2.613   0.739   0.746  0.3846  0.0637  0.3210
 9346TIP3    H149529   2.708   0.753   0.741  0.5081 -0.8840 -0.2639
 9346TIP3    H249530   2.578   0.791   0.674  0.5709 -0.4407 -0.1399
 9347TIP3   OH249531   6.748   5.774   6.050 -0.0420  0.7181 -0.4245
 9347TIP3    H149532   6.755   5.869   6.045  1.7162  0.7149  1.4966
 9347TIP3    H249533   6.692   5.759   6.126 -1.1503  0.2029 -1.3183
 9348TIP3   OH249534   2.107   0.323  14.693 -0.2508 -0.3387 -0.9093
 9348TIP3    H149535   2.148   0.364  14.617  0.8451 -1.6261 -1.0256
 9348TIP3    H249536   2.123   0.384  14.764  1.4427 -0.5641 -1.0659
 9349TIP3   OH249537   1.393   6.457  13.850  0.0468 -0.0268  0.1670
 9349TIP3    H149538   1.479   6.488  13.878 -0.1087  1.8655 -1.3136
 9349TIP3    H249539   1.383   6.372  13.892  2.1353  0.2585  1.3093
 9350TIP3   OH249540   4.807   5.774  13.680  0.3449 -0.4135 -0.4488
 9350TIP3    H149541   4.732   5.715  13.692 -0.2252 -0.2263 -2.8480
 9350TIP3    H249542   4.790   5.816  13.596  1.2922  2.3772  0.7093
 9351TIP3   OH249543   3.748   0.933   1.119  0.3064 -0.1167  0.4493
 9351TIP3    H149544   3.731   0.949   1.026 -2.5686 -0.3062  0.8993
 9351TIP3    H249545   3.792   0.847   1.121 -1.5858 -1.1456 -0.6063
 9352TIP3   OH249546   5.420   3.808   2.917  0.6973  0.0925 -0.5059
 9352TIP3    H149547   5.417   3.721   2.877  1.7846  0.1278 -0.6858
 9352TIP3    H249548   5.357   3.859   2.867  0.5136 -0.4270 -0.8155
 9353TIP3   OH249549   2.633   3.033   4.506  0.1822  0.1670  0.2373
 9353TIP3    H149550   2.552   3.079   4.528  1.2753  1.3786  1.8360
 9353TIP3    H249551   2.697   3.064   4.570  1.9591 -0.6803 -1.0661
 9354TIP3   OH249552   5.757   0.792  16.165  0.5743 -0.2239 -0.1920
 9354TIP3    H149553   5.806   0.716  16.136 -0.2276 -0.9573  0.3428
 9354TIP3    H249554   5.788   0.808  16.254  0.1696 -0.4095 -0.0177
 9355TIP3   OH249555   6.599   0.085   1.184  0.1609  0.0493  0.4407
 9355TIP3    H149556   6.602   0.055   1.275 -0.1376  0.2534  0.5201
 9355TIP3    H249557   6.508   0.114   1.172  0.5026  1.1588  0.4399
 9356TIP3   OH249558   3.273   0.528   4.500 -0.0026  0.3506 -0.2496
 9356TIP3    H149559   3.337   0.600   4.504  0.3598 -0.0238  0.8288
 9356TIP3    H249560   3.271   0.493   4.589 -1.5921  0.2389 -0.3221
 9357TIP3   OH249561   3.945   0.044  16.856  0.3031 -0.4890  0.4653
 9357TIP3    H149562   3.958   0.002  16.941  3.8048 -0.5680 -0.0467
 9357TIP3    H249563   4.009   0.115  16.854 -0.0679 -0.1827 -1.9390
 9358TIP3   OH249564   3.897   4.196   2.339 -0.7545  0.3701  0.3834
 9358TIP3    H149565   3.961   4.130   2.311 -1.2816  0.8961 -2.2199
 9358TIP3    H249566   3.815   4.147   2.350 -0.4818  0.1134  1.2835
 9359TIP3   OH249567   2.877   4.433  12.600 -0.1035  0.0306  0.8340
 9359TIP3    H149568   2.817   4.358  12.606  0.6925 -0.9127 -2.0669
 9359TIP3    H249569   2.820   4.509  12.591 -0.8939 -0.5219  1.1715
 9360TIP3   OH249570   2.118   1.366  17.010 -0.0489  0.2778 -0.1463
 9360TIP3    H149571   2.075   1.385  17.093 -0.2174  1.6267 -0.5301
 9360TIP3    H249572   2.080   1.283  16.981 -0.2877  0.0191  0.9217
 9361TIP3   OH249573   2.689   0.576   3.179  0.5729  0.1160  0.4656
 9361TIP3    H149574   2.648   0.575   3.266  0.6691  2.8238  0.5906
 9361TIP3    H249575   2.727   0.489   3.170 -3.0962 -1.7014  1.3393
 9362TIP3   OH249576   1.844   5.427   4.424  0.3956  0.5006  0.0870
 9362TIP3    H149577   1.940   5.424   4.421  0.3236 -1.2220 -0.6990
 9362TIP3    H249578   1.816   5.337   4.407 -1.3687  0.9814  0.3388
 9363TIP3   OH249579   3.313   2.157   1.901  0.4394  0.0770  0.6927
 9363TIP3    H149580   3.327   2.086   1.840  0.2346 -0.6078  1.4339
 9363TIP3    H249581   3.290   2.114   1.984 -0.8444  1.0201  0.8454
 9364TIP3   OH249582   4.341   4.236   1.460 -0.2497 -0.2868 -0.5164
 9364TIP3    H149583   4.357   4.325   1.493 -0.3321 -0.1203 -0.9220
 9364TIP3    H249584   4.413   4.184   1.496  1.6962  0.6197 -2.9643
 9365TIP3   OH249585   3.469   2.049  12.044  0.0665  0.0793  0.0732
 9365TIP3    H149586   3.437   1.963  12.019  1.3416 -0.0188 -1.2028
 9365TIP3    H249587   3.462   2.050  12.140  0.4704 -1.5897  0.1202
 9366TIP3   OH249588   5.072   2.174   4.270 -0.5459 -0.5382  0.6769
 9366TIP3    H149589   4.980   2.148   4.278 -1.1168  0.7245 -1.3452
 9366TIP3    H249590   5.068   2.262   4.234  1.4651  0.0675  1.8666
 9367TIP3   OH249591   2.885   3.818  16.454 -0.3578 -0.2138  0.1882
 9367TIP3    H149592   2.866   3.813  16.548  2.7391 -0.5434  0.8533
 9367TIP3    H249593   2.862   3.732  16.420  0.2323 -0.7172  1.0361
 9368TIP3   OH249594   4.844   2.820   6.427 -0.4519  0.1025  0.8796
 9368TIP3    H149595   4.782   2.748   6.435  1.1250 -1.5496 -1.1632
 9368TIP3    H249596   4.923   2.788   6.471  0.6039  0.1346 -0.9559
 9369TIP3   OH249597   5.885   2.943   4.209 -0.0604  0.0394 -0.2365
 9369TIP3    H149598   5.978   2.960   4.193  0.0636 -0.9449 -0.6019
 9369TIP3    H249599   5.866   2.990   4.291  0.1155  2.3750 -1.4954
 9370TIP3   OH249600   0.838   2.562   3.028 -0.1248  0.4402 -0.2342
 9370TIP3    H149601   0.771   2.581   3.094 -3.3403  1.8227 -3.6840
 9370TIP3    H249602   0.897   2.500   3.071 -2.6506  0.4536  3.5462
 9371TIP3   OH249603   2.555   1.359   5.098  0.3615 -0.3038  0.9784
 9371TIP3    H149604   2.572   1.336   5.007 -1.7005  1.9045 -0.0293
 9371TIP3    H249605   2.460   1.357   5.106  0.5218 -0.7859  3.1920
 9372TIP3   OH249606   5.985   5.313   0.457  0.1382  0.2735  0.5470
 9372TIP3    H149607   6.013   5.404   0.446  1.2495 -0.1892 -0.5341
 9372TIP3    H249608   5.946   5.290   0.373  1.0047 -0.6421  0.3812
 9373TIP3   OH249609   4.639   5.861  16.333  0.4565  0.1603 -0.0432
 9373TIP3    H149610   4.554   5.831  16.363 -0.1606 -0.0653 -1.9477
 9373TIP3    H249611   4.681   5.782  16.298  0.2787  0.7805 -1.7210
 9374TIP3   OH249612   1.288   4.962   0.177 -0.1203 -0.1252 -0.0730
 9374TIP3    H149613   1.354   4.908   0.221  0.0350 -1.0323 -1.4084
 9374TIP3    H249614   1.310   5.051   0.202  0.7572 -0.5309  0.6261
 9375TIP3   OH249615   6.292   2.024  16.656 -0.3899 -0.2204  0.0673
 9375TIP3    H149616   6.358   1.962  16.687  0.7387  0.8714 -0.1229
 9375TIP3    H249617   6.233   2.034  16.731  0.1362 -0.5577  0.5398
 9376TIP3   OH249618   2.830   3.512  12.063  0.3561 -0.4055 -0.1881
 9376TIP3    H149619   2.783   3.460  12.128  0.1022 -1.2634 -1.0594
 9376TIP3    H249620   2.916   3.527  12.103  1.1117 -3.0947 -0.7069
 9377TIP3   OH249621   0.113   6.756  16.936  0.0568  0.1796 -0.5718
 9377TIP3    H149622   0.121   6.692  17.006  0.8605  0.6621 -0.2069
 9377TIP3    H249623   0.021   6.784  16.938  0.2592  0.7576  0.8024
 9378TIP3   OH249624   4.960   2.434   3.039  0.6593 -0.2017  1.1357
 9378TIP3    H149625   4.866   2.426   3.056  0.8858 -0.5445  2.2730
 9378TIP3    H249626   4.966   2.493   2.964 -0.5363 -1.5124 -0.0224
 9379TIP3   OH249627   6.427   2.037   2.729  0.0122  0.0880  0.3618
 9379TIP3    H149628   6.521   2.047   2.744  0.3115 -1.6699 -0.1797
 9379TIP3    H249629   6.419   1.952   2.685 -1.6420  1.1536 -1.4658
 9380TIP3   OH249630   4.289   3.409  16.759 -0.4782 -1.0029  0.7704
 9380TIP3    H149631   4.384   3.415  16.765 -0.6318  0.3592  2.2288
 9380TIP3    H249632   4.260   3.500  16.756 -1.8674 -1.3419  2.8614
 9381TIP3   OH249633   4.518   4.945  14.902 -0.1656  0.3825 -0.5831
 9381TIP3    H149634   4.533   4.872  14.842  0.3042  0.2306 -0.2817
 9381TIP3    H249635   4.567   5.018  14.864  0.7632  0.0787  0.0247
 9382TIP3   OH249636   6.693   2.078   2.773  0.0926 -0.3091 -0.0719
 9382TIP3    H149637   6.709   2.127   2.853 -0.5567 -2.1597  1.2436
 9382TIP3    H249638   6.769   2.021   2.763  0.3371  0.1644 -0.9730
 9383TIP3   OH249639   0.447   1.444   5.130 -0.0137 -0.5998 -0.0106
 9383TIP3    H149640   0.506   1.400   5.191  0.8052  1.3096  0.6261
 9383TIP3    H249641   0.505   1.499   5.076 -0.8947 -1.0371 -1.4296
 9384TIP3   OH249642   0.605   1.029   2.970 -0.4119 -0.3465  0.0990
 9384TIP3    H149643   0.538   1.096   2.960 -1.1597 -0.9378  1.0082
 9384TIP3    H249644   0.646   1.022   2.884  1.0859  2.7379  0.4886
 9385TIP3   OH249645   5.946   6.684   5.270 -0.7220 -0.6530 -0.5914
 9385TIP3    H149646   5.982   6.761   5.226  0.5525 -0.9555 -0.0934
 9385TIP3    H249647   5.911   6.630   5.199  3.2243 -2.1543 -1.5034
 9386TIP3   OH249648   5.376   3.313   2.291  0.5794 -0.4172  0.0902
 9386TIP3    H149649   5.326   3.354   2.221  1.0970  1.5261  0.8144
 9386TIP3    H249650   5.334   3.344   2.372 -0.1236 -2.7647  0.6501
 9387TIP3   OH249651   3.838   3.744  14.259 -0.0787  0.2318 -0.7121
 9387TIP3    H149652   3.799   3.774  14.177  0.0415 -1.2128 -1.3186
 9387TIP3    H249653   3.932   3.737  14.240  0.2244  1.7867  0.1465
 9388TIP3   OH249654   3.839   4.427  14.189  0.4702 -0.0360  0.8339
 9388TIP3    H149655   3.880   4.435  14.276 -0.9047  2.3625  1.3251
 9388TIP3    H249656   3.745   4.430  14.207  0.1869  2.4834 -0.8577
 9389TIP3   OH249657   3.638   0.837  15.807 -0.3551 -0.1801  0.4982
 9389TIP3    H149658   3.706   0.815  15.743  0.8271 -2.0964  2.3544
 9389TIP3    H249659   3.566   0.777  15.786  0.2600 -1.2240  1.2792
 9390TIP3   OH249660   1.430   0.238  12.965  0.1923  0.2692  0.8290
 9390TIP3    H149661   1.360   0.281  12.915  0.3135 -0.6791 -0.1821
 9390TIP3    H249662   1.488   0.309  12.992 -0.9674  1.0257  1.3772
 9391TIP3   OH249663   1.868   1.967   4.861  0.1754 -0.2104  0.1115
 9391TIP3    H149664   1.961   1.958   4.880  0.1562 -2.2681 -0.6906
 9391TIP3    H249665   1.836   1.877   4.852 -1.6755  0.4967 -0.6655
 9392TIP3   OH249666   2.851   2.383   0.420 -0.4054  0.4703 -0.8230
 9392TIP3    H149667   2.758   2.388   0.397 -0.3484  2.6230 -0.6369
 9392TIP3    H249668   2.851   2.385   0.516 -0.1361  0.7507 -0.8318
 9393TIP3   OH249669   2.458   2.574   2.636  0.3386  0.4583  0.0535
 9393TIP3    H149670   2.374   2.605   2.602 -0.4555 -0.1667  1.4033
 9393TIP3    H249671   2.446   2.479   2.646  1.0568  0.4340  0.6607
 9394TIP3   OH249672   5.911   4.158   5.347  0.8148 -0.4052  0.0927
 9394TIP3    H149673   5.957   4.242   5.341  0.3346 -0.1619 -0.1710
 9394TIP3    H249674   5.935   4.111   5.267 -1.7098  0.8941 -1.4777
 9395TIP3   OH249675   5.608   2.273  14.688  0.0856  0.4323  0.1928
 9395TIP3    H149676   5.587   2.363  14.665 -0.7002  0.3684  0.6618
 9395TIP3    H249677   5.563   2.220  14.622  3.0601  0.4687 -1.9777
 9396TIP3   OH249678   5.389   5.564  11.593  0.9246 -0.2233  0.7191
 9396TIP3    H149679   5.307   5.599  11.628  0.2208 -0.6419 -0.4824
 9396TIP3    H249680   5.457   5.613  11.639  0.0521 -1.0724  3.0017
 9397TIP3   OH249681   1.070   6.186   2.089 -0.2225  0.0852 -0.0714
 9397TIP3    H149682   1.058   6.095   2.116  0.6815  0.0112  0.1118
 9397TIP3    H249683   1.010   6.198   2.015  0.1409 -0.8588 -0.5206
 9398TIP3   OH249684   1.701   2.980  15.421 -0.5880 -0.5545  0.5634
 9398TIP3    H149685   1.660   2.953  15.503  0.2121 -0.5848  0.9613
 9398TIP3    H249686   1.660   2.924  15.354 -0.1337 -1.6133  1.1535
 9399TIP3   OH249687   3.985   0.529  17.223 -0.2779 -0.3529 -0.3114
 9399TIP3    H149688   4.006   0.565  17.137 -0.2243 -1.7001 -0.8780
 9399TIP3    H249689   3.984   0.434  17.210  1.8425 -0.7025  1.6396
 9400TIP3   OH249690   6.251   1.127   5.610  0.0253 -0.2298 -0.5812
 9400TIP3    H149691   6.327   1.083   5.650  1.1019  0.9038 -1.3376
 9400TIP3    H249692   6.288   1.173   5.535 -1.2447  1.2403 -0.3065
 9401TIP3   OH249693   4.836   6.625   4.070  0.2303  0.2595 -0.1243
 9401TIP3    H149694   4.895   6.692   4.036  0.5860  0.0205  0.0190
 9401TIP3    H249695   4.837   6.639   4.165  2.0901 -1.4002  0.1245
 9402TIP3   OH249696   1.865   1.186  11.515 -0.3670 -0.4532 -0.1446
 9402TIP3    H149697   1.783   1.235  11.519  0.5121  1.1068 -0.8034
 9402TIP3    H249698   1.838   1.095  11.525 -2.6121 -0.3271 -3.7066
 9403TIP3   OH249699   0.789   3.051  11.505 -0.4586 -0.1478  0.0910
 9403TIP3    H149700   0.842   3.109  11.559  0.7197 -1.5213  0.4262
 9403TIP3    H249701   0.762   2.980  11.563 -2.6563  0.4868 -0.0793
 9404TIP3   OH249702   4.925   5.943  16.881 -0.2010 -0.2656  0.4018
 9404TIP3    H149703   5.013   5.957  16.846  0.2267 -3.0776  0.2774
 9404TIP3    H249704   4.927   5.983  16.968  1.8428 -2.0763  1.2211
 9405TIP3   OH249705   0.646   0.152  13.552 -0.2149  0.1464  0.1668
 9405TIP3    H149706   0.628   0.065  13.515 -2.0943  0.2680  0.7373
 9405TIP3    H249707   0.652   0.137  13.647 -0.9686  0.7108  0.3026
 9406TIP3   OH249708   6.413   3.167  13.012 -0.5889 -0.3822  0.8297
 9406TIP3    H149709   6.495   3.215  12.996 -0.7803 -0.8284 -1.7494
 9406TIP3    H249710   6.351   3.206  12.950 -1.2541 -2.6904  0.0161
 9407TIP3   OH249711   6.182   6.234   3.664 -0.1229  0.0688  0.5177
 9407TIP3    H149712   6.147   6.177   3.733 -0.8514  0.9376  0.8779
 9407TIP3    H249713   6.238   6.177   3.612 -1.2455 -1.1025  0.5694
 9408TIP3   OH249714   0.506   0.396  12.745 -0.2605  0.1777 -0.0367
 9408TIP3    H149715   0.464   0.476  12.713 -1.0080 -0.4760 -0.7078
 9408TIP3    H249716   0.479   0.391  12.837  1.7832  1.9832  0.7169
 9409TIP3   OH249717   3.823   0.844  16.443  0.3549  0.0354 -0.3502
 9409TIP3    H149718   3.796   0.905  16.375  1.1664  0.7219 -0.0604
 9409TIP3    H249719   3.819   0.895  16.525 -0.6365 -0.7865  0.1298
 9410TIP3   OH249720   4.209   5.696   2.574 -0.3690 -0.3810 -0.0761
 9410TIP3    H149721   4.303   5.711   2.578 -0.1238 -2.0387  1.7895
 9410TIP3    H249722   4.200   5.601   2.585 -2.2406 -0.2608 -0.4369
 9411TIP3   OH249723   4.884   4.846  15.281 -0.2498 -0.4518  0.9835
 9411TIP3    H149724   4.807   4.855  15.337 -1.7180  1.0086 -1.1848
 9411TIP3    H249725   4.907   4.936  15.258  0.5589 -1.0060 -0.4359
 9412TIP3   OH249726   2.197   0.159   3.707 -0.1774 -0.6941 -0.4320
 9412TIP3    H149727   2.134   0.087   3.720 -0.6342 -0.5266 -1.5808
 9412TIP3    H249728   2.188   0.214   3.784 -0.5099 -1.3745  0.0178
 9413TIP3   OH249729   3.228   5.342  11.353  0.2615  0.0132  0.4424
 9413TIP3    H149730   3.267   5.344  11.266  0.7706 -0.3012  0.6565
 9413TIP3    H249731   3.218   5.248  11.372  0.5687  0.0721  0.9004
 9414TIP3   OH249732   0.161   6.399   3.448  0.1637 -0.4404  0.1808
 9414TIP3    H149733   0.239   6.368   3.401  1.0587  0.0022  1.3608
 9414TIP3    H249734   0.131   6.474   3.396  0.0045 -1.1497 -0.7648
 9415TIP3   OH249735   5.775   0.774   1.955 -0.1242  0.4206  0.1543
 9415TIP3    H149736   5.747   0.765   2.046 -0.4243  1.3386  0.1498
 9415TIP3    H249737   5.836   0.847   1.955 -0.0331  0.3461 -0.3662
 9416TIP3   OH249738   4.094   2.662  12.202  0.1353 -0.7181 -0.2351
 9416TIP3    H149739   4.114   2.582  12.251  1.0454  0.2438  0.9758
 9416TIP3    H249740   4.177   2.709  12.198 -0.4957  0.3817 -0.5736
 9417TIP3   OH249741   6.259   3.185  11.381  0.3426  0.3192  0.6960
 9417TIP3    H149742   6.273   3.202  11.288 -1.9398  0.8121  0.3929
 9417TIP3    H249743   6.324   3.237  11.426  1.8135 -0.3324 -0.6433
 9418TIP3   OH249744   2.844   3.679  10.524 -0.0317 -0.0141 -0.2227
 9418TIP3    H149745   2.877   3.672  10.434  1.3419  0.3442  0.2358
 9418TIP3    H249746   2.846   3.589  10.557  3.0294  0.3408  0.6608
 9419TIP3   OH249747   3.633   6.230  17.222 -0.2243 -0.5703 -0.0987
 9419TIP3    H149748   3.705   6.247  17.162 -0.9775  2.6385 -0.2158
 9419TIP3    H249749   3.674   6.223  17.308  0.1970  2.3739 -0.0044
 9420TIP3   OH249750   1.723   0.182   1.352 -0.8261 -0.0759  0.0790
 9420TIP3    H149751   1.645   0.131   1.331 -0.0214 -0.9331 -0.9137
 9420TIP3    H249752   1.795   0.130   1.316  0.2666  0.3430  1.6120
 9421TIP3   OH249753   3.310   1.562  16.859 -0.3545 -0.4438 -0.4254
 9421TIP3    H149754   3.231   1.541  16.809  0.1745 -0.5497 -1.2320
 9421TIP3    H249755   3.356   1.625  16.804  0.0133 -0.2123  0.1490
 9422TIP3   OH249756   3.948   5.072   3.959  0.0233  0.1674  0.2495
 9422TIP3    H149757   3.961   5.143   4.022  1.1497  0.9271 -0.8027
 9422TIP3    H249758   4.036   5.037   3.944 -0.1990  0.1153 -1.0265
 9423TIP3   OH249759   3.254   2.533  11.579 -0.1661  0.0942  0.1634
 9423TIP3    H149760   3.159   2.523  11.577 -0.1414  0.0182 -1.3266
 9423TIP3    H249761   3.271   2.593  11.651 -1.3607  0.3124  0.2688
 9424TIP3   OH249762   3.731   5.260   1.961 -0.1354 -0.6509  0.3361
 9424TIP3    H149763   3.675   5.212   1.900 -0.0840 -2.0626  1.3434
 9424TIP3    H249764   3.813   5.210   1.962  1.0483  1.2609 -0.9407
 9425TIP3   OH249765   4.943   4.969   3.160 -0.1412 -0.0410 -0.0444
 9425TIP3    H149766   4.922   4.881   3.128 -2.0888 -0.0263  1.1052
 9425TIP3    H249767   5.038   4.968   3.171  0.1662 -1.1580 -2.4378
 9426TIP3   OH249768   2.891   1.822   2.395 -0.0423  0.3836 -0.2182
 9426TIP3    H149769   2.844   1.865   2.467 -0.6051  1.6550 -1.3109
 9426TIP3    H249770   2.872   1.877   2.319  1.6540 -0.1817 -1.0685
 9427TIP3   OH249771   0.809   6.763   3.765  0.1046 -0.1510 -0.3516
 9427TIP3    H149772   0.769   6.837   3.719  1.4789  0.4431 -0.6112
 9427TIP3    H249773   0.750   6.690   3.748 -0.5577  0.5746 -1.2283
 9428TIP3   OH249774   5.066   3.642   5.098  0.5930 -0.0238 -0.1228
 9428TIP3    H149775   5.054   3.605   5.010  2.5740  0.3182 -0.5524
 9428TIP3    H249776   5.022   3.579   5.156 -1.9715  0.4810 -1.4556
 9429TIP3   OH249777   5.971   1.260   6.117 -1.0538 -0.6065  0.2517
 9429TIP3    H149778   5.994   1.190   6.178 -1.1955 -0.9549 -0.0945
 9429TIP3    H249779   5.893   1.300   6.156 -0.9406 -0.6040  0.4792
 9430TIP3   OH249780   2.135   6.386   4.600  0.3798 -0.3986  0.5725
 9430TIP3    H149781   2.059   6.351   4.554  0.4434 -1.7050  1.4359
 9430TIP3    H249782   2.098   6.435   4.674  0.2946  1.3280 -0.5785
 9431TIP3   OH249783   0.128   0.078   3.180 -0.3902 -0.5737  0.0369
 9431TIP3    H149784   0.084   0.154   3.142 -0.2236  0.1049  1.2048
 9431TIP3    H249785   0.172   0.111   3.258  0.5889 -1.6488 -0.0458
 9432TIP3   OH249786   4.458   4.965  12.188  0.4090 -0.0530 -0.1414
 9432TIP3    H149787   4.413   4.941  12.107  1.3675  0.2609 -0.7656
 9432TIP3    H249788   4.427   4.900  12.252 -0.0947 -0.5079 -0.8349
 9433TIP3   OH249789   1.082   1.237  12.842 -0.3460  0.3283  0.0133
 9433TIP3    H149790   1.134   1.257  12.920 -2.1703  0.9978  1.0888
 9433TIP3    H249791   1.141   1.185  12.787  0.2640 -2.0584  2.7946
 9434TIP3   OH249792   4.616   4.102   4.345 -0.2151  0.1934 -0.1345
 9434TIP3    H149793   4.659   4.087   4.261 -2.3326 -0.6328 -1.1180
 9434TIP3    H249794   4.681   4.078   4.410  0.9236 -0.6924 -1.5791
 9435TIP3   OH249795   2.661   1.836  14.649 -0.0440  0.2305  0.4225
 9435TIP3    H149796   2.685   1.843  14.742  0.6597 -0.5327  0.3074
 9435TIP3    H249797   2.621   1.750  14.641 -1.4413  0.8757  0.2973
 9436TIP3   OH249798   1.508   4.581  12.697 -0.0008  0.0126 -0.8559
 9436TIP3    H149799   1.511   4.595  12.603 -1.1467  0.0695 -0.8982
 9436TIP3    H249800   1.592   4.612  12.729  1.4496 -2.4121 -2.1747
 9437TIP3   OH249801   2.468   6.146   2.790  0.4892  0.1651 -0.2886
 9437TIP3    H149802   2.471   6.189   2.705  1.4206  1.2114  0.2559
 9437TIP3    H249803   2.375   6.128   2.805  0.5975 -3.1010 -3.0098
 9438TIP3   OH249804   1.291   4.975  15.789  0.1746 -0.4405  0.4575
 9438TIP3    H149805   1.307   4.882  15.776  2.1811  0.0565 -0.9831
 9438TIP3    H249806   1.373   5.008  15.827 -1.1458  0.4314  2.6412
 9439TIP3   OH249807   5.368   1.070   3.671  0.1715 -0.1616 -0.2421
 9439TIP3    H149808   5.329   1.109   3.750 -1.4490 -2.5714  0.1858
 9439TIP3    H249809   5.462   1.083   3.683 -0.1454  0.9813  1.2840
 9440TIP3   OH249810   2.840   5.525   0.824  0.0897 -0.3785  0.3465
 9440TIP3    H149811   2.861   5.602   0.771  0.2096 -0.0135  0.9248
 9440TIP3    H249812   2.926   5.490   0.850  0.1000 -2.1611 -1.9959
 9441TIP3   OH249813   5.870   1.659  13.974 -0.0198  0.4093 -0.3013
 9441TIP3    H149814   5.869   1.574  14.018  0.6428  0.7844  0.4465
 9441TIP3    H249815   5.780   1.691  13.984  0.2408  0.6980  1.1877
 9442TIP3   OH249816   6.422   5.104  13.148 -0.0244  0.1169 -0.1656
 9442TIP3    H149817   6.488   5.034  13.150  0.6795  0.7385 -0.9445
 9442TIP3    H249818   6.422   5.134  13.057 -0.9196  0.5680 -0.0190
 9443TIP3   OH249819   0.368   2.546   3.618  0.6850  0.1671 -0.0361
 9443TIP3    H149820   0.283   2.516   3.584 -0.4915  1.4216  1.6753
 9443TIP3    H249821   0.358   2.642   3.622  2.0843  0.2948  0.4309
 9444TIP3   OH249822   6.591   4.849  17.210  0.4085  0.2284  0.1936
 9444TIP3    H149823   6.505   4.824  17.242  0.1482  0.1749 -0.5574
 9444TIP3    H249824   6.612   4.785  17.142  0.3788  1.1391 -0.6806
 9445TIP3   OH249825   2.681   3.903   1.667  0.2389  0.2594  0.5449
 9445TIP3    H149826   2.649   3.992   1.658 -0.1163  0.2324  1.4872
 9445TIP3    H249827   2.626   3.864   1.735  0.4978 -0.6252  0.2573
 9446TIP3   OH249828   1.266   1.777  16.330  0.6106 -0.1558  0.3589
 9446TIP3    H149829   1.354   1.794  16.366  0.3800 -0.1425  0.9235
 9446TIP3    H249830   1.236   1.698  16.377 -0.5812  1.1238  1.8074
 9447TIP3   OH249831   5.910   0.356   2.952 -0.6372 -0.2998 -0.2254
 9447TIP3    H149832   5.852   0.419   2.994 -3.6087 -2.7024 -0.4891
 9447TIP3    H249833   5.995   0.371   2.992 -2.0677  1.4409  2.3097
 9448TIP3   OH249834   4.960   4.670   1.407  0.2079 -0.2950  0.2432
 9448TIP3    H149835   4.928   4.632   1.489  1.8027 -0.4763  0.7884
 9448TIP3    H249836   4.923   4.759   1.406 -1.3761 -0.9258  0.2164
 9449TIP3   OH249837   5.430   2.642  17.137 -0.0888 -0.3061 -0.3403
 9449TIP3    H149838   5.405   2.684  17.054 -1.8512 -2.6614 -1.0636
 9449TIP3    H249839   5.518   2.607  17.120  1.0625  2.2971  0.0079
 9450TIP3   OH249840   5.322   5.920   1.700  0.8044 -0.0457 -0.0743
 9450TIP3    H149841   5.353   5.829   1.697 -0.2096 -0.4418  1.0014
 9450TIP3    H249842   5.402   5.973   1.693  1.5064 -1.0245  0.3709
 9451TIP3   OH249843   3.157   1.062  14.480  0.1940  0.0045 -0.1977
 9451TIP3    H149844   3.239   1.017  14.497 -0.9446 -2.0207  0.1828
 9451TIP3    H249845   3.123   1.020  14.401 -1.4925 -0.6903  0.8682
 9452TIP3   OH249846   3.843   5.104  12.544 -0.3826  0.4333 -0.1249
 9452TIP3    H149847   3.922   5.123  12.493 -0.6420 -0.7319 -0.9929
 9452TIP3    H249848   3.771   5.139  12.492 -0.4065  1.9334  0.9056
 9453TIP3   OH249849   1.990   5.689   0.546  0.2461 -0.0319 -0.2829
 9453TIP3    H149850   2.057   5.622   0.539  1.2515  1.2440 -3.9917
 9453TIP3    H249851   1.923   5.663   0.483 -1.0447  0.5791  0.8148
 9454TIP3   OH249852   3.108   0.249  13.462  0.3501  0.0438 -0.5205
 9454TIP3    H149853   3.013   0.260  13.471  0.1435 -0.3208 -2.1133
 9454TIP3    H249854   3.145   0.316  13.520 -0.8844  0.7244 -0.5010
 9455TIP3   OH249855   1.068   3.239   3.828  0.6433  0.3177 -0.3731
 9455TIP3    H149856   1.151   3.209   3.792  1.6353  0.8331  1.4038
 9455TIP3    H249857   1.078   3.229   3.923 -0.5538  2.2574 -0.0012
 9456TIP3   OH249858   4.006   1.866  12.141 -0.2294  0.0395  0.0339
 9456TIP3    H149859   3.918   1.905  12.149 -0.5721 -0.9533  1.2023
 9456TIP3    H249860   3.991   1.783  12.097  0.1065 -0.1804  0.3360
 9457TIP3   OH249861   6.782   0.473   2.618  0.1536  0.1333 -0.3759
 9457TIP3    H149862   6.695   0.490   2.654  0.4637 -0.1808  0.5623
 9457TIP3    H249863   6.766   0.421   2.539 -0.5397  0.7062 -0.6166
 9458TIP3   OH249864   5.367   1.705   1.483 -0.5780 -0.7607  0.1997
 9458TIP3    H149865   5.449   1.682   1.526 -1.5166 -2.4163  1.1765
 9458TIP3    H249866   5.354   1.637   1.417  0.1058  0.9353 -1.7179
 9459TIP3   OH249867   1.914   0.492   4.567  0.0449 -0.0712  0.2322
 9459TIP3    H149868   1.960   0.462   4.645 -1.7782  1.5122  1.9848
 9459TIP3    H249869   1.952   0.578   4.548 -0.0212 -0.1323 -0.1858
 9460TIP3   OH249870   3.705   0.092   5.865  0.0671  0.4576 -0.0006
 9460TIP3    H149871   3.757   0.163   5.904  0.7986 -0.1765  0.2060
 9460TIP3    H249872   3.616   0.109   5.894  0.1470  1.6099 -0.4146
 9461TIP3   OH249873   3.254   3.476  16.067  0.7684 -0.5704 -0.1771
 9461TIP3    H149874   3.173   3.520  16.093  0.5258 -0.6327 -0.8308
 9461TIP3    H249875   3.248   3.390  16.107  0.3151 -0.7258 -0.5744
 9462TIP3   OH249876   4.102   1.445   2.311  0.0385 -0.8858  0.4326
 9462TIP3    H149877   4.111   1.540   2.318 -0.0268 -0.9965  2.3498
 9462TIP3    H249878   4.029   1.432   2.251  0.1189  0.2793  0.0713
 9463TIP3   OH249879   0.329   1.673   5.733 -0.6627 -0.2882 -0.5141
 9463TIP3    H149880   0.304   1.764   5.718 -1.1392 -0.3117  0.0999
 9463TIP3    H249881   0.424   1.673   5.734 -0.6363 -0.0701 -2.1596
 9464TIP3   OH249882   2.385   6.303   0.072  0.0378  0.0665  0.1469
 9464TIP3    H149883   2.413   6.278   0.160  0.2145 -2.9022 -0.7061
 9464TIP3    H249884   2.444   6.255   0.013 -1.9642 -0.3097 -1.6038
 9465TIP3   OH249885   2.875   2.028   2.201 -0.1004  0.4783  0.0197
 9465TIP3    H149886   2.793   2.077   2.194 -0.1542  0.1296 -2.2574
 9465TIP3    H249887   2.872   1.966   2.128  0.7922 -1.6688  1.7491
 9466TIP3   OH249888   2.427   1.840   5.455 -0.4973  0.7064  0.4154
 9466TIP3    H149889   2.476   1.785   5.516 -0.1616  1.3687  0.7570
 9466TIP3    H249890   2.478   1.840   5.375 -1.6985 -1.3809 -0.3817
 9467TIP3   OH249891   1.132   1.482  12.450 -0.1880 -0.1458  0.4656
 9467TIP3    H149892   1.059   1.453  12.505  0.4162 -0.1247  1.3042
 9467TIP3    H249893   1.142   1.575  12.471 -0.2211 -0.0422  0.0097
 9468TIP3   OH249894   0.890   5.317   5.451  0.0074  0.4397 -0.2370
 9468TIP3    H149895   0.871   5.229   5.483 -0.2953 -0.0964 -1.8473
 9468TIP3    H249896   0.809   5.367   5.468 -1.2278 -0.6152 -2.8087
 9469TIP3   OH249897   5.589   5.914  16.035  0.4006  0.7071 -0.1323
 9469TIP3    H149898   5.678   5.931  16.005  0.3177  0.3843 -0.5720
 9469TIP3    H249899   5.596   5.835  16.088  0.1759 -0.0656 -1.2299
 9470TIP3   OH249900   3.051   1.643   2.833 -0.6114  0.4819  0.3160
 9470TIP3    H149901   2.964   1.628   2.870 -1.0458  1.6345 -0.2264
 9470TIP3    H249902   3.060   1.579   2.763 -1.0054  0.3411  0.3984
 9471TIP3   OH249903   4.742   3.867   5.994  0.2113  0.1839 -1.0451
 9471TIP3    H149904   4.744   3.886   6.088 -0.5736 -0.2783 -0.9266
 9471TIP3    H249905   4.779   3.780   5.987 -0.6926 -0.2080 -1.0413
 9472TIP3   OH249906   5.194   3.780  16.899  0.9105  0.6141 -0.0631
 9472TIP3    H149907   5.168   3.851  16.958  0.6146  0.4029  0.0567
 9472TIP3    H249908   5.169   3.700  16.944 -0.4371  0.4938 -1.0130
 9473TIP3   OH249909   4.124   3.473   0.298  0.0856  0.2470 -0.5116
 9473TIP3    H149910   4.031   3.495   0.295  0.2799  1.0079 -1.1796
 9473TIP3    H249911   4.168   3.556   0.280  0.9195  0.1835  1.2301
 9474TIP3   OH249912   1.335   1.726   5.074  0.2262 -0.7538 -0.7326
 9474TIP3    H149913   1.272   1.756   5.139  3.2278  0.9630  1.5203
 9474TIP3    H249914   1.311   1.634   5.059 -2.2328 -0.3998  0.7144
 9475TIP3   OH249915   2.016   1.186  15.099  0.4110  0.1984 -0.3861
 9475TIP3    H149916   1.974   1.254  15.151  3.6402  3.0771 -1.3443
 9475TIP3    H249917   2.046   1.122  15.163 -0.0078  1.1968  0.8212
 9476TIP3   OH249918   1.274   4.709   5.557  0.3528 -0.0911 -0.0063
 9476TIP3    H149919   1.370   4.707   5.557  0.3512 -0.1566  0.1224
 9476TIP3    H249920   1.252   4.785   5.503  0.4765 -0.1461 -0.1381
 9477TIP3   OH249921   3.849   3.078  10.488  0.0667 -0.2651 -0.0801
 9477TIP3    H149922   3.834   3.173  10.491 -2.1624 -0.6218  2.2689
 9477TIP3    H249923   3.800   3.048  10.412 -1.7750  0.1054  0.9331
 9478TIP3   OH249924   6.252   6.220  11.915 -0.0639  0.4084  0.1047
 9478TIP3    H149925   6.169   6.191  11.876  1.7745 -0.5957 -3.3249
 9478TIP3    H249926   6.271   6.302  11.871  1.5394 -0.1948 -0.3785
 9479TIP3   OH249927   4.077   2.982  10.026 -0.5340 -0.2330 -0.1363
 9479TIP3    H149928   4.060   2.934  10.107  0.4496 -1.3495 -0.5577
 9479TIP3    H249929   3.992   2.988   9.983 -0.7247 -1.4437  0.0389
 9480TIP3   OH249930   5.680   4.503  13.601  0.4613 -0.0543  0.3438
 9480TIP3    H149931   5.760   4.554  13.617  2.2077 -1.9579 -1.8477
 9480TIP3    H249932   5.700   4.416  13.637 -0.5024 -0.6361 -0.4987
 9481TIP3   OH249933   0.831   6.282   0.758 -0.1681  0.4323 -0.0955
 9481TIP3    H149934   0.868   6.241   0.837 -0.4300  1.8474  0.7870
 9481TIP3    H249935   0.740   6.300   0.781 -0.6854 -0.6228 -1.3100
 9482TIP3   OH249936   5.781   1.863   0.073  0.7989  0.4148  0.1509
 9482TIP3    H149937   5.864   1.821   0.052  1.7614 -0.1275  4.6409
 9482TIP3    H249938   5.717   1.791   0.073  0.7996  0.4082 -0.7266
 9483TIP3   OH249939   5.031   2.840  16.667  0.5638  0.0880 -0.5325
 9483TIP3    H149940   5.053   2.768  16.726  1.1235  1.1611  0.6017
 9483TIP3    H249941   5.093   2.910  16.690 -1.1021  1.5552 -0.4005
 9484TIP3   OH249942   4.386   2.820  15.184  0.0951 -0.1999 -0.0353
 9484TIP3    H149943   4.466   2.781  15.218 -0.1619  0.9103  1.9454
 9484TIP3    H249944   4.325   2.747  15.174  0.8128 -0.8093  0.0573
 9485TIP3   OH249945   6.704   4.060  13.755  0.3858 -0.3743  0.1427
 9485TIP3    H149946   6.633   4.076  13.817 -1.6595  1.0268 -2.4476
 9485TIP3    H249947   6.708   3.965  13.747  0.2936 -0.5464  1.9470
 9486TIP3   OH249948   3.839   6.560   4.841  0.3386  0.3331  0.6859
 9486TIP3    H149949   3.884   6.644   4.851  2.0067 -0.4969  0.3508
 9486TIP3    H249950   3.814   6.536   4.931 -1.1207  1.6872  0.6592
 9487TIP3   OH249951   4.907   6.485  10.353 -0.5788 -0.0514  0.3148
 9487TIP3    H149952   4.954   6.567  10.364 -1.1832  0.0785  1.9965
 9487TIP3    H249953   4.823   6.499  10.395 -0.9928 -1.2777 -0.0713
 9488TIP3   OH249954   3.920   2.302  12.789 -0.3911  0.0712 -0.1418
 9488TIP3    H149955   3.963   2.314  12.873  0.2698  0.8720 -0.5875
 9488TIP3    H249956   3.827   2.317  12.806 -0.1070  1.5108  0.1849
 9489TIP3   OH249957   2.236   0.210   4.820  0.2374  0.4195  0.4676
 9489TIP3    H149958   2.210   0.129   4.776 -1.9217  0.9528  0.7152
 9489TIP3    H249959   2.280   0.181   4.900 -2.0301 -0.5625  1.4210
 9490TIP3   OH249960   5.436   4.223   5.766 -0.9047 -0.0780  0.2169
 9490TIP3    H149961   5.459   4.260   5.681 -1.5545  0.6447  0.3493
 9490TIP3    H249962   5.520   4.213   5.812 -0.3491 -2.2116 -1.1846
 9491TIP3   OH249963   4.530   6.131   1.182 -0.8035 -0.0070  0.4443
 9491TIP3    H149964   4.606   6.080   1.212  0.4204  0.4825 -1.7562
 9491TIP3    H249965   4.501   6.086   1.103  0.3058  2.6561 -1.5455
 9492TIP3   OH249966   5.837   1.440  12.839  0.6251  0.2597 -0.7442
 9492TIP3    H149967   5.905   1.373  12.835 -0.7567 -1.2371  0.2228
 9492TIP3    H249968   5.809   1.439  12.931  0.4447  2.0301 -0.7673
 9493TIP3   OH249969   0.367   4.498  15.589  0.2200  0.2680 -0.3364
 9493TIP3    H149970   0.337   4.580  15.550  0.2566  0.1795 -0.5498
 9493TIP3    H249971   0.370   4.516  15.683 -1.7091 -0.0886 -0.1836
 9494TIP3   OH249972   1.052   0.021  14.472  0.0975 -0.0537 -0.6150
 9494TIP3    H149973   1.003  -0.052  14.511  0.2371  0.7726  1.1450
 9494TIP3    H249974   1.000   0.098  14.495  0.6292  0.5289 -1.3751
 9495TIP3   OH249975   5.091   0.922  14.886  0.1270  0.1627 -0.8431
 9495TIP3    H149976   5.068   0.927  14.978 -0.3582 -3.5673 -0.6769
 9495TIP3    H249977   5.186   0.923  14.885  0.1307  0.6541 -0.3606
 9496TIP3   OH249978   1.151   5.557   5.071  0.3161  0.1103  0.2612
 9496TIP3    H149979   1.157   5.537   4.978  0.0713  1.7170 -0.1085
 9496TIP3    H249980   1.088   5.493   5.105  0.9447 -0.9434 -0.5204
 9497TIP3   OH249981   4.852   6.502  11.662 -0.1466  0.4463  0.1201
 9497TIP3    H149982   4.936   6.547  11.650 -0.8246  1.7507  0.2619
 9497TIP3    H249983   4.786   6.568  11.643 -1.1558 -0.6481 -0.2449
 9498TIP3   OH249984   4.397   3.153   2.199  0.9946  0.7653  0.7324
 9498TIP3    H149985   4.476   3.100   2.206  0.4299 -0.5742 -2.2413
 9498TIP3    H249986   4.348   3.135   2.279  1.5623 -1.9674  0.5076
 9499TIP3   OH249987   1.648   3.379  11.575  0.9035 -0.1258  0.0466
 9499TIP3    H149988   1.553   3.390  11.579  0.5805 -2.9562  1.8269
 9499TIP3    H249989   1.682   3.451  11.627 -0.2978  0.5363 -0.0550
 9500TIP3   OH249990   5.811   2.141   3.245  0.3413  0.6023  0.2648
 9500TIP3    H149991   5.718   2.120   3.239  0.7867 -1.2843 -0.2233
 9500TIP3    H249992   5.829   2.191   3.165 -0.2697  1.1292  0.4449
 9501TIP3   OH249993   4.470   3.905  10.787  0.5553  0.0987  0.6394
 9501TIP3    H149994   4.384   3.907  10.828 -0.0377  1.2825 -0.6227
 9501TIP3    H249995   4.496   3.997  10.782  0.9615 -0.0903 -0.8819
 9502TIP3   OH249996   4.195   4.890  16.550  0.2397  0.5313 -0.7752
 9502TIP3    H149997   4.227   4.958  16.609  2.5015 -1.2527  0.1338
 9502TIP3    H249998   4.238   4.810  16.580 -2.5907 -1.3830 -1.6138
 9503TIP3   OH249999   3.180   4.404   5.329  0.2844  0.0179  0.2912
 9503TIP3    H150000   3.230   4.323   5.335 -0.3381 -0.4394 -0.5533
 9503TIP3    H250001   3.176   4.422   5.235  0.0488  0.7983  0.4471
 9504TIP3   OH250002   3.685   4.237  15.709 -0.8579 -0.7035 -0.3826
 9504TIP3    H150003   3.734   4.283  15.641 -0.0232  1.1412  1.4236
 9504TIP3    H250004   3.746   4.232  15.783 -2.3243 -1.1640  0.8094
 9505TIP3   OH250005   6.319   1.819   6.585  0.0339 -0.3845 -0.1782
 9505TIP3    H150006   6.229   1.838   6.558  0.5394  0.1567 -1.5311
 9505TIP3    H250007   6.322   1.723   6.590 -0.7174 -0.3931  0.2566
 9506TIP3   OH250008   2.874   6.446  15.453  0.3730  0.4903  0.9305
 9506TIP3    H150009   2.956   6.397  15.445 -0.0062  0.0311 -0.1981
 9506TIP3    H250010   2.898   6.524  15.503  1.8019  1.0124 -0.5195
 9507TIP3   OH250011   6.799   5.016   5.877  0.3910  0.2760 -0.6288
 9507TIP3    H150012   6.812   5.108   5.901 -1.6488  0.5449 -0.4148
 9507TIP3    H250013   6.707   4.999   5.899  0.3468 -1.3951 -2.0163
 9508TIP3   OH250014   1.610   0.969  14.789 -0.4047  0.0463 -0.2984
 9508TIP3    H150015   1.542   0.961  14.855 -0.5192 -1.0856 -0.5591
 9508TIP3    H250016   1.563   0.976  14.706 -0.2716  1.7657 -0.2505
 9509TIP3   OH250017   1.626   4.264   5.339  0.0470  0.7307 -0.2317
 9509TIP3    H150018   1.693   4.286   5.403  1.8151  1.8487 -2.3672
 9509TIP3    H250019   1.544   4.266   5.388  1.3028  1.8524  1.9144
 9510TIP3   OH250020   6.171   6.546   6.107  0.2919  0.2117  0.3455
 9510TIP3    H150021   6.221   6.502   6.176 -1.1178  0.3957  1.5037
 9510TIP3    H250022   6.139   6.627   6.148 -1.3650 -0.1428 -0.2074
 9511TIP3   OH250023   3.749   0.739  16.820  0.5401  0.8515  0.3393
 9511TIP3    H150024   3.711   0.653  16.802  1.7987  0.3238  0.1973
 9511TIP3    H250025   3.675   0.800  16.810  0.3627  0.1816 -3.0281
 9512TIP3   OH250026   5.137   3.945  14.471  0.2994  0.4604  0.5821
 9512TIP3    H150027   5.138   4.006  14.397 -1.5490 -0.4101 -0.1775
 9512TIP3    H250028   5.111   3.999  14.546 -1.1701  0.6395 -0.0502
 9513TIP3   OH250029   4.033   3.521   2.466 -0.0713 -0.0250  0.0474
 9513TIP3    H150030   4.118   3.527   2.423 -0.0728  1.3866  0.2396
 9513TIP3    H250031   3.988   3.450   2.419 -0.3659  1.9560 -2.8339
 9514TIP3   OH250032   5.633   3.258   6.619  0.3236  0.4455 -0.3315
 9514TIP3    H150033   5.569   3.209   6.566 -1.4897  0.4941  1.7327
 9514TIP3    H250034   5.589   3.341   6.639  1.1357  0.5936  0.8979
 9515TIP3   OH250035   6.401   0.111  10.725 -0.5134  0.5619 -0.6871
 9515TIP3    H150036   6.383   0.019  10.742  1.8878 -0.0266 -1.1702
 9515TIP3    H250037   6.322   0.143  10.680 -1.0890 -1.4253 -1.1299
 9516TIP3   OH250038   5.287   3.725   4.679  0.0707 -0.0430 -0.0650
 9516TIP3    H150039   5.309   3.780   4.754  3.9918 -0.8651 -0.5150
 9516TIP3    H250040   5.353   3.746   4.613 -2.0749 -0.8219 -2.5398
 9517TIP3   OH250041   2.635   5.634   1.688  0.3471  0.3039 -0.5685
 9517TIP3    H150042   2.711   5.658   1.741  2.5186 -1.5245 -2.7076
 9517TIP3    H250043   2.576   5.589   1.748  1.5000  0.6908  0.8773
 9518TIP3   OH250044   1.481   3.526  14.488  0.3106  0.1850 -0.4134
 9518TIP3    H150045   1.479   3.619  14.512  1.5176  0.6998 -2.2111
 9518TIP3    H250046   1.555   3.490  14.536 -0.3446  0.0578  0.5255
 9519TIP3   OH250047   1.920   1.244   5.101  0.2727 -0.6894  0.5147
 9519TIP3    H150048   1.927   1.211   5.012 -0.2751 -1.3372  0.7088
 9519TIP3    H250049   1.978   1.321   5.103 -1.0432  0.3535 -0.8628
 9520TIP3   OH250050   5.297   0.827   4.724 -0.0940 -0.5766 -0.2937
 9520TIP3    H150051   5.372   0.886   4.718 -0.8807  0.4545 -0.3465
 9520TIP3    H250052   5.314   0.773   4.801  0.3767  0.1165  0.0972
 9521TIP3   OH250053   0.696   0.304  16.394  0.1522 -0.3236  0.1496
 9521TIP3    H150054   0.755   0.262  16.331  0.6618  1.3056 -0.4850
 9521TIP3    H250055   0.625   0.340  16.340 -0.5184 -0.7833  0.7327
 9522TIP3   OH250056   0.459   6.621  16.852  0.4386  0.3945  0.1349
 9522TIP3    H150057   0.439   6.686  16.920 -1.0840 -0.7389  0.7943
 9522TIP3    H250058   0.497   6.547  16.899 -1.8624 -0.9454 -0.0364
 9523TIP3   OH250059   5.677   1.390   2.825 -0.6036 -0.0946 -0.0636
 9523TIP3    H150060   5.720   1.338   2.893 -1.1440  0.1351  0.4603
 9523TIP3    H250061   5.592   1.413   2.863 -0.7068  0.4558 -0.6259
 9524TIP3   OH250062   1.406   0.287   6.156 -0.0360  0.1701 -0.0577
 9524TIP3    H150063   1.430   0.245   6.074  0.8678  0.8321 -0.1374
 9524TIP3    H250064   1.477   0.263   6.216 -0.9352 -0.7098  0.6738
 9525TIP3   OH250065   3.434   2.231  12.831  0.1027  0.2528  0.4981
 9525TIP3    H150066   3.477   2.146  12.837  0.5407  0.5078  0.9361
 9525TIP3    H250067   3.344   2.214  12.860 -0.2836 -0.4035 -1.0079
 9526TIP3   OH250068   5.323   3.222  15.582  0.8085 -0.3593  0.3341
 9526TIP3    H150069   5.378   3.147  15.605 -0.4991 -0.9201  1.7704
 9526TIP3    H250070   5.244   3.183  15.545  0.3394  0.3330  0.5994
 9527TIP3   OH250071   5.201   6.118  15.805 -0.6710 -0.3540  0.3995
 9527TIP3    H150072   5.183   6.200  15.850 -0.0850  1.2313 -2.1344
 9527TIP3    H250073   5.290   6.095  15.831 -0.4082  0.4320  0.2014
 9528TIP3   OH250074   0.304   4.682  16.887 -0.8340 -0.8330 -0.4117
 9528TIP3    H150075   0.251   4.737  16.945  0.3435  0.4966 -0.5741
 9528TIP3    H250076   0.310   4.598  16.932 -1.4482 -0.3856  0.5138
 9529TIP3   OH250077   4.558   1.941   4.949  0.4031  0.1783  0.5599
 9529TIP3    H150078   4.619   1.888   4.897  0.3391 -0.4297  1.0907
 9529TIP3    H250079   4.563   2.028   4.910  1.3188  0.0425  0.3530
 9530TIP3   OH250080   4.700   6.819   1.715 -0.3698 -0.0734  0.0928
 9530TIP3    H150081   4.772   6.850   1.661 -0.6141  0.0520 -0.1557
 9530TIP3    H250082   4.637   6.781   1.654 -0.4407 -0.3374  0.3238
 9531TIP3   OH250083   1.044   5.347  14.671 -0.0556 -0.2354  0.0060
 9531TIP3    H150084   1.024   5.410  14.740 -0.3184 -1.4812  1.0769
 9531TIP3    H250085   0.973   5.358  14.608  1.1593  2.2113 -1.0322
 9532TIP3   OH250086   5.680   0.828   2.541  0.3271 -0.0098  0.6507
 9532TIP3    H150087   5.739   0.758   2.511  0.7293 -0.0622  1.5383
 9532TIP3    H250088   5.737   0.888   2.589 -0.0774  0.7609  0.1743
 9533TIP3   OH250089   6.517   4.287   4.217 -0.1090 -0.4734  0.3397
 9533TIP3    H150090   6.497   4.199   4.185 -3.0096  1.0173 -2.2147
 9533TIP3    H250091   6.432   4.331   4.221  1.4483  2.7114  0.0445
 9534TIP3   OH250092   6.247   5.241   5.728 -0.2238  0.1679  0.0684
 9534TIP3    H150093   6.270   5.152   5.701  1.3615  0.5908 -0.0381
 9534TIP3    H250094   6.153   5.246   5.715 -0.4350 -1.6901  0.6435
 9535TIP3   OH250095   0.303   1.723  12.680  0.1583  0.3558 -0.4864
 9535TIP3    H150096   0.393   1.692  12.688  0.3085  0.8311 -0.2592
 9535TIP3    H250097   0.289   1.775  12.760 -0.6312 -0.4998 -0.0678
 9536TIP3   OH250098   3.135   3.387   2.173  0.0652  0.4086 -0.2728
 9536TIP3    H150099   3.147   3.292   2.181 -2.4979 -0.0106 -0.9798
 9536TIP3    H250100   3.114   3.416   2.262  1.6839  0.4769  0.1093
 9537TIP3   OH250101   4.770   0.411   4.209 -0.3612 -0.2039 -0.2657
 9537TIP3    H150102   4.755   0.326   4.168 -0.0961 -0.2803 -0.2084
 9537TIP3    H250103   4.728   0.473   4.150 -0.8962 -0.4120 -0.1026
 9538TIP3   OH250104   4.029   3.840  16.523  0.5075 -0.3936 -0.1700
 9538TIP3    H150105   4.048   3.752  16.490  1.1398 -0.5290  0.5261
 9538TIP3    H250106   4.090   3.897  16.475  2.2056 -0.7318  1.5233
 9539TIP3   OH250107   2.999   2.808  13.864 -0.4818  0.5408  0.1548
 9539TIP3    H150108   2.956   2.889  13.839 -2.0508 -0.2174  0.3299
 9539TIP3    H250109   2.984   2.801  13.958  0.7497  0.6805  0.3684
 9540TIP3   OH250110   3.626   3.368   5.036 -0.1315  0.2313  0.6549
 9540TIP3    H150111   3.708   3.322   5.055 -0.3366 -0.5518 -0.3401
 9540TIP3    H250112   3.584   3.316   4.967 -1.0285  1.1393  0.5024
 9541TIP3   OH250113   2.722   4.823  11.609 -0.0589 -0.1232 -0.4729
 9541TIP3    H150114   2.654   4.793  11.669  0.1805 -0.0996 -0.1866
 9541TIP3    H250115   2.802   4.821  11.662  0.3831 -1.4120 -1.1775
 9542TIP3   OH250116   0.361   5.893  10.826  0.9400  0.1184  0.8272
 9542TIP3    H150117   0.440   5.930  10.787 -0.5092  0.8253 -1.5755
 9542TIP3    H250118   0.290   5.927  10.772 -0.7686 -2.9999  1.0204
 9543TIP3   OH250119   0.943   3.246   2.018  0.0916  0.5515  0.6112
 9543TIP3    H150120   0.902   3.167   1.983  1.5080 -0.8940  2.1243
 9543TIP3    H250121   0.884   3.275   2.088 -1.1568  1.6762 -0.8793
 9544TIP3   OH250122   6.328   3.863   4.454  0.1376 -0.6814 -0.3668
 9544TIP3    H150123   6.314   3.948   4.496 -0.9362  0.3010 -2.6301
 9544TIP3    H250124   6.242   3.840   4.419  0.3429 -2.8919  0.5137
 9545TIP3   OH250125   6.294   4.713   3.257 -0.0800 -0.2487  0.0684
 9545TIP3    H150126   6.240   4.747   3.328  2.0764  0.8865  1.2174
 9545TIP3    H250127   6.265   4.622   3.246 -2.0589  0.2671  0.7588
 9546TIP3   OH250128   3.945   6.610  12.434 -0.2567  0.6329  0.1538
 9546TIP3    H150129   4.039   6.611  12.420 -0.0780  1.5810  1.3424
 9546TIP3    H250130   3.931   6.554  12.510 -0.4845  1.8638  1.0343
 9547TIP3   OH250131   5.204   5.250   0.459 -0.3090  0.1308 -0.2748
 9547TIP3    H150132   5.235   5.290   0.378  3.5873  0.2088  1.1564
 9547TIP3    H250133   5.258   5.290   0.527 -2.5865 -0.9398  2.2230
 9548TIP3   OH250134   3.623   5.385  13.814 -0.3904  1.5418  0.0310
 9548TIP3    H150135   3.551   5.345  13.862 -1.2204  1.7105 -1.0423
 9548TIP3    H250136   3.601   5.478  13.810  1.8049  2.2580  3.0004
 9549TIP3   OH250137   1.538   3.871  17.286 -0.0445  0.1055 -0.0826
 9549TIP3    H150138   1.576   3.877  17.199  1.8845 -0.1784  0.7169
 9549TIP3    H250139   1.526   3.777  17.300 -1.5926  0.2159 -0.5430
 9550TIP3   OH250140   1.710   1.293  16.433  0.4579 -0.2973  0.1761
 9550TIP3    H150141   1.726   1.200  16.450 -0.7456 -0.4265  0.6222
 9550TIP3    H250142   1.621   1.308  16.463  0.7934  1.1069  0.4947
 9551TIP3   OH250143   1.214   5.134   5.921 -0.2879  0.2463 -0.2492
 9551TIP3    H150144   1.288   5.073   5.915 -0.4892 -0.0083 -0.1517
 9551TIP3    H250145   1.154   5.092   5.983 -0.1909  0.7888  0.2115
 9552TIP3   OH250146   4.922   2.273  14.275 -0.0198  0.8249 -0.3197
 9552TIP3    H150147   4.900   2.353  14.227 -0.5512  0.1693 -1.1970
 9552TIP3    H250148   4.964   2.304  14.355 -0.2936  1.9840 -0.6070
 9553TIP3   OH250149   4.580   0.010  12.888  0.4451 -0.1226  0.0437
 9553TIP3    H150150   4.590   0.068  12.964  2.3297 -0.7643  0.3088
 9553TIP3    H250151   4.500  -0.039  12.906 -0.7519  1.8180  0.1935
 9554TIP3   OH250152   1.818   3.478   0.547 -0.1337 -0.4369 -0.1472
 9554TIP3    H150153   1.837   3.495   0.639 -1.4583 -2.2890  0.4955
 9554TIP3    H250154   1.870   3.543   0.500  0.3054  0.7589  1.9074
 9555TIP3   OH250155   3.771   2.497  14.416  0.0025 -0.2278  0.5024
 9555TIP3    H150156   3.710   2.511  14.488 -1.9490  0.9251 -1.3316
 9555TIP3    H250157   3.716   2.484  14.339  2.0622  1.7607 -1.3761
 9556TIP3   OH250158   0.998   1.968  13.593  0.7751  0.2125  0.0551
 9556TIP3    H150159   1.038   1.881  13.584 -0.0053 -0.0132 -1.4745
 9556TIP3    H250160   0.998   2.004  13.505  0.2962  1.4152  0.5317
 9557TIP3   OH250161   1.751   3.938   3.202 -0.1252 -0.0049  0.2832
 9557TIP3    H150162   1.764   3.844   3.194  3.1667  0.3667  0.5532
 9557TIP3    H250163   1.687   3.947   3.273 -2.5799 -2.0593 -1.5594
 9558TIP3   OH250164   2.058   0.810   3.280 -0.5918 -0.4777 -0.5636
 9558TIP3    H150165   2.142   0.854   3.290 -1.3035  0.9539 -0.7915
 9558TIP3    H250166   2.068   0.728   3.328  0.4959  0.2628  0.4940
 9559TIP3   OH250167   4.738   3.033   4.368  0.5243  0.0783  0.1575
 9559TIP3    H150168   4.737   3.108   4.427 -0.3936  0.2203 -0.0232
 9559TIP3    H250169   4.651   2.993   4.378  1.1756 -1.2379  0.6007
 9560TIP3   OH250170   3.291   6.033   1.603  0.4726  0.0778  0.8616
 9560TIP3    H150171   3.333   6.104   1.554 -0.1497 -0.0389  0.1435
 9560TIP3    H250172   3.279   6.068   1.691  0.3656  0.7935  0.5700
 9561TIP3   OH250173   0.958   3.494   1.393 -0.2965 -0.1199  0.1260
 9561TIP3    H150174   0.882   3.536   1.353 -0.4530 -0.7947 -0.2851
 9561TIP3    H250175   0.936   3.401   1.397 -0.0399 -0.1385  1.2456
 9562TIP3   OH250176   5.646   5.618  12.743 -0.3263  0.7294  0.1065
 9562TIP3    H150177   5.607   5.698  12.778  0.5108  1.2102 -0.0211
 9562TIP3    H250178   5.724   5.605  12.797 -0.0335  0.4431 -0.3865
 9563TIP3   OH250179   3.053   2.945   2.167 -0.5190  0.6685 -0.1838
 9563TIP3    H150180   3.114   2.882   2.206 -1.3583  0.6139  1.0761
 9563TIP3    H250181   2.981   2.950   2.230 -2.6363 -0.5543 -2.4261
 9564TIP3   OH250182   3.526   4.585  13.830  0.2337  0.4332  0.7055
 9564TIP3    H150183   3.561   4.505  13.790 -1.9892  1.3301 -3.2860
 9564TIP3    H250184   3.442   4.559  13.867 -1.1988  1.1900 -1.9403
 9565TIP3   OH250185   3.825   1.419   2.481  0.3355 -0.7726 -1.2197
 9565TIP3    H150186   3.918   1.413   2.501 -0.1004  0.1815  1.3274
 9565TIP3    H250187   3.783   1.362   2.546 -1.0787  1.5715 -0.0086
 9566TIP3   OH250188   6.133   6.624   1.969  0.7599  0.2073  0.8113
 9566TIP3    H150189   6.098   6.535   1.956 -0.8191  0.8366  0.5619
 9566TIP3    H250190   6.226   6.616   1.952  0.2412 -0.8956 -1.7035
 9567TIP3   OH250191   3.615   3.926   2.111 -0.1736 -0.3281 -0.0633
 9567TIP3    H150192   3.573   3.915   2.196 -0.1287  1.7206  0.2640
 9567TIP3    H250193   3.708   3.914   2.129 -0.0150  1.4764  0.4942
 9568TIP3   OH250194   5.310   4.073  15.307  0.1147 -0.6153 -0.0036
 9568TIP3    H150195   5.335   4.139  15.372  2.2586 -1.7075  0.3223
 9568TIP3    H250196   5.287   4.124  15.230 -1.3268  0.6463  1.2170
 9569TIP3   OH250197   0.645   5.449   6.176 -0.2786 -0.6662  0.2506
 9569TIP3    H150198   0.623   5.527   6.228 -1.7675 -1.5966  1.0488
 9569TIP3    H250199   0.692   5.483   6.101  1.4418  0.7689  1.9313
 9570TIP3   OH250200   6.487   0.262  14.356 -0.3641 -0.4380 -0.9631
 9570TIP3    H150201   6.494   0.189  14.294  1.5917 -0.8604 -0.3011
 9570TIP3    H250202   6.471   0.219  14.441 -0.3291 -0.0373 -0.7539
 9571TIP3   OH250203   1.807   5.534   3.544  0.3324  0.3301 -0.0756
 9571TIP3    H150204   1.731   5.551   3.600  1.8338  1.7874  1.5628
 9571TIP3    H250205   1.820   5.616   3.496  0.3901 -0.1840 -0.9379
 9572TIP3   OH250206   1.744   1.650  14.750  0.6841 -0.3265  0.3151
 9572TIP3    H150207   1.728   1.730  14.700  2.1126 -2.0424 -3.0224
 9572TIP3    H250208   1.839   1.645  14.758  0.5215 -0.7010  2.2524
 9573TIP3   OH250209   3.328   0.327   2.456 -0.4430 -0.2581 -0.3324
 9573TIP3    H150210   3.301   0.274   2.381  1.8681 -1.4609 -0.3667
 9573TIP3    H250211   3.399   0.382   2.423 -0.9170  0.8185  0.4222
 9574TIP3   OH250212   2.968   5.812   1.670  0.1794  0.4606  0.0924
 9574TIP3    H150213   2.976   5.743   1.605  3.0941  0.4300  0.4380
 9574TIP3    H250214   2.984   5.893   1.620  0.8480  0.5527  0.4483
 9575TIP3   OH250215   1.252   1.617   1.725  0.2992  0.4773  0.0585
 9575TIP3    H150216   1.180   1.558   1.702  0.1067  0.5113  0.5716
 9575TIP3    H250217   1.288   1.645   1.641 -0.8226  1.1163 -0.2124
 9576TIP3   OH250218   5.241   2.507   3.915  0.1639 -0.5449  0.1133
 9576TIP3    H150219   5.241   2.424   3.869  1.0699 -0.3244 -0.2970
 9576TIP3    H250220   5.204   2.570   3.853  1.9054 -0.1362 -0.5566
 9577TIP3   OH250221   4.567   4.087   0.902  0.8016 -0.2791 -0.3890
 9577TIP3    H150222   4.496   4.146   0.929  0.6239 -0.6048 -0.1390
 9577TIP3    H250223   4.568   4.019   0.969  2.3138  0.5018  0.4225
 9578TIP3   OH250224   1.560   4.463  14.584 -0.2934 -0.2092 -0.3252
 9578TIP3    H150225   1.648   4.450  14.548  0.1532 -1.8324  1.2716
 9578TIP3    H250226   1.531   4.545  14.546  1.7841  0.1871 -1.1550
 9579TIP3   OH250227   3.086   0.569   3.113 -0.6066  0.1463 -0.3413
 9579TIP3    H150228   3.002   0.533   3.086 -0.3795  0.3101 -1.2726
 9579TIP3    H250229   3.151   0.517   3.066 -0.2424  1.1039 -0.9083
 9580TIP3   OH250230   6.316   1.996  15.062 -0.1911 -0.6281 -0.0156
 9580TIP3    H150231   6.393   2.041  15.096 -0.1560 -0.4155 -0.3786
 9580TIP3    H250232   6.274   2.059  15.004 -0.9448 -0.5481  0.6099
 9581TIP3   OH250233   4.367   5.986  16.565 -0.1092  0.1650 -0.0122
 9581TIP3    H150234   4.388   5.905  16.517  2.8960  1.7610 -1.5288
 9581TIP3    H250235   4.360   5.958  16.656  1.0591 -1.8203 -0.4846
 9582TIP3   OH250236   2.528   4.099   1.292  0.7098 -0.1986 -0.4193
 9582TIP3    H150237   2.597   4.166   1.299  0.5995 -0.0589 -0.6808
 9582TIP3    H250238   2.576   4.019   1.270  0.9964 -0.5079  1.2635
 9583TIP3   OH250239   6.490   1.581   1.180 -0.3344 -0.1628  0.2001
 9583TIP3    H150240   6.484   1.654   1.242  0.4798 -1.9485  2.4932
 9583TIP3    H250241   6.571   1.597   1.132 -0.0384  0.3523  0.8564
 9584TIP3   OH250242   5.575   0.254   4.084 -0.4054  0.2007 -0.4189
 9584TIP3    H150243   5.530   0.336   4.103 -0.5900  0.1165 -0.4923
 9584TIP3    H250244   5.645   0.278   4.023 -2.3255 -0.1693 -2.8088
 9585TIP3   OH250245   3.589   5.204   2.220 -0.4033 -0.2869 -0.1089
 9585TIP3    H150246   3.511   5.258   2.232 -1.6998 -2.1132 -0.0671
 9585TIP3    H250247   3.610   5.214   2.127  0.3298  1.5287  0.2314
 9586TIP3   OH250248   5.537   0.131  16.567  0.2324 -0.1036 -0.0522
 9586TIP3    H150249   5.612   0.083  16.531 -0.1665  0.9724 -2.3654
 9586TIP3    H250250   5.555   0.223  16.548 -0.8405  0.3291  0.9650
 9587TIP3   OH250251   0.643   1.814  17.236  0.4541 -0.2851 -0.1201
 9587TIP3    H150252   0.594   1.877  17.288 -1.8813 -2.2394  0.1652
 9587TIP3    H250253   0.689   1.760  17.301 -0.0690 -0.8248 -0.1873
 9588TIP3   OH250254   3.813   3.999  16.550 -0.2485  0.1891 -0.0560
 9588TIP3    H150255   3.869   3.922  16.556 -0.9272 -0.3133 -0.1516
 9588TIP3    H250256   3.874   4.071  16.534  0.4075 -0.2923  0.2567
 9589TIP3   OH250257   2.493   0.880   2.209  0.1034  0.1449  0.1950
 9589TIP3    H150258   2.492   0.817   2.281  0.1312 -0.4672 -0.3423
 9589TIP3    H250259   2.586   0.902   2.198  0.2529 -0.8030 -0.5538
 9590TIP3   OH250260   1.866   6.738  16.756 -0.4447  0.6551 -0.0816
 9590TIP3    H150261   1.869   6.766  16.847 -0.3994 -2.1043  0.8363
 9590TIP3    H250262   1.957   6.746  16.726 -0.0344 -0.3858  0.8072
 9591TIP3   OH250263   4.996   3.058  11.746  0.4822 -0.2306 -0.5209
 9591TIP3    H150264   5.046   3.082  11.667  0.7359  1.6170  0.1707
 9591TIP3    H250265   5.044   2.985  11.783  0.9764 -0.4196 -1.5052
 9592TIP3   OH250266   3.400   0.624  12.099  0.2933 -0.1950 -0.1708
 9592TIP3    H150267   3.451   0.557  12.144 -0.4254 -0.8298 -0.3043
 9592TIP3    H250268   3.328   0.577  12.057 -1.1389  0.8295  1.0527
 9593TIP3   OH250269   6.292   4.313   0.716  0.2245 -0.3917 -0.6954
 9593TIP3    H150270   6.345   4.387   0.746 -0.8758  0.2667 -0.3354
 9593TIP3    H250271   6.226   4.352   0.658 -0.6779 -1.0110 -0.1044
 9594TIP3   OH250272   5.636   5.171   1.449 -0.4635  0.0272  0.5487
 9594TIP3    H150273   5.666   5.250   1.495  0.9942  0.2925 -0.8235
 9594TIP3    H250274   5.606   5.203   1.364  0.8094 -0.9631 -0.2935
 9595TIP3   OH250275   6.547   5.058  15.398  0.6192  0.2272 -0.1734
 9595TIP3    H150276   6.527   5.032  15.487 -0.9517  1.5586 -0.1020
 9595TIP3    H250277   6.462   5.081  15.360  1.4384  1.1701 -1.4996
 9596TIP3   OH250278   2.820   0.304  13.432 -0.3943  0.1315 -0.0722
 9596TIP3    H150279   2.762   0.287  13.506  1.3479 -0.4210  1.2082
 9596TIP3    H250280   2.803   0.233  13.370 -0.4091 -0.5540  0.7210
 9597TIP3   OH250281   2.685   5.685   4.913 -0.2415 -0.5283 -0.0093
 9597TIP3    H150282   2.629   5.755   4.947 -0.3398  0.6399 -2.4377
 9597TIP3    H250283   2.643   5.658   4.832  1.0363 -1.8345 -0.2573
 9598TIP3   OH250284   1.916   0.921   3.056 -0.2079  0.1882 -0.3480
 9598TIP3    H150285   1.958   0.895   3.138  0.0461  0.1516 -0.4916
 9598TIP3    H250286   1.852   0.852   3.039  0.5527 -0.4139 -0.7966
 9599TIP3   OH250287   3.956   5.795   5.884  0.0771  0.1057  0.3585
 9599TIP3    H150288   3.962   5.855   5.958  1.9274  2.0983 -1.3233
 9599TIP3    H250289   3.929   5.850   5.810  1.3319 -1.1997 -1.1219
 9600TIP3   OH250290   0.174   2.900  11.360  0.1207 -0.5768  0.1645
 9600TIP3    H150291   0.097   2.942  11.399  0.9751  0.4353  0.7751
 9600TIP3    H250292   0.177   2.933  11.270  0.2972  0.0098  0.3833
 9601TIP3   OH250293   5.533   4.748  15.265  0.5085 -0.2648  0.2629
 9601TIP3    H150294   5.559   4.830  15.306 -1.2986  1.2661 -1.5573
 9601TIP3    H250295   5.438   4.755  15.257  0.5011 -1.9188 -1.2494
 9602TIP3   OH250296   5.283   3.585   2.443 -0.5323  0.5137  0.3718
 9602TIP3    H150297   5.263   3.653   2.379 -1.4660  0.1708  0.2803
 9602TIP3    H250298   5.375   3.564   2.429 -0.5534  0.9229 -0.3909
 9603TIP3   OH250299   5.499   3.163   4.591 -0.1567  0.2972 -0.5811
 9603TIP3    H150300   5.461   3.238   4.544 -0.5748  0.2475 -0.3159
 9603TIP3    H250301   5.583   3.149   4.547 -0.9299 -0.3177 -1.9123
 9604TIP3   OH250302   1.911   5.846  15.501  0.3769  0.1990  0.0493
 9604TIP3    H150303   1.981   5.890  15.550 -0.9341  1.6015  0.6933
 9604TIP3    H250304   1.864   5.795  15.566  0.7731 -0.7355 -0.3834
 9605TIP3   OH250305   0.832   2.655  12.443  0.4737  0.4099 -0.1805
 9605TIP3    H150306   0.786   2.725  12.397  0.4328  0.0057 -0.7539
 9605TIP3    H250307   0.764   2.591  12.464  0.4162  0.7864  0.8187
 9606TIP3   OH250308   5.774   5.927   4.299  0.4765  0.2555 -0.4262
 9606TIP3    H150309   5.742   5.880   4.222  1.6170  1.0938 -1.4234
 9606TIP3    H250310   5.725   6.009   4.299  0.0732  0.0216  0.0749
 9607TIP3   OH250311   0.352   6.315  13.347  0.0866 -0.7072 -0.4183
 9607TIP3    H150312   0.359   6.279  13.435  2.4072  0.7556  0.0555
 9607TIP3    H250313   0.423   6.272  13.298 -1.8027 -2.2543 -1.8810
 9608TIP3   OH250314   0.833   3.152   6.755  0.2021  0.9599  0.6471
 9608TIP3    H150315   0.860   3.079   6.700 -0.6784  1.1620 -0.0616
 9608TIP3    H250316   0.915   3.189   6.788  0.6270 -1.3489  2.3378
 9609TIP3   OH250317   3.813   0.265  12.198 -0.2776  0.3387  0.1761
 9609TIP3    H150318   3.817   0.194  12.262 -0.5008 -0.0727 -0.2645
 9609TIP3    H250319   3.894   0.257  12.148  1.0136  2.0890  1.8996
 9610TIP3   OH250320   2.176   1.182   2.808 -0.5541  0.3297 -0.4029
 9610TIP3    H150321   2.150   1.269   2.838 -1.2260  0.0837 -0.2796
 9610TIP3    H250322   2.222   1.198   2.725  0.7737  0.9493  0.4377
 9611TIP3   OH250323   5.515   4.342  16.263 -0.2682  0.1943  0.5364
 9611TIP3    H150324   5.541   4.388  16.183 -0.1263 -0.4385  0.2176
 9611TIP3    H250325   5.445   4.396  16.300  0.2179  0.9149  0.4123
 9612TIP3   OH250326   3.535   5.058  16.214 -0.0169 -0.2970  0.0710
 9612TIP3    H150327   3.441   5.050  16.232 -0.1104  0.9648  0.2086
 9612TIP3    H250328   3.540   5.071  16.120  0.1150 -1.6570 -0.1174
 9613TIP3   OH250329   1.079   2.060  11.547 -0.4459 -0.4061  0.0487
 9613TIP3    H150330   1.156   2.113  11.566 -0.8625  0.2678 -0.1316
 9613TIP3    H250331   1.072   2.061  11.452 -1.6859  0.9994  0.1349
 9614TIP3   OH250332   2.541   4.562  15.632 -0.2164 -0.3906  0.6903
 9614TIP3    H150333   2.590   4.495  15.585 -1.5857 -0.3140 -0.8805
 9614TIP3    H250334   2.475   4.592  15.570 -1.6817  0.1407  2.4580
 9615TIP3   OH250335   2.774   5.347  16.222 -0.0626 -0.0758  0.0337
 9615TIP3    H150336   2.772   5.441  16.201 -1.5704 -0.2229 -0.5767
 9615TIP3    H250337   2.825   5.341  16.303 -0.0436  1.2829  0.1299
 9616TIP3   OH250338   0.102   5.677  14.554  0.5226  0.0443 -0.4050
 9616TIP3    H150339   0.091   5.607  14.489 -0.3566  2.4556 -2.9374
 9616TIP3    H250340   0.195   5.674  14.576  0.7502 -1.0923 -1.4319
 9617TIP3   OH250341   1.522   4.537   5.475  0.7739  0.1521 -0.5163
 9617TIP3    H150342   1.507   4.590   5.553 -0.7349 -2.0115  0.7336
 9617TIP3    H250343   1.591   4.583   5.427  0.7525  2.2548  1.3873
 9618TIP3   OH250344   1.794   3.781   2.826  0.3664  0.2901 -0.0888
 9618TIP3    H150345   1.723   3.728   2.861  0.7034 -0.5137 -0.6191
 9618TIP3    H250346   1.845   3.721   2.772  0.3778  1.2993 -1.2221
 9619TIP3   OH250347   5.540   5.596   5.773  0.2025 -0.4897  0.2969
 9619TIP3    H150348   5.570   5.650   5.846 -1.1258 -2.0293  2.0281
 9619TIP3    H250349   5.453   5.628   5.753  0.4163 -0.3192 -0.3696
 9620TIP3   OH250350   2.793   0.459   4.176  0.4969  0.3548  0.3475
 9620TIP3    H150351   2.883   0.482   4.199  0.3338 -0.6877  2.0795
 9620TIP3    H250352   2.745   0.464   4.258 -1.0047  0.7071 -0.5228
 9621TIP3   OH250353   6.452   2.557   1.577 -0.1520 -0.0539  0.6024
 9621TIP3    H150354   6.380   2.542   1.639  0.1122  0.5251  1.0473
 9621TIP3    H250355   6.524   2.504   1.610 -0.6863 -1.4710 -0.4246
 9622TIP3   OH250356   0.310   5.394   2.675  0.0413  0.7003  0.1599
 9622TIP3    H150357   0.386   5.339   2.658  1.2597  1.7433  2.1294
 9622TIP3    H250358   0.240   5.355   2.622  1.3352 -1.6439  0.1335
 9623TIP3   OH250359   3.688   1.375   1.437  0.5705 -0.2531 -0.2496
 9623TIP3    H150360   3.734   1.444   1.487  0.2936  0.1296 -0.5216
 9623TIP3    H250361   3.613   1.420   1.399  0.0495 -0.8514  0.0714
 9624TIP3   OH250362   4.815   6.800   3.701  0.5551  0.2673 -0.4273
 9624TIP3    H150363   4.752   6.869   3.681 -0.2560  0.4671  2.6242
 9624TIP3    H250364   4.892   6.845   3.734  0.4473 -0.2046  0.4966
 9625TIP3   OH250365   3.172   4.037   5.791  0.4002 -0.4383  0.1808
 9625TIP3    H150366   3.173   3.952   5.834  0.8931  0.2204  1.4991
 9625TIP3    H250367   3.165   4.100   5.863 -1.8127  0.5695 -0.8814
 9626TIP3   OH250368   1.774   2.383   5.208  0.3264  0.3689 -0.4162
 9626TIP3    H150369   1.759   2.447   5.138 -0.7268 -0.0775 -0.6068
 9626TIP3    H250370   1.817   2.309   5.163 -0.0833  0.2030 -0.5344
 9627TIP3   OH250371   2.021   5.757   3.689 -0.4816 -0.5127 -0.1149
 9627TIP3    H150372   1.982   5.777   3.605  0.9009  0.6727 -0.5012
 9627TIP3    H250373   1.948   5.733   3.745 -1.6646  0.9795 -1.0039
 9628TIP3   OH250374   4.291   2.871   1.064 -0.4178  0.1719 -0.4724
 9628TIP3    H150375   4.333   2.922   1.133  0.1672  0.0295 -0.7233
 9628TIP3    H250376   4.313   2.917   0.983 -0.3090 -0.1895 -0.6513
 9629TIP3   OH250377   3.238   0.039   1.542  0.1937  0.1816  0.3003
 9629TIP3    H150378   3.265  -0.052   1.554  2.4246  1.0690  2.4363
 9629TIP3    H250379   3.302   0.076   1.481 -0.5568  0.4010 -0.3632
 9630TIP3   OH250380   2.651   6.503   1.835  0.4874  0.3198 -0.4893
 9630TIP3    H150381   2.721   6.555   1.795  0.3777  0.4516 -0.5068
 9630TIP3    H250382   2.612   6.561   1.900  2.0419 -0.5788  1.3143
 9631TIP3   OH250383   4.990   1.162   1.218 -0.2525  0.5589 -0.2322
 9631TIP3    H150384   5.035   1.244   1.238  2.7546 -1.5104  1.8896
 9631TIP3    H250385   5.029   1.133   1.135 -1.3597  1.2412 -1.0149
 9632TIP3   OH250386   0.240   2.955  13.579 -0.8579 -0.0878  0.6085
 9632TIP3    H150387   0.319   2.902  13.564  0.9792  2.2634  1.6041
 9632TIP3    H250388   0.191   2.948  13.497  1.4865  0.1685 -0.8852
 9633TIP3   OH250389   0.458   5.641   5.419  0.0476 -0.1666 -0.4689
 9633TIP3    H150390   0.494   5.726   5.444 -0.7796  0.4867 -1.4736
 9633TIP3    H250391   0.367   5.645   5.447 -0.2497 -0.3431 -1.4071
 9634TIP3   OH250392   1.969   3.754  10.685  0.5639 -0.6471 -0.1230
 9634TIP3    H150393   1.927   3.831  10.723  1.1212 -1.4110  2.0863
 9634TIP3    H250394   2.062   3.777  10.680  0.4992 -0.5599 -1.0380
 9635TIP3   OH250395   2.696   3.066  12.376  0.1974 -0.3910  0.2948
 9635TIP3    H150396   2.722   3.149  12.336 -1.1945 -0.9358 -1.8085
 9635TIP3    H250397   2.758   3.054  12.448 -0.4605  3.1912  1.5822
 9636TIP3   OH250398   4.706   5.469  14.264  0.6657 -0.0110  0.3812
 9636TIP3    H150399   4.689   5.535  14.197  0.3701 -0.4991 -0.0246
 9636TIP3    H250400   4.697   5.385  14.219 -1.1203 -0.3858  1.3766
 9637TIP3   OH250401   3.811   3.745  16.264  0.6819  0.9895  0.2104
 9637TIP3    H150402   3.903   3.766  16.246  1.1439  1.2951  2.7204
 9637TIP3    H250403   3.811   3.652  16.284  0.0319  0.4502 -2.2098
 9638TIP3   OH250404   1.013   1.322   3.148  0.7235 -0.0461 -0.3345
 9638TIP3    H150405   1.107   1.313   3.133  0.3429 -1.8937 -1.8050
 9638TIP3    H250406   0.976   1.238   3.119 -1.1058 -0.3012  2.5221
 9639TIP3   OH250407   3.248   1.155   3.628  0.4372  0.1040 -0.6550
 9639TIP3    H150408   3.203   1.229   3.586  1.1041 -0.2141 -1.9642
 9639TIP3    H250409   3.340   1.182   3.631  0.5122 -0.2054 -0.0961
 9640TIP3   OH250410   6.536   4.226   1.757  0.4771  0.6427 -0.3392
 9640TIP3    H150411   6.543   4.237   1.852 -0.9380 -1.5782  0.0497
 9640TIP3    H250412   6.500   4.138   1.745  2.1507  0.2631 -2.9888
 9641TIP3   OH250413   4.287   5.451   3.195  0.3877 -0.0501  0.0505
 9641TIP3    H150414   4.341   5.504   3.254  0.2342  0.2420 -0.0735
 9641TIP3    H250415   4.211   5.505   3.175  0.9954  0.3181 -1.3465
 9642TIP3   OH250416   4.995   6.715   1.434 -0.3234 -0.1272  0.1631
 9642TIP3    H150417   4.955   6.635   1.466 -0.0727 -0.4322 -0.2864
 9642TIP3    H250418   5.008   6.769   1.513 -1.5510 -0.0488  0.3205
 9643TIP3   OH250419   2.522   4.800  16.046 -0.1764  0.3021  0.5721
 9643TIP3    H150420   2.577   4.847  15.983 -1.3294  0.6612 -0.1883
 9643TIP3    H250421   2.478   4.733  15.993 -1.3837  0.8035  0.9321
 9644TIP3   OH250422   1.790   0.074  16.525 -0.0657  0.3910 -0.4105
 9644TIP3    H150423   1.776   0.104  16.614  0.1859  1.3352 -0.6927
 9644TIP3    H250424   1.790   0.153  16.472 -2.4538 -0.3057 -1.5429
 9645TIP3   OH250425   6.087   1.971  15.222 -0.7637  0.0335 -0.0408
 9645TIP3    H150426   6.149   1.965  15.150 -0.9390 -2.7877 -0.0347
 9645TIP3    H250427   6.004   1.994  15.182 -0.6377 -0.5180 -0.6231
 9646TIP3   OH250428   4.590   3.103   5.711  0.0200  0.0822 -0.4932
 9646TIP3    H150429   4.565   3.176   5.654  3.5715  0.8505 -1.1898
 9646TIP3    H250430   4.619   3.034   5.651  0.5558 -0.3576  0.2570
 9647TIP3   OH250431   0.983   2.281   1.404 -0.0354 -0.2421  0.3466
 9647TIP3    H150432   0.897   2.317   1.429 -1.3551 -1.5839 -2.0752
 9647TIP3    H250433   1.044   2.353   1.419 -2.5776  3.1952 -4.3493
 9648TIP3   OH250434   5.193   5.006   2.342 -0.1060  0.3295  0.2335
 9648TIP3    H150435   5.272   4.998   2.395  0.6143 -0.6954 -0.9674
 9648TIP3    H250436   5.224   5.004   2.252 -1.4336  0.7345 -0.2557
 9649TIP3   OH250437   5.562   3.929  11.418  0.6816 -0.1400 -0.0464
 9649TIP3    H150438   5.598   3.863  11.359  0.4453  0.3414 -0.7322
 9649TIP3    H250439   5.471   3.902  11.432  0.5509  0.1135 -0.4224
 9650TIP3   OH250440   2.802   0.711   1.331  0.2789 -0.5947  0.0680
 9650TIP3    H150441   2.801   0.725   1.236  1.2355 -1.7655 -0.1220
 9650TIP3    H250442   2.727   0.653   1.347  0.4106 -0.8011 -0.0500
 9651TIP3   OH250443   5.106   1.908   3.839 -0.2305 -0.1893  0.3503
 9651TIP3    H150444   5.195   1.926   3.809 -0.0221 -1.5623  0.0740
 9651TIP3    H250445   5.097   1.955   3.921  0.3513  0.8984 -0.1984
 9652TIP3   OH250446   5.374   6.495   4.215  0.4157  0.0632 -0.2385
 9652TIP3    H150447   5.451   6.441   4.196  0.0146 -0.2163 -1.1004
 9652TIP3    H250448   5.300   6.441   4.187 -0.0461  0.6951 -0.2415
 9653TIP3   OH250449   1.697   2.124   0.772 -0.1862 -0.0577  0.0147
 9653TIP3    H150450   1.711   2.040   0.815 -0.3696 -0.5940 -0.9662
 9653TIP3    H250451   1.765   2.181   0.808 -0.5926 -0.3782  1.3113
 9654TIP3   OH250452   4.112   2.829   1.572  0.5874 -0.2302  0.2168
 9654TIP3    H150453   4.168   2.784   1.509 -0.4562  0.7760 -1.4731
 9654TIP3    H250454   4.158   2.911   1.591 -0.2329  0.5418 -1.0790
 9655TIP3   OH250455   1.554   0.590   1.161 -0.2381  0.9542 -0.2213
 9655TIP3    H150456   1.508   0.553   1.236 -1.0575  1.1717 -0.6107
 9655TIP3    H250457   1.613   0.656   1.200  0.5718 -0.1089  0.3790
 9656TIP3   OH250458   0.093   2.709  14.736  0.0472  0.0186  0.4675
 9656TIP3    H150459   0.059   2.712  14.826 -0.7363  1.6922  0.1345
 9656TIP3    H250460   0.026   2.663  14.686 -0.8077  1.4711  0.2301
 9657TIP3   OH250461   0.255   3.229   1.141  0.0136 -0.0645 -0.4532
 9657TIP3    H150462   0.229   3.184   1.061 -0.4719  0.1032 -0.3902
 9657TIP3    H250463   0.332   3.280   1.117  0.1355 -0.3664 -0.7015
 9658TIP3   OH250464   5.162   0.220  15.962 -0.0119 -0.0966 -0.2030
 9658TIP3    H150465   5.089   0.272  15.996  0.9606  0.8164  0.4943
 9658TIP3    H250466   5.120   0.148  15.915 -1.3649  0.5421  0.0128
 9659TIP3   OH250467   6.576   0.814  17.059 -0.1094 -0.3238 -0.0864
 9659TIP3    H150468   6.487   0.830  17.092 -0.9872 -1.1130 -2.0279
 9659TIP3    H250469   6.621   0.898  17.073 -1.1809  0.1335  0.7724
 9660TIP3   OH250470   0.449   2.217   1.370 -0.0798 -0.3196  0.0061
 9660TIP3    H150471   0.357   2.222   1.346 -0.1006 -0.7088  0.0029
 9660TIP3    H250472   0.496   2.243   1.291 -0.1603 -1.1451 -0.3084
 9661TIP3   OH250473   2.365   1.928  14.260  0.1363 -0.5437  0.4548
 9661TIP3    H150474   2.435   1.863  14.265  0.7367  0.1997  1.9369
 9661TIP3    H250475   2.398   1.994  14.199  0.1641 -0.8455  0.1372
 9662TIP3   OH250476   2.296   6.614  11.914  0.5642  0.1796  0.0862
 9662TIP3    H150477   2.356   6.540  11.901 -0.4029 -0.4383 -1.0006
 9662TIP3    H250478   2.285   6.619  12.009  2.1790  0.1843  0.2930
 9663TIP3   OH250479   4.152   1.135   0.957 -0.6347  0.2213 -0.3777
 9663TIP3    H150480   4.232   1.098   0.920 -0.3566  0.8721 -0.4475
 9663TIP3    H250481   4.081   1.094   0.909 -0.3965 -1.3764  0.6025
 9664TIP3   OH250482   2.895   0.249  15.368 -0.3728 -0.1584 -0.0490
 9664TIP3    H150483   2.831   0.262  15.438  0.6284 -0.5686  0.9584
 9664TIP3    H250484   2.892   0.330  15.318  1.9063  1.9303  2.9641
 9665TIP3   OH250485   0.910   0.787  16.242  0.4378  0.5118  0.3071
 9665TIP3    H150486   0.997   0.802  16.279  0.4492  0.3003  0.3647
 9665TIP3    H250487   0.903   0.692  16.234 -0.0473  0.4941  0.9312
 9666TIP3   OH250488   2.469   3.508  11.255 -0.0459 -0.1489  0.1028
 9666TIP3    H150489   2.426   3.434  11.296  0.7831  0.4981  2.1867
 9666TIP3    H250490   2.540   3.469  11.204 -1.2731 -0.9773 -0.9967
 9667TIP3   OH250491   2.117   1.355   2.402 -0.3887  0.8054 -0.0893
 9667TIP3    H150492   2.111   1.301   2.323 -2.2698  0.7437  0.0817
 9667TIP3    H250493   2.096   1.443   2.373 -0.0544  0.9716  0.1627
 9668TIP3   OH250494   5.070   6.221   5.509  0.1013  0.5851 -0.1353
 9668TIP3    H150495   5.004   6.270   5.460  0.4298 -0.0371 -1.2227
 9668TIP3    H250496   5.133   6.194   5.443  1.1676  0.7122  0.8183
 9669TIP3   OH250497   1.067   0.997   5.525  0.1411  0.2954  0.0710
 9669TIP3    H150498   1.129   0.925   5.517  1.9054  1.9038 -1.1354
 9669TIP3    H250499   1.009   0.988   5.449  2.9518  2.4877 -2.4723
 9670TIP3   OH250500   2.817   3.305  15.571 -0.0762 -0.2439  0.2613
 9670TIP3    H150501   2.820   3.278  15.663 -0.4670  1.4132  0.7799
 9670TIP3    H250502   2.892   3.363  15.560  0.4170 -1.0408 -0.6812
 9671TIP3   OH250503   5.441   5.750  15.872  0.1266 -0.2905  0.2929
 9671TIP3    H150504   5.490   5.818  15.919  0.6093 -1.0525  0.9040
 9671TIP3    H250505   5.362   5.738  15.923  1.0586 -1.7489  1.4254
 9672TIP3   OH250506   6.062   4.842  13.319 -0.6322 -0.6607  0.1264
 9672TIP3    H150507   6.153   4.869  13.306 -0.1844 -2.3651 -0.5107
 9672TIP3    H250508   6.040   4.872  13.407  0.4272  0.0958  0.1422
 9673TIP3   OH250509   5.444   6.603   2.530 -0.1384 -0.4469 -0.4135
 9673TIP3    H150510   5.519   6.661   2.540  0.9722 -1.6043 -1.8984
 9673TIP3    H250511   5.368   6.659   2.545  1.0049  0.7489  1.0333
 9674TIP3   OH250512   3.697   6.373   4.001  0.0080 -0.0811  0.3543
 9674TIP3    H150513   3.787   6.341   3.998  0.1335  0.2167  0.8575
 9674TIP3    H250514   3.705   6.466   4.019 -0.3517  0.3494 -1.6160
 9675TIP3   OH250515   2.532   5.531   1.122 -0.7139  0.9610 -0.5581
 9675TIP3    H150516   2.618   5.570   1.110  0.4459 -0.6424  2.1125
 9675TIP3    H250517   2.530   5.458   1.059  0.2179  0.4732 -0.0230
 9676TIP3   OH250518   5.434   1.076   4.332  0.0341 -0.0808  0.1254
 9676TIP3    H150519   5.456   1.157   4.378 -1.4436 -0.0331  0.7593
 9676TIP3    H250520   5.361   1.039   4.381  0.6694 -1.7918 -0.1855
 9677TIP3   OH250521   0.250   3.966   3.823 -0.0106 -0.9451  0.2630
 9677TIP3    H150522   0.229   3.951   3.915 -0.9601  1.0116  0.3943
 9677TIP3    H250523   0.243   4.061   3.812  2.2131 -0.9401 -1.3324
 9678TIP3   OH250524   0.140   5.888   1.391  0.0495  0.0696 -0.1748
 9678TIP3    H150525   0.067   5.827   1.381  0.1806  0.1253 -1.6399
 9678TIP3    H250526   0.206   5.856   1.329  0.9045  0.5436  0.4868
 9679TIP3   OH250527   5.975   2.390  12.046 -0.1113  0.1234 -0.1135
 9679TIP3    H150528   5.976   2.483  12.025 -0.3907  0.4555  1.3168
 9679TIP3    H250529   5.895   2.357  12.005 -1.1040  0.9344  1.1415
 9680TIP3   OH250530   5.970   5.940  17.269  0.0478 -0.0045  0.5182
 9680TIP3    H150531   5.900   5.916  17.329  0.0461  1.2130  1.0200
 9680TIP3    H250532   6.044   5.960  17.325  1.1783 -2.3807 -0.0611
 9681TIP3   OH250533   5.239   4.059  12.651 -0.4790 -0.0573  0.3536
 9681TIP3    H150534   5.250   3.995  12.721 -0.9415 -1.7812 -1.0868
 9681TIP3    H250535   5.179   4.016  12.589 -0.9661  1.8633 -0.5494
 9682TIP3   OH250536   1.911   2.511  12.048  0.5153 -0.0806  0.1850
 9682TIP3    H150537   1.918   2.520  11.953  1.8569 -0.0027  0.2763
 9682TIP3    H250538   1.914   2.602  12.081  0.1702 -0.1130  0.3022
 9683TIP3   OH250539   1.019   0.874   3.741 -0.7120  0.3854  0.3708
 9683TIP3    H150540   1.085   0.805   3.734 -0.4598  0.6180  0.4269
 9683TIP3    H250541   1.028   0.907   3.830 -0.4264  0.8865  0.1616
 9684TIP3   OH250542   2.689   3.205  16.220 -0.2326  0.7375 -0.1030
 9684TIP3    H150543   2.637   3.127  16.201 -1.4370  1.4235  0.3652
 9684TIP3    H250544   2.756   3.176  16.282  0.4615 -0.3308 -1.3323
 9685TIP3   OH250545   0.308   4.545   4.916 -0.2793 -0.0631  0.4251
 9685TIP3    H150546   0.266   4.474   4.868 -1.9756 -0.0872  1.8921
 9685TIP3    H250547   0.331   4.507   5.000 -1.8160  1.2696  1.4848
 9686TIP3   OH250548   5.463   3.531   5.610 -0.5468 -0.2665  0.0280
 9686TIP3    H150549   5.414   3.609   5.585 -0.6718  0.0164  1.1352
 9686TIP3    H250550   5.509   3.556   5.690 -1.7737 -1.7866  1.2532
 9687TIP3   OH250551   5.322   3.161  16.280  0.2998 -0.5211  0.3002
 9687TIP3    H150552   5.368   3.145  16.363 -0.3826 -2.2382  0.3674
 9687TIP3    H250553   5.317   3.074  16.239 -0.9924  0.0165 -0.6902
 9688TIP3   OH250554   5.275   4.480   2.751  0.2025  0.1806  0.0833
 9688TIP3    H150555   5.221   4.499   2.674 -0.3237  2.1417  0.9020
 9688TIP3    H250556   5.351   4.435   2.716  0.2286  1.5154 -1.6694
 9689TIP3   OH250557   3.016   0.978  15.014 -0.1642  0.4209  0.1206
 9689TIP3    H150558   3.111   0.985  15.020 -0.1060  0.0998 -0.4201
 9689TIP3    H250559   2.983   1.054  15.062  0.3849  2.1168 -2.0953
 9690TIP3   OH250560   1.422   1.115  14.313  0.3191  0.1177  0.5050
 9690TIP3    H150561   1.414   1.058  14.236  1.7840  0.6864 -0.0960
 9690TIP3    H250562   1.397   1.202  14.280  0.2904  0.2325  0.8320
 9691TIP3   OH250563   1.940   6.660   3.143 -0.2363  0.8848 -0.2593
 9691TIP3    H150564   1.892   6.614   3.075  1.7943  2.3242 -2.7569
 9691TIP3    H250565   1.980   6.735   3.098  3.1264  0.5426  1.9511
 9692TIP3   OH250566   3.278   5.150  14.435  0.3655 -0.4888 -0.1074
 9692TIP3    H150567   3.266   5.235  14.394  0.2528  0.1065  1.1333
 9692TIP3    H250568   3.367   5.124  14.411  0.2837 -0.1673 -0.7523
 9693TIP3   OH250569   1.757   0.698  11.959 -0.0773 -0.2170  0.1540
 9693TIP3    H150570   1.830   0.666  11.905  0.9886  1.4639  0.5312
 9693TIP3    H250571   1.679   0.658  11.921  0.8294 -0.3631 -1.6088
 9694TIP3   OH250572   5.225   6.082  14.725 -0.4463 -0.2087  0.8499
 9694TIP3    H150573   5.134   6.111  14.735 -0.4944  1.2716 -2.8903
 9694TIP3    H250574   5.221   6.013  14.659  1.2438  0.5358 -0.0650
 9695TIP3   OH250575   1.557   0.695   0.647  0.0990 -0.0943  0.0662
 9695TIP3    H150576   1.568   0.629   0.715 -1.0847  0.4712  0.8332
 9695TIP3    H250577   1.465   0.689   0.622 -0.1714  1.6574  0.5713
 9696TIP3   OH250578   4.476   2.047   3.956 -0.5963 -0.3891 -0.0562
 9696TIP3    H150579   4.435   1.983   3.897 -0.5095 -0.0541 -0.4822
 9696TIP3    H250580   4.568   2.020   3.960 -0.1415  0.8323 -1.7601
 9697TIP3   OH250581   1.304   4.675  14.041  0.2758  0.1592  0.1490
 9697TIP3    H150582   1.254   4.652  14.120 -0.4381  3.0686  0.5931
 9697TIP3    H250583   1.308   4.594  13.991  0.3123 -1.6394  2.9316
 9698TIP3   OH250584   1.927   0.705  11.711  0.2038 -0.6528 -0.0698
 9698TIP3    H150585   1.863   0.773  11.691  0.4109  0.3800  2.6140
 9698TIP3    H250586   2.012   0.750  11.706  0.4322 -1.0251  0.4548
 9699TIP3   OH250587   0.023   4.689  15.574  0.1603 -0.3265  0.6445
 9699TIP3    H150588   0.108   4.693  15.529 -0.4928  0.8321 -0.4902
 9699TIP3    H250589   0.012   4.777  15.611 -0.7591 -0.3509  0.4145
 9700TIP3   OH250590   3.606   3.404  10.338  0.4820  0.2092  0.1758
 9700TIP3    H150591   3.549   3.333  10.366  0.7061 -0.7416 -1.7207
 9700TIP3    H250592   3.682   3.399  10.397  0.4041 -0.9991  0.1767
 9701TIP3   OH250593   2.109   2.196   2.821  0.5241  0.6200  0.0494
 9701TIP3    H150594   2.030   2.176   2.771 -0.9113  2.6218  1.4061
 9701TIP3    H250595   2.180   2.154   2.773 -1.5888 -3.0224 -0.0931
 9702TIP3   OH250596   4.926   1.529   2.980  0.2301 -0.4833  0.9070
 9702TIP3    H150597   4.994   1.468   3.010 -0.8209 -1.5431  1.1966
 9702TIP3    H250598   4.894   1.491   2.899 -0.9229 -0.7086  1.4505
 9703TIP3   OH250599   6.473   6.200  12.109 -0.4411  0.2203  0.4931
 9703TIP3    H150600   6.549   6.221  12.055 -1.1192 -0.7065 -0.8508
 9703TIP3    H250601   6.401   6.188  12.046 -1.4285 -0.0826  1.6554
 9704TIP3   OH250602   4.856   3.611   3.748 -0.2844  0.3067 -0.0813
 9704TIP3    H150603   4.834   3.518   3.753 -1.3491  0.5045 -0.9665
 9704TIP3    H250604   4.929   3.622   3.810 -1.2189 -0.7967  1.2337
 9705TIP3   OH250605   3.019   6.643  16.930  0.1757  0.3608  0.0398
 9705TIP3    H150606   2.989   6.555  16.950 -0.2853  0.7515  1.0978
 9705TIP3    H250607   3.080   6.632  16.857  1.4243 -1.0338  1.2632
 9706TIP3   OH250608   6.051   3.124   1.334 -0.7461 -0.1979  0.0466
 9706TIP3    H150609   5.960   3.154   1.340 -1.0316 -1.0954  0.2353
 9706TIP3    H250610   6.075   3.100   1.423 -0.4598 -0.3820 -0.0792
 9707TIP3   OH250611   3.097   4.924   1.358 -0.1157  0.3953  0.0721
 9707TIP3    H150612   3.081   5.018   1.372 -1.3760  0.4637 -1.6365
 9707TIP3    H250613   3.081   4.884   1.443 -1.8849  1.4548  0.2576
 9708TIP3   OH250614   3.297   2.175   4.260  0.1803  0.6098 -0.1730
 9708TIP3    H150615   3.257   2.110   4.317  1.3888 -0.2414 -0.2841
 9708TIP3    H250616   3.224   2.210   4.209 -0.1848 -2.3751 -1.8172
 9709TIP3   OH250617   5.819   6.578   1.738 -0.1119 -0.0605  0.3717
 9709TIP3    H150618   5.769   6.497   1.724  1.2634 -0.6467 -1.2725
 9709TIP3    H250619   5.887   6.576   1.672  1.0663  1.5744  1.4965
 9710TIP3   OH250620   3.728   1.828   6.381  0.5050  0.1612 -0.1153
 9710TIP3    H150621   3.789   1.809   6.453  3.8998  2.9667 -2.0938
 9710TIP3    H250622   3.759   1.775   6.308 -1.9365 -1.4395 -0.0412
 9711TIP3   OH250623   1.772   3.336   5.265  0.1842  0.2055 -0.1396
 9711TIP3    H150624   1.717   3.414   5.255  0.7475  0.6202 -0.0796
 9711TIP3    H250625   1.835   3.360   5.333  0.8930  0.0089 -0.7125
 9712TIP3   OH250626   0.957   5.515   1.401 -0.2111  0.0652  0.2568
 9712TIP3    H150627   0.879   5.500   1.456  0.2554  0.2124  0.9636
 9712TIP3    H250628   0.925   5.570   1.329 -1.2583 -1.7071 -0.6905
 9713TIP3   OH250629   1.350   0.059  12.343  0.6727 -0.2472 -0.2514
 9713TIP3    H150630   1.438   0.092  12.360  1.1381 -0.2332 -2.5236
 9713TIP3    H250631   1.353  -0.033  12.366  1.2389 -0.2116 -0.1902
 9714TIP3   OH250632   4.296   4.355   1.170 -0.0572 -0.2545  0.0263
 9714TIP3    H150633   4.310   4.367   1.264 -1.7666  1.0283  0.1431
 9714TIP3    H250634   4.208   4.390   1.154 -0.2536 -1.5201 -1.8567
 9715TIP3   OH250635   4.586   4.089  13.208  0.5575 -0.5253  0.1230
 9715TIP3    H150636   4.614   4.079  13.117 -1.0309  1.2745 -0.5957
 9715TIP3    H250637   4.635   4.022  13.255 -1.0525 -3.7745 -2.5803
 9716TIP3   OH250638   1.355   3.512   1.069  0.0931  0.9694 -0.5417
 9716TIP3    H150639   1.260   3.520   1.078 -0.2317 -0.3536 -2.3392
 9716TIP3    H250640   1.369   3.509   0.974  1.9380  1.2160 -0.2898
 9717TIP3   OH250641   6.792   1.284  11.855 -0.2630 -0.4760  0.3591
 9717TIP3    H150642   6.785   1.364  11.907 -1.1370 -1.1202  1.2475
 9717TIP3    H250643   6.714   1.284  11.800 -0.2914 -0.7389  0.3977
 9718TIP3   OH250644   0.941   6.509   6.859 -0.0115 -0.0078  0.1805
 9718TIP3    H150645   0.881   6.578   6.885  0.0863 -0.2688  1.1482
 9718TIP3    H250646   0.941   6.448   6.934 -0.9449 -1.6154 -1.0964
 9719TIP3   OH250647   1.403   1.819  14.938 -0.2805 -0.3310 -0.2162
 9719TIP3    H150648   1.373   1.780  14.856  1.1051  1.0591 -1.3928
 9719TIP3    H250649   1.447   1.747  14.983 -0.8478 -1.0428 -0.7799
 9720TIP3   OH250650   2.497   6.274  13.436  0.0473  0.0501  0.6893
 9720TIP3    H150651   2.449   6.205  13.390  1.0236 -1.0516  1.2954
 9720TIP3    H250652   2.467   6.269  13.526 -0.3693  0.8679  0.6004
 9721TIP3   OH250653   2.939   0.679   3.610 -0.1894  0.3845 -0.1912
 9721TIP3    H150654   2.976   0.591   3.601  2.7193  1.3898  1.3497
 9721TIP3    H250655   2.932   0.711   3.520 -0.4809 -1.0919 -0.7131
 9722TIP3   OH250656   0.864   5.125   2.750 -0.5248  0.3778  0.4785
 9722TIP3    H150657   0.852   5.064   2.678  0.2604 -0.1330  0.7743
 9722TIP3    H250658   0.880   5.209   2.709  0.0151  0.0691  0.0544
 9723TIP3   OH250659   1.221   3.271   2.449  0.5675  0.6369  0.0556
 9723TIP3    H150660   1.301   3.226   2.422  1.6829  1.9616  1.0318
 9723TIP3    H250661   1.219   3.260   2.545 -0.1297  1.0835  0.0969
 9724TIP3   OH250662   3.453   3.856   5.171  0.8569  0.2916  0.0282
 9724TIP3    H150663   3.506   3.910   5.231  1.7098 -0.8103  0.2739
 9724TIP3    H250664   3.470   3.893   5.085 -0.6103  2.0890  0.4547
 9725TIP3   OH250665   5.953   1.083   0.609 -0.3879  0.0407  0.1815
 9725TIP3    H150666   5.971   1.007   0.554 -0.4580 -0.8289  1.3496
 9725TIP3    H250667   5.888   1.134   0.559 -2.3559 -2.0124  0.5645
 9726TIP3   OH250668   2.856   1.922  12.937 -0.8099  0.2974 -0.3989
 9726TIP3    H150669   2.904   1.877  13.006 -0.1641  0.6369 -0.6184
 9726TIP3    H250670   2.823   2.002  12.979 -3.4609 -1.1832  0.4761
 9727TIP3   OH250671   5.554   6.092   4.044  0.4236 -0.1131  0.3458
 9727TIP3    H150672   5.616   6.081   3.972 -0.1979 -0.1646 -0.1868
 9727TIP3    H250673   5.469   6.099   4.002  0.1543  0.8497  1.0213
 9728TIP3   OH250674   3.967   4.369   1.685  0.1243 -0.6863  0.2383
 9728TIP3    H150675   3.970   4.385   1.779 -0.8089 -1.3422  0.3912
 9728TIP3    H250676   4.025   4.294   1.671  0.8288 -0.1272  0.1922
 9729TIP3   OH250677   1.637   1.184  14.042 -0.2857 -0.1714 -0.4661
 9729TIP3    H150678   1.613   1.250  13.977 -0.1993 -1.1684 -1.5244
 9729TIP3    H250679   1.656   1.234  14.122 -1.4501  0.9702 -0.9037
 9730TIP3   OH250680   2.714   5.372   5.386 -0.7029  0.3642  0.5410
 9730TIP3    H150681   2.682   5.457   5.415 -1.9842  0.6763 -1.6453
 9730TIP3    H250682   2.763   5.337   5.460 -0.1623  3.0079  1.4508
 9731TIP3   OH250683   4.696   6.215  12.253  0.2813 -0.3511 -0.5155
 9731TIP3    H150684   4.736   6.302  12.248 -1.0836  0.3456  0.3914
 9731TIP3    H250685   4.761   6.162  12.300  0.7647  0.4054 -0.3190
 9732TIP3   OH250686   5.214   0.972   0.855  0.3295 -0.0840 -0.7512
 9732TIP3    H150687   5.289   0.964   0.796 -0.6510  0.2042 -2.0585
 9732TIP3    H250688   5.241   0.927   0.935  2.2080  0.7431 -0.8959
 9733TIP3   OH250689   6.509   5.034   3.305 -0.3085  0.1067 -0.1884
 9733TIP3    H150690   6.450   5.016   3.378  0.7357  1.0438  0.9011
 9733TIP3    H250691   6.510   4.953   3.254 -0.8151 -0.6581  0.9965
 9734TIP3   OH250692   6.165   0.031   1.728 -0.0607  0.5866 -0.2485
 9734TIP3    H150693   6.082   0.000   1.763 -0.5007  0.0378 -1.7528
 9734TIP3    H250694   6.226   0.023   1.801 -0.5467 -2.2416 -0.1031
 9735TIP3   OH250695   4.898   6.076   3.211 -0.0984  0.3461  0.3427
 9735TIP3    H150696   4.981   6.116   3.236 -0.6491  2.1318 -0.5447
 9735TIP3    H250697   4.915   6.039   3.124  0.0030 -0.0319  0.5241
 9736TIP3   OH250698   2.533   5.053  14.323  0.2824 -0.0717 -0.2716
 9736TIP3    H150699   2.448   5.014  14.342 -0.5112  1.2896 -0.9071
 9736TIP3    H250700   2.556   5.100  14.403  0.6889 -0.8673  0.0825
 9737TIP3   OH250701   5.793   2.695  15.345  0.3443 -0.0955 -0.4100
 9737TIP3    H150702   5.840   2.676  15.264  1.9372  1.7265  0.0665
 9737TIP3    H250703   5.747   2.777  15.328  0.3660  0.0918  0.4072
 9738TIP3   OH250704   2.950   0.767   3.860  0.0295 -0.2806 -0.0435
 9738TIP3    H150705   2.953   0.762   3.765  0.7347 -0.9716  0.0126
 9738TIP3    H250706   2.881   0.706   3.886  1.2268 -1.6350  0.0014
 9739TIP3   OH250707   5.121   4.597  16.159  0.0029 -0.2343 -0.7183
 9739TIP3    H150708   5.197   4.648  16.185 -0.6025 -0.4838  1.5774
 9739TIP3    H250709   5.085   4.644  16.083  1.2007  1.0469 -0.5035
 9740TIP3   OH250710   2.315   0.776   6.082 -0.3659  0.3869  0.1726
 9740TIP3    H150711   2.253   0.804   6.150 -1.0010 -0.7420  0.0757
 9740TIP3    H250712   2.261   0.761   6.005  0.0958 -0.1604 -0.0489
 9741TIP3   OH250713   2.647   1.452   4.213  0.0563 -0.3828  0.2251
 9741TIP3    H150714   2.661   1.432   4.120  1.0433  0.5654  0.1537
 9741TIP3    H250715   2.674   1.372   4.259  1.9546  0.0036 -0.1695
 9742TIP3   OH250716   0.669   5.436  14.206  0.4309 -0.1590 -0.0211
 9742TIP3    H150717   0.690   5.386  14.127  1.1290  0.7851 -0.4408
 9742TIP3    H250718   0.617   5.510  14.175 -1.4730 -1.1650  0.7221
 9743TIP3   OH250719   2.997   6.645  16.481  0.0022  0.0966  0.8620
 9743TIP3    H150720   2.925   6.691  16.523 -0.1669  1.0489 -0.4451
 9743TIP3    H250721   2.997   6.677  16.391 -0.5826 -3.0224 -0.3118
 9744TIP3   OH250722   2.239   5.996   1.700  0.3111  0.4554  0.2860
 9744TIP3    H150723   2.320   5.946   1.686 -0.1349 -0.7697  1.9179
 9744TIP3    H250724   2.191   5.985   1.618  1.4341  0.5007 -0.3940
 9745TIP3   OH250725   1.861   0.340  13.449 -0.4239  0.5966  0.4209
 9745TIP3    H150726   1.954   0.362  13.450  0.6341 -3.5003  1.9767
 9745TIP3    H250727   1.852   0.278  13.376 -1.6517 -0.0903  1.1385
 9746TIP3   OH250728   4.051   6.131   0.586  0.0938 -0.5110  0.0381
 9746TIP3    H150729   3.997   6.151   0.510  0.1344  0.7810  0.3408
 9746TIP3    H250730   4.004   6.062   0.632  0.0608 -1.2862 -1.1393
 9747TIP3   OH250731   1.614   6.718   3.780 -0.2891  0.6004 -0.0861
 9747TIP3    H150732   1.608   6.802   3.733  1.0925  0.5793 -0.3061
 9747TIP3    H250733   1.524   6.702   3.809 -0.7405  1.7385 -0.7679
 9748TIP3   OH250734   3.871   2.652   4.469  0.0781 -0.3707 -0.5332
 9748TIP3    H150735   3.842   2.609   4.389 -0.8314  1.3594 -1.1570
 9748TIP3    H250736   3.818   2.731   4.474  1.3838  0.4402  0.8343
 9749TIP3   OH250737   0.343   0.146   2.056  0.2812  0.1969 -0.2970
 9749TIP3    H150738   0.390   0.067   2.030 -0.0947  0.2671 -1.2059
 9749TIP3    H250739   0.265   0.147   1.999  2.1304  3.1828 -2.9006
 9750TIP3   OH250740   4.802   1.993  13.854 -0.1180 -0.3038 -0.2709
 9750TIP3    H150741   4.712   2.007  13.827 -0.4225  0.4818  1.1569
 9750TIP3    H250742   4.838   1.934  13.787 -1.3750  0.1989 -1.4011
 9751TIP3   OH250743   4.306   3.722   0.862 -0.2036 -0.9563 -0.1745
 9751TIP3    H150744   4.261   3.767   0.934 -0.0702  0.4976 -0.9864
 9751TIP3    H250745   4.237   3.701   0.800  0.0848  0.4216 -0.9764
 9752TIP3   OH250746   6.259   3.917   2.933 -0.0263  0.1993  0.8312
 9752TIP3    H150747   6.197   3.985   2.905 -0.2588  0.2408  1.4299
 9752TIP3    H250748   6.207   3.837   2.936 -0.2234  0.3490  1.9486
 9753TIP3   OH250749   0.254   4.739   2.431  0.0059 -0.0458  0.3422
 9753TIP3    H150750   0.184   4.680   2.459  1.2320 -1.6035  0.1997
 9753TIP3    H250751   0.235   4.758   2.339  0.0086 -0.8027  0.1854
 9754TIP3   OH250752   4.190   3.851  15.387  1.0596  0.3232 -0.3413
 9754TIP3    H150753   4.172   3.943  15.409 -0.7595  0.0267 -0.4502
 9754TIP3    H250754   4.168   3.846  15.294 -0.1387 -0.5221 -0.0192
 9755TIP3   OH250755   4.335   0.768  13.897 -0.1695  0.4702  0.3218
 9755TIP3    H150756   4.308   0.690  13.944  3.5384 -0.7290  0.6445
 9755TIP3    H250757   4.305   0.841  13.951 -0.3602 -0.8090  1.9658
 9756TIP3   OH250758   1.466   4.226   5.980  0.1294 -0.2757 -0.0370
 9756TIP3    H150759   1.505   4.252   5.896 -0.4399  0.9025  0.0529
 9756TIP3    H250760   1.423   4.143   5.962 -1.1266  0.6096 -1.2634
 9757TIP3   OH250761   3.337   6.755   4.369  0.0883  0.3224 -0.2844
 9757TIP3    H150762   3.318   6.810   4.292 -1.2537  0.6180  0.2459
 9757TIP3    H250763   3.364   6.818   4.437  0.1941  0.1614 -0.1777
 9758TIP3   OH250764   0.178   2.643   5.096 -0.3799  0.1065 -0.4504
 9758TIP3    H150765   0.168   2.574   5.030 -0.1402 -1.5252  1.1627
 9758TIP3    H250766   0.215   2.717   5.048  0.1681 -1.1789 -2.0637
 9759TIP3   OH250767   1.867   5.736  16.085 -0.2477  0.1536 -0.2318
 9759TIP3    H150768   1.884   5.767  16.174  2.6226 -3.1017  0.4351
 9759TIP3    H250769   1.869   5.815  16.031 -0.1071  1.9396  2.3238
 9760TIP3   OH250770   3.508   5.735  17.108  0.5968  0.1101 -0.0313
 9760TIP3    H150771   3.559   5.801  17.154  1.8410 -1.3878  0.7745
 9760TIP3    H250772   3.419   5.744  17.144  0.7723  1.2946  0.1074
 9761TIP3   OH250773   6.507   0.892   5.435  0.1160 -0.1257 -0.6336
 9761TIP3    H150774   6.457   0.811   5.443 -0.2614 -0.1237 -2.8014
 9761TIP3    H250775   6.597   0.866   5.451 -0.1703 -0.6971  0.1195
 9762TIP3   OH250776   5.508   2.744   0.129  0.0584 -0.0557 -0.0541
 9762TIP3    H150777   5.581   2.706   0.178 -0.8095 -2.1283 -0.2881
 9762TIP3    H250778   5.487   2.678   0.063 -0.0167  1.8708 -2.0223
 9763TIP3   OH250779   3.018   0.186   5.630 -0.0728 -0.7425  0.2020
 9763TIP3    H150780   2.960   0.244   5.580  0.9531  0.9667  0.9412
 9763TIP3    H250781   2.995   0.201   5.722  0.4008 -1.2846  0.4166
 9764TIP3   OH250782   3.547   4.097   1.638 -0.0651 -0.1259 -0.0439
 9764TIP3    H150783   3.637   4.091   1.672  0.4541 -1.9189 -1.6802
 9764TIP3    H250784   3.492   4.066   1.710  0.6668  0.3572  0.7365
 9765TIP3   OH250785   6.055   1.570  16.215  0.4421  0.3481  0.0270
 9765TIP3    H150786   6.049   1.512  16.291  1.5624 -0.6136 -0.5780
 9765TIP3    H250787   6.010   1.650  16.241  1.4311  0.3018  1.9611
 9766TIP3   OH250788   0.700   4.787  15.432  0.3759  0.6442  0.3391
 9766TIP3    H150789   0.660   4.700  15.424 -2.0355  1.6819  0.7126
 9766TIP3    H250790   0.631   4.842  15.469  1.8223  2.7674 -0.0311
 9767TIP3   OH250791   2.376   6.494   0.984 -0.3357 -0.8496  0.3347
 9767TIP3    H150792   2.351   6.450   0.902 -0.5343 -1.4487  0.7112
 9767TIP3    H250793   2.300   6.546   1.008  0.5038  1.0683 -1.0053
 9768TIP3   OH250794   6.391   0.870  16.657 -0.6865  0.1809  0.4505
 9768TIP3    H150795   6.430   0.840  16.739 -1.5957 -3.2872 -0.2812
 9768TIP3    H250796   6.303   0.900  16.682 -1.0002 -0.9663  0.7352
 9769TIP3   OH250797   3.562   5.844  14.605  1.0360 -0.6402 -0.3646
 9769TIP3    H150798   3.609   5.874  14.527 -1.0563  4.0109  0.0002
 9769TIP3    H250799   3.595   5.899  14.676 -0.0131 -2.0198  1.2247
 9770TIP3   OH250800   4.505   3.916   6.244 -0.8637 -0.5961 -0.6916
 9770TIP3    H150801   4.466   3.925   6.331 -1.5622  0.6757 -1.1182
 9770TIP3    H250802   4.576   3.854   6.256  0.7608  1.5564  1.3797
 9771TIP3   OH250803   0.081   1.522   5.028 -0.0823  0.3996  0.1784
 9771TIP3    H150804   0.144   1.557   5.090  0.4138  3.5938 -2.0165
 9771TIP3    H250805   0.041   1.599   4.988 -3.0936 -1.5582 -0.7959
 9772TIP3   OH250806   6.204   4.817  15.367  0.3175 -0.1800 -0.1793
 9772TIP3    H150807   6.109   4.825  15.375  0.4247  0.7048  0.3598
 9772TIP3    H250808   6.236   4.905  15.387  1.3437 -0.8561  1.2063
 9773TIP3   OH250809   4.166   5.756   3.466 -0.0943 -0.7152  0.8028
 9773TIP3    H150810   4.236   5.763   3.531 -0.1826 -0.5724  0.8846
 9773TIP3    H250811   4.207   5.781   3.383  0.1975 -1.5668  0.6785
 9774TIP3   OH250812   3.629   2.222  13.811  0.0457  0.3565 -0.4337
 9774TIP3    H150813   3.586   2.279  13.748 -1.2246  0.4782  0.5357
 9774TIP3    H250814   3.722   2.243  13.803 -0.0656  0.2056 -2.4218
 9775TIP3   OH250815   6.635   3.087  14.334  0.0596 -0.3162 -0.3193
 9775TIP3    H150816   6.688   3.122  14.262 -0.1679 -2.5431 -1.6015
 9775TIP3    H250817   6.698   3.073  14.405  0.7427 -0.5504 -0.9610
 9776TIP3   OH250818   6.684   6.780  14.380 -0.0337  0.2458 -0.2696
 9776TIP3    H150819   6.652   6.870  14.383 -1.4866 -0.2745  0.1683
 9776TIP3    H250820   6.777   6.788  14.359 -0.5079  1.7745 -1.9271
 9777TIP3   OH250821   6.286   1.922   4.896  0.4238 -0.0309  0.0946
 9777TIP3    H150822   6.203   1.966   4.915 -0.1337 -0.2002 -1.8493
 9777TIP3    H250823   6.262   1.830   4.884  0.4894  0.2707 -2.7542
 9778TIP3   OH250824   1.766   5.707  14.698 -0.7841  0.1331 -0.4063
 9778TIP3    H150825   1.712   5.701  14.619 -0.3330  2.2955 -0.9063
 9778TIP3    H250826   1.853   5.729  14.666  0.1324 -2.0464  0.4986
 9779TIP3   OH250827   5.342   2.815   5.610 -0.1678  0.1303  0.0054
 9779TIP3    H150828   5.255   2.818   5.571  0.3043  0.6403 -1.0262
 9779TIP3    H250829   5.353   2.725   5.638 -0.8303 -0.0551 -0.3279
 9780TIP3   OH250830   3.930   3.434   6.714 -0.1198  0.1595 -0.1075
 9780TIP3    H150831   4.016   3.447   6.673  0.6825 -1.4172  1.0507
 9780TIP3    H250832   3.898   3.523   6.729  1.8842  0.7992  0.6166
 9781TIP3   OH250833   1.317   3.178   2.992 -0.2643 -0.0406  0.3137
 9781TIP3    H150834   1.273   3.117   3.052 -3.0517  0.4242 -1.1683
 9781TIP3    H250835   1.330   3.127   2.912  0.0848  0.4299  0.0689
 9782TIP3   OH250836   3.249   2.051   1.139  0.2509 -0.5589  0.7962
 9782TIP3    H150837   3.268   2.132   1.186 -0.5346 -0.7624  1.4933
 9782TIP3    H250838   3.203   2.078   1.060  1.1415 -0.2425  0.3825
 9783TIP3   OH250839   0.328   5.684   0.950 -0.0887 -0.4901  0.4507
 9783TIP3    H150840   0.307   5.620   0.882  0.6987  0.0332 -0.2853
 9783TIP3    H250841   0.400   5.643   0.999  0.9277  0.1584 -0.4914
 9784TIP3   OH250842   0.766   3.414   4.359 -0.2628 -0.1182 -0.0901
 9784TIP3    H150843   0.799   3.493   4.314 -0.4074  0.3262  0.5845
 9784TIP3    H250844   0.725   3.363   4.289 -2.2713  1.5201 -0.1499
 9785TIP3   OH250845   1.351   2.339  12.628  0.4710  0.3555 -0.0726
 9785TIP3    H150846   1.325   2.406  12.565 -0.0987 -0.4347 -0.6720
 9785TIP3    H250847   1.297   2.357  12.705  0.1399  0.4324 -0.3209
 9786TIP3   OH250848   3.624   2.146  14.292  0.3208  0.2669  0.7060
 9786TIP3    H150849   3.602   2.237  14.274 -3.6620 -0.9126 -1.0806
 9786TIP3    H250850   3.670   2.116  14.214 -0.8060  0.0440  0.1168
 9787TIP3   OH250851   2.226   4.873   6.481  0.0893  0.6441  0.2034
 9787TIP3    H150852   2.198   4.783   6.499  0.4254  0.4781 -0.1055
 9787TIP3    H250853   2.318   4.875   6.508 -0.5267  1.5273  2.3734
 9788TIP3   OH250854   1.079   2.650  14.408 -0.3715  0.4240 -0.0080
 9788TIP3    H150855   1.103   2.569  14.363 -0.8309  1.6543 -2.5780
 9788TIP3    H250856   1.121   2.644  14.493  0.7252 -1.9084 -0.6756
 9789TIP3   OH250857   0.744   4.663   4.870  0.5075  0.0027 -0.0676
 9789TIP3    H150858   0.749   4.588   4.810 -1.5083  0.4874 -0.8960
 9789TIP3    H250859   0.811   4.724   4.838 -0.2505  0.0596 -1.5740
 9790TIP3   OH250860   1.204   3.310  17.060 -0.4574  0.5474  0.0652
 9790TIP3    H150861   1.299   3.316  17.063 -0.5532  1.5821  1.2590
 9790TIP3    H250862   1.185   3.217  17.066  0.5274  0.2315 -1.6471
 9791TIP3   OH250863   5.084   4.669   3.311 -0.4769 -0.3342 -0.1182
 9791TIP3    H150864   5.079   4.715   3.227  0.7637  0.7946  0.4027
 9791TIP3    H250865   5.021   4.597   3.303  0.6248 -1.0909 -2.5426
 9792TIP3   OH250866   6.558   3.727  12.183 -0.2002  0.3185 -0.1825
 9792TIP3    H150867   6.586   3.801  12.129  2.2552  1.3127  2.3533
 9792TIP3    H250868   6.494   3.764  12.244  0.6481  0.2943  0.7471
 9793TIP3   OH250869   3.666   1.405   5.025  0.0719  0.4380 -0.2576
 9793TIP3    H150870   3.664   1.387   4.931  2.2460 -1.2306 -0.0189
 9793TIP3    H250871   3.597   1.350   5.061  0.0160  0.1996 -0.7238
 9794TIP3   OH250872   5.266   1.522  15.084 -0.5336 -0.0836  0.4865
 9794TIP3    H150873   5.335   1.458  15.066 -3.3698 -2.3847 -2.7866
 9794TIP3    H250874   5.311   1.607  15.079  2.2003 -1.5196 -0.8062
 9795TIP3   OH250875   6.515   0.476   2.735  0.2005  0.1288  0.5603
 9795TIP3    H150876   6.534   0.405   2.796 -0.2226 -0.3846  0.0923
 9795TIP3    H250877   6.420   0.473   2.725 -0.0204  1.8223  1.8519
 9796TIP3   OH250878   6.718   4.283   5.705  0.0504 -0.0040 -0.0263
 9796TIP3    H150879   6.722   4.357   5.645 -0.1044 -0.6849 -0.8832
 9796TIP3    H250880   6.807   4.249   5.709 -0.0588 -0.3401 -0.3655
 9797TIP3   OH250881   0.016   4.940   1.991 -0.4516 -0.4442 -0.4336
 9797TIP3    H150882   0.037   5.012   1.930  0.3244  0.4410  0.8618
 9797TIP3    H250883  -0.050   4.977   2.049 -0.1931 -0.8517  0.1187
 9798TIP3   OH250884   2.038   2.240  14.624 -0.3319  0.0282 -0.1413
 9798TIP3    H150885   2.107   2.304  14.608 -1.1282  1.1313  0.8269
 9798TIP3    H250886   2.081   2.155  14.609  0.6886  0.7687 -1.5425
 9799TIP3   OH250887   3.843   1.150   4.429 -0.8808  0.0677 -0.1601
 9799TIP3    H150888   3.873   1.068   4.469 -0.0237 -0.3306 -1.5685
 9799TIP3    H250889   3.860   1.217   4.495 -0.6745 -0.7633  0.6338
 9800TIP3   OH250890   5.799   1.673   1.660 -0.8443 -0.0859  0.0250
 9800TIP3    H150891   5.786   1.581   1.685 -1.5285  0.1064  0.3905
 9800TIP3    H250892   5.791   1.673   1.564  1.7677 -0.8218 -0.2329
 9801TIP3   OH250893   3.753   1.614   4.425 -0.6126  0.0693 -0.2698
 9801TIP3    H150894   3.699   1.624   4.346 -0.0487 -0.6371 -0.7486
 9801TIP3    H250895   3.831   1.567   4.395 -0.7565 -0.9021  0.8541
 9802TIP3   OH250896   4.371   1.318  11.571  0.3490  0.5025  0.3241
 9802TIP3    H150897   4.410   1.232  11.555  1.3298  0.7100  1.4720
 9802TIP3    H250898   4.288   1.299  11.614 -0.6737  0.0676 -1.7973
 9803TIP3   OH250899   0.152   3.642  12.130 -0.0494  0.1099  0.2137
 9803TIP3    H150900   0.122   3.712  12.072 -0.2566  0.4947  0.7716
 9803TIP3    H250901   0.104   3.565  12.102  0.6528  0.0412 -0.8239
 9804TIP3   OH250902   0.320   0.753  11.764  0.3108  0.0486  0.1233
 9804TIP3    H150903   0.373   0.741  11.686  1.2161  0.7415  0.6298
 9804TIP3    H250904   0.248   0.810  11.736  0.4021 -0.0430 -0.2973
 9805TIP3   OH250905   3.665   2.993  13.046 -0.9552  0.1390  0.3226
 9805TIP3    H150906   3.579   3.022  13.016 -1.4592 -1.0792  0.5452
 9805TIP3    H250907   3.704   2.950  12.970 -1.0075 -0.3024  0.5431
 9806TIP3   OH250908   6.215   3.184  13.213 -0.3191  0.4274 -0.5869
 9806TIP3    H150909   6.280   3.148  13.152 -0.2699  0.2514 -0.4300
 9806TIP3    H250910   6.201   3.114  13.277 -0.2273  0.6812 -0.2874
 9807TIP3   OH250911   3.119   1.258   4.750  0.0312 -0.0186  0.0157
 9807TIP3    H150912   3.099   1.167   4.725 -0.6627 -0.0025  0.4902
 9807TIP3    H250913   3.048   1.282   4.809  0.0065  0.9697 -0.4123
 9808TIP3   OH250914   0.585   0.230  16.875  0.1356 -0.0857  0.4417
 9808TIP3    H150915   0.589   0.150  16.821 -0.7968  0.2968 -0.2149
 9808TIP3    H250916   0.568   0.300  16.812  2.0299  0.8089  0.8748
 9809TIP3   OH250917   5.642   0.538   3.409 -0.1139 -0.6516  0.0310
 9809TIP3    H150918   5.623   0.461   3.463  0.0676 -1.0529 -0.4720
 9809TIP3    H250919   5.703   0.506   3.342  1.6025  0.3970  1.0556
 9810TIP3   OH250920   1.888   3.458   1.702  0.7489  0.4521 -0.3983
 9810TIP3    H150921   1.801   3.423   1.722  0.1740  2.2011  0.2049
 9810TIP3    H250922   1.898   3.445   1.607 -0.2294  0.3830 -0.4962
 9811TIP3   OH250923   2.660   0.407   4.409  0.1499  0.2166 -0.1237
 9811TIP3    H150924   2.605   0.485   4.420 -0.4327 -0.1015 -0.7564
 9811TIP3    H250925   2.722   0.411   4.482  0.8646  1.8921 -0.8074
 9812TIP3   OH250926   3.492   4.066  16.872  0.5133 -0.0216 -0.6388
 9812TIP3    H150927   3.465   3.975  16.881 -0.1141  0.2638  0.4454
 9812TIP3    H250928   3.414   4.117  16.895  1.3330  0.7959  0.3846
 9813TIP3   OH250929   4.073   6.754  14.868 -0.2003 -0.0419  0.6603
 9813TIP3    H150930   4.159   6.726  14.836 -0.8667  1.4301 -2.6332
 9813TIP3    H250931   4.011   6.709  14.812 -1.4307  2.4455 -0.0532
 9814TIP3   OH250932   4.933   1.979  10.753  0.0052 -0.1356 -0.8515
 9814TIP3    H150933   4.995   1.907  10.742  1.1005  0.6585  0.0458
 9814TIP3    H250934   4.890   1.987  10.668  0.4573 -1.3059 -1.2013
 9815TIP3   OH250935   3.486   4.487   6.615  0.2545 -0.2373 -0.0180
 9815TIP3    H150936   3.577   4.475   6.587  0.1272 -0.4598 -0.3417
 9815TIP3    H250937   3.492   4.528   6.701  0.6594 -0.1248 -0.1016
 9816TIP3   OH250938   3.873   3.801  12.472  0.6389  0.0574  0.0627
 9816TIP3    H150939   3.840   3.885  12.502 -2.2543 -0.5131 -1.3592
 9816TIP3    H250940   3.909   3.819  12.385  0.5202 -0.0517 -0.0105
 9817TIP3   OH250941   5.785   0.751   0.745 -0.0352 -0.3434  0.0878
 9817TIP3    H150942   5.794   0.839   0.781  0.8499 -0.2224 -0.4197
 9817TIP3    H250943   5.721   0.760   0.674 -0.6481 -0.2953  0.6390
 9818TIP3   OH250944   2.087   4.562  15.764 -0.1342  0.0709  0.0056
 9818TIP3    H150945   2.162   4.506  15.785  0.4422  0.6118 -0.5931
 9818TIP3    H250946   2.039   4.569  15.847  0.2767 -0.5644  0.3072
 9819TIP3   OH250947   5.213   6.164  14.206  0.5765 -0.0821  0.1998
 9819TIP3    H150948   5.232   6.078  14.242 -0.0045  0.0599  0.8576
 9819TIP3    H250949   5.154   6.147  14.132 -2.5270 -0.0013  2.5788
 9820TIP3   OH250950   2.234   1.366  13.389 -0.6603 -0.0796  0.5796
 9820TIP3    H150951   2.184   1.381  13.469 -1.5065 -0.2848  0.0963
 9820TIP3    H250952   2.174   1.318  13.332  0.0383 -0.1941 -0.0673
 9821TIP3   OH250953   0.028   4.167   4.333  0.4130  0.4263  0.3064
 9821TIP3    H150954  -0.027   4.100   4.294  0.5122 -0.1997  1.2396
 9821TIP3    H250955   0.085   4.120   4.394  0.9336  1.2625  0.4812
 9822TIP3   OH250956   6.789   5.231  12.051  0.0438  0.1052  0.1411
 9822TIP3    H150957   6.768   5.294  11.982  2.3938 -0.1090 -0.8287
 9822TIP3    H250958   6.728   5.251  12.122 -2.7422  0.0426 -2.1331
 9823TIP3   OH250959   4.212   2.339  16.568 -0.1746 -0.1474 -0.1999
 9823TIP3    H150960   4.228   2.317  16.659 -0.6368  0.0588 -0.0701
 9823TIP3    H250961   4.239   2.261  16.519  0.0268 -0.2732  0.1167
 9824TIP3   OH250962   1.938   1.254   1.108 -0.0360  0.3264 -0.5160
 9824TIP3    H150963   2.028   1.268   1.076  0.2251 -0.7722 -0.3005
 9824TIP3    H250964   1.883   1.299   1.044  0.5650 -0.6729 -1.7754
 9825TIP3   OH250965   2.748   1.124   0.734  0.5391  0.0366  0.3299
 9825TIP3    H150966   2.808   1.175   0.789 -0.3306 -0.6857  2.0050
 9825TIP3    H250967   2.714   1.057   0.793  0.8939 -1.8612 -1.5598
 9826TIP3   OH250968   5.361   0.172   2.295 -0.2076 -0.5510 -0.3401
 9826TIP3    H150969   5.389   0.247   2.348 -1.3649  0.5921 -1.2931
 9826TIP3    H250970   5.425   0.104   2.313  0.7879  0.6251  0.6593
 9827TIP3   OH250971   0.055   2.311   0.836  0.1915  0.1687 -0.2540
 9827TIP3    H150972   0.075   2.347   0.749  0.3191  0.9421  0.0869
 9827TIP3    H250973   0.132   2.258   0.858  1.5862  2.5237  0.7248
 9828TIP3   OH250974   1.065   6.788  12.611  0.0608 -0.8226  0.4265
 9828TIP3    H150975   1.133   6.814  12.673  0.2435  0.5922 -0.3558
 9828TIP3    H250976   0.994   6.851  12.624 -0.4312 -1.2904  0.0782
 9829TIP3   OH250977   0.649   1.363  12.158  0.1740 -0.2215  0.0782
 9829TIP3    H150978   0.603   1.280  12.156 -0.5134  0.1665 -1.6495
 9829TIP3    H250979   0.603   1.418  12.094  2.6890  0.3578 -1.3180
 9830TIP3   OH250980   5.678   2.294  16.677  0.0273  1.0185 -0.0923
 9830TIP3    H150981   5.714   2.205  16.680 -0.1796  0.9705  1.0887
 9830TIP3    H250982   5.613   2.291  16.607 -0.2682  0.1205  0.2162
 9831TIP3   OH250983   5.596   1.186  13.264  0.4581 -0.4528  0.4610
 9831TIP3    H150984   5.570   1.152  13.179 -1.3761 -1.0484  1.2299
 9831TIP3    H250985   5.577   1.280  13.259 -1.4988 -0.7995  0.8431
 9832TIP3   OH250986   1.109   4.011   1.843  0.1012 -0.8805  0.2610
 9832TIP3    H150987   1.036   3.950   1.837  0.3398 -1.1289 -0.1789
 9832TIP3    H250988   1.102   4.049   1.931 -1.0254 -0.3020 -0.0624
 9833TIP3   OH250989   2.916   2.806   5.786 -0.1387  0.3086  0.0375
 9833TIP3    H150990   2.930   2.900   5.773 -1.0008  0.2225 -1.6271
 9833TIP3    H250991   3.003   2.772   5.807  0.4035  1.2925 -0.5644
 9834TIP3   OH250992   1.807   1.910   1.523 -0.4100 -0.0542  0.6870
 9834TIP3    H150993   1.770   1.849   1.586  0.7803  1.2592  2.7228
 9834TIP3    H250994   1.898   1.882   1.513 -0.7333 -0.6024 -0.9202
 9835TIP3   OH250995   3.650   2.224  14.684  0.2260  0.4441 -0.1097
 9835TIP3    H150996   3.652   2.147  14.627 -0.2398  0.1213  0.3049
 9835TIP3    H250997   3.724   2.277  14.655  0.3631 -0.0126 -0.6052
 9836TIP3   OH250998   6.493   0.556  12.960  0.6423  0.0541  0.3774
 9836TIP3    H150999   6.458   0.477  12.917  0.5161 -0.0572  0.6863
 9836TIP3    H251000   6.584   0.533  12.981  0.8909  0.3280 -0.3862
 9837TIP3   OH251001   0.073   1.918  13.570 -0.0534 -0.4443  0.0306
 9837TIP3    H151002   0.023   1.965  13.503 -0.4404 -0.1032  0.5501
 9837TIP3    H251003   0.149   1.973  13.587  0.5820 -1.0447 -0.8783
 9838TIP3   OH251004   1.782   4.247   1.818 -0.4473  0.1837  0.6697
 9838TIP3    H151005   1.763   4.305   1.893  0.5019  0.5955  0.5894
 9838TIP3    H251006   1.701   4.196   1.807 -1.1225  1.1494  1.0483
 9839TIP3   OH251007   1.831   0.759  11.429 -0.2696 -0.4133 -0.0630
 9839TIP3    H151008   1.830   0.839  11.481  2.2407 -0.8656  0.7734
 9839TIP3    H251009   1.868   0.786  11.345 -4.6653  0.3912 -1.8332
 9840TIP3   OH251010   5.292   5.053   2.072 -0.1415 -0.9479 -0.0171
 9840TIP3    H151011   5.273   5.129   2.017 -1.4607 -0.6820  0.7873
 9840TIP3    H251012   5.234   4.984   2.039 -0.2968 -1.0497  0.4612
 9841TIP3   OH251013   5.471   6.634  16.609  0.1225 -0.0764  0.2922
 9841TIP3    H151014   5.549   6.686  16.626 -0.6819  1.2834 -0.0498
 9841TIP3    H251015   5.476   6.561  16.671  0.0273  1.7778  2.5592
 9842TIP3   OH251016   2.669   0.229   4.112  0.1853  0.4226  0.2712
 9842TIP3    H151017   2.685   0.323   4.124  0.4911  0.2924  0.8915
 9842TIP3    H251018   2.642   0.221   4.021 -0.8112  1.2433  0.4947
 9843TIP3   OH251019   3.015   4.188   1.791  0.3658  0.7096  0.5815
 9843TIP3    H151020   2.998   4.130   1.865 -1.5357  0.3675 -0.0946
 9843TIP3    H251021   3.008   4.131   1.714 -3.5054  2.0945 -0.2396
 9844TIP3   OH251022   3.217   2.432   2.771 -0.5526  0.4717 -0.1968
 9844TIP3    H151023   3.164   2.500   2.729  0.0182  1.2437  0.3090
 9844TIP3    H251024   3.267   2.393   2.699  0.6992  2.0459 -0.2072
 9845TIP3   OH251025   0.332   1.678   3.365  0.1443 -0.9422 -0.2536
 9845TIP3    H151026   0.308   1.652   3.276  0.5101  0.6463 -0.8290
 9845TIP3    H251027   0.306   1.603   3.419 -1.7980 -1.1555 -1.4482
 9846TIP3   OH251028   5.024   0.209  16.663 -0.4778 -0.2995 -0.0463
 9846TIP3    H151029   5.030   0.145  16.734 -0.4767 -0.1937  0.0480
 9846TIP3    H251030   5.093   0.184  16.602  0.9820  0.9419  1.0684
 9847TIP3   OH251031   4.976   4.281  16.583 -0.4224 -0.0838  0.2201
 9847TIP3    H151032   4.924   4.202  16.599  0.1463 -0.3145  0.9556
 9847TIP3    H251033   5.061   4.248  16.557 -1.1343  0.2914 -2.6822
 9848TIP3   OH251034   2.569   5.077  11.637  0.2748  0.5556 -0.1019
 9848TIP3    H151035   2.575   4.984  11.614  1.7498 -0.1382  2.8238
 9848TIP3    H251036   2.638   5.119  11.586 -0.2140 -0.0144 -1.2318
 9849TIP3   OH251037   0.193   2.297  15.850  0.9316 -0.1910  0.7835
 9849TIP3    H151038   0.102   2.290  15.823  1.5182  0.2436 -1.3737
 9849TIP3    H251039   0.205   2.224  15.912 -0.6824 -0.6622  0.5645
 9850TIP3   OH251040   0.985   2.805  11.702 -0.2281  0.1072 -0.2757
 9850TIP3    H151041   0.924   2.779  11.633  1.4815 -2.8170 -0.7570
 9850TIP3    H251042   0.930   2.818  11.779 -1.5762 -1.7936 -0.8795
 9851TIP3   OH251043   2.202   0.927  15.433 -0.3571 -0.9801  0.2931
 9851TIP3    H151044   2.221   0.907  15.524 -0.4878  0.4376  0.6450
 9851TIP3    H251045   2.166   0.846  15.398 -0.9991 -1.3190  1.6977
 9852TIP3   OH251046   1.901   1.904   2.989 -0.1113  0.7774  0.0231
 9852TIP3    H151047   1.996   1.900   2.997 -0.2377 -2.1960  0.3664
 9852TIP3    H251048   1.884   1.886   2.896 -0.3925  0.2785  0.1724
 9853TIP3   OH251049   1.227   4.668   4.345  0.0583  0.2232  0.2304
 9853TIP3    H151050   1.301   4.707   4.391 -0.2199 -0.1422  0.9915
 9853TIP3    H251051   1.152   4.684   4.401 -0.4781  0.7255 -0.6163
 9854TIP3   OH251052   0.428   5.967   3.988  0.3079  0.5798  0.0296
 9854TIP3    H151053   0.385   6.026   3.926 -0.4620 -1.2322 -1.1956
 9854TIP3    H251054   0.397   5.880   3.963  1.2097 -0.3148  1.9912
 9855TIP3   OH251055   3.286   3.449  15.798  0.0763 -0.5145 -0.5856
 9855TIP3    H151056   3.370   3.492  15.785 -0.1392 -0.1029 -0.6394
 9855TIP3    H251057   3.269   3.457  15.892  0.1858 -0.7636 -0.5440
 9856TIP3   OH251058   4.697   5.442  11.730  0.0059 -0.1069  0.5252
 9856TIP3    H151059   4.741   5.374  11.678 -0.6220  0.9567 -1.4456
 9856TIP3    H251060   4.748   5.521  11.714 -2.1202  0.9580 -1.1205
 9857TIP3   OH251061   4.638   0.422  10.924 -0.6197  0.5225 -0.2587
 9857TIP3    H151062   4.694   0.383  10.992 -0.6268  1.3172  0.2069
 9857TIP3    H251063   4.650   0.516  10.934 -1.9576  0.6983 -0.2324
 9858TIP3   OH251064   0.536   6.133   4.178 -0.4408 -0.0380 -0.3382
 9858TIP3    H151065   0.627   6.105   4.168 -0.3301  0.0337  0.4418
 9858TIP3    H251066   0.487   6.073   4.121  0.3996  1.8809 -3.2204
 9859TIP3   OH251067   5.726   2.984   3.200  0.0790 -0.0485 -0.1204
 9859TIP3    H151068   5.754   3.073   3.180 -0.4108  0.2139  0.3432
 9859TIP3    H251069   5.773   2.929   3.137  0.4621  0.5254 -0.3392
 9860TIP3   OH251070   5.761   1.271  16.518  0.0905 -0.6181 -0.1462
 9860TIP3    H151071   5.774   1.297  16.610 -0.8442  1.9839 -0.7210
 9860TIP3    H251072   5.675   1.305  16.495  0.1726 -1.5408 -1.9146
 9861TIP3   OH251073   3.066   2.353  16.821 -1.0483 -0.4720 -0.4225
 9861TIP3    H151074   3.005   2.426  16.808 -1.3030 -0.5881  0.1093
 9861TIP3    H251075   3.150   2.395  16.839 -0.7085 -0.3024 -2.2471
 9862TIP3   OH251076   1.974   3.026  13.199 -0.2657 -0.0382  0.6036
 9862TIP3    H151077   1.910   3.085  13.159 -0.0918  0.4258  1.0056
 9862TIP3    H251078   2.049   3.081  13.218  0.8812 -0.8999 -1.3203
 9863TIP3   OH251079   6.202   1.020  11.861 -0.2100  0.3378  0.1676
 9863TIP3    H151080   6.262   0.965  11.912 -0.3806 -0.4136 -0.4348
 9863TIP3    H251081   6.122   1.021  11.913 -0.0250  0.4651  0.4513
 9864TIP3   OH251082   0.590   4.038  12.580 -0.1793 -0.3920  0.2410
 9864TIP3    H151083   0.504   4.038  12.621  0.3735 -1.4071  1.4336
 9864TIP3    H251084   0.623   3.949  12.592  0.4040 -0.4385 -1.5673
 9865TIP3   OH251085   5.468   0.841   4.033  0.2704 -0.3345  0.0987
 9865TIP3    H151086   5.380   0.836   3.997  0.7360 -0.0152 -1.1193
 9865TIP3    H251087   5.514   0.766   3.995  0.1575 -1.2547  1.7652
 9866TIP3   OH251088   1.585   5.896  12.660 -0.4832  0.4564 -0.4980
 9866TIP3    H151089   1.658   5.954  12.638 -0.0641 -0.0420 -0.4252
 9866TIP3    H251090   1.507   5.946  12.635 -0.0800  0.5856 -1.5591
 9867TIP3   OH251091   1.292   1.692  14.718  0.7500  1.1453  0.0972
 9867TIP3    H151092   1.241   1.611  14.714  1.9676  0.2788  1.6719
 9867TIP3    H251093   1.227   1.762  14.705 -0.7694  0.0461  1.6371
 9868TIP3   OH251094   6.421   5.380   4.658  0.4626  0.4589  0.0250
 9868TIP3    H151095   6.466   5.296   4.647 -2.2909 -0.8551 -1.7381
 9868TIP3    H251096   6.451   5.433   4.584 -0.2902 -0.1581 -0.7332
 9869TIP3   OH251097   1.634   6.582  12.696  0.3153  0.0602 -0.2029
 9869TIP3    H151098   1.717   6.579  12.744  0.4668 -2.5627 -0.5366
 9869TIP3    H251099   1.568   6.593  12.764  0.8080  0.4521  0.2226
 9870TIP3   OH251100   0.892   1.262   3.415 -0.2698 -0.2877  0.8301
 9870TIP3    H151101   0.956   1.270   3.345 -0.0462  0.3181  1.0969
 9870TIP3    H251102   0.831   1.195   3.385  1.8457 -2.6165  1.6114
 9871TIP3   OH251103   4.726   0.743  15.154 -0.0722 -0.3407 -0.6834
 9871TIP3    H151104   4.673   0.794  15.093  1.4538 -0.5788 -2.2435
 9871TIP3    H251105   4.778   0.809  15.201 -0.3926 -0.2376 -0.4734
 9872TIP3   OH251106   5.035   6.595   2.481 -0.4115 -0.5108 -0.1503
 9872TIP3    H151107   5.101   6.615   2.548 -2.1392  0.6752  1.2537
 9872TIP3    H251108   4.957   6.644   2.509 -1.6717 -1.3149 -2.1538
 9873TIP3   OH251109   3.199   4.366   3.329 -0.4607  0.3910 -0.1808
 9873TIP3    H151110   3.188   4.294   3.267 -0.9831  1.2686 -1.1090
 9873TIP3    H251111   3.291   4.361   3.355 -0.5788 -0.8123  0.0030
 9874TIP3   OH251112   4.666   2.555   0.727  0.2699 -0.8110 -0.5017
 9874TIP3    H151113   4.633   2.602   0.804 -0.3727 -2.3549  0.1876
 9874TIP3    H251114   4.588   2.543   0.671  0.2973 -1.6452 -0.3611
 9875TIP3   OH251115   6.405   2.415   1.142  0.0174  0.0649 -0.3060
 9875TIP3    H151116   6.384   2.351   1.210  1.1630  0.5841  0.5577
 9875TIP3    H251117   6.403   2.500   1.187  0.3378  0.4591 -1.0232
 9876TIP3   OH251118   2.139   4.053  13.873 -0.1599  0.5717  0.0074
 9876TIP3    H151119   2.074   4.014  13.932  2.0710 -1.0391  1.4834
 9876TIP3    H251120   2.166   4.134  13.918  0.7453 -0.1007  0.6947
 9877TIP3   OH251121   0.693   1.747  11.772  0.1813  0.1705  0.2933
 9877TIP3    H151122   0.775   1.795  11.760  0.3242  0.2261  1.4184
 9877TIP3    H251123   0.720   1.655  11.779  0.0616  0.0947 -0.2530
 9878TIP3   OH251124   5.821   6.458  13.644 -0.6780  0.0682 -0.1946
 9878TIP3    H151125   5.867   6.488  13.566  0.5402  1.1959  0.9310
 9878TIP3    H251126   5.762   6.531  13.666  0.2738  0.5003  0.9548
 9879TIP3   OH251127   2.847   3.640  11.165  0.4768  0.0559 -0.1711
 9879TIP3    H151128   2.925   3.625  11.112 -0.7737 -1.9878 -1.5041
 9879TIP3    H251129   2.833   3.557  11.212 -1.2970  0.1415 -0.5172
 9880TIP3   OH251130   1.744   1.048  15.040  0.0864 -0.0203  0.2431
 9880TIP3    H151131   1.831   1.089  15.036  1.2575 -2.4500 -0.1519
 9880TIP3    H251132   1.713   1.049  14.950  0.1368 -0.0308  0.2259
 9881TIP3   OH251133   5.610   0.540   2.766  0.0938 -0.0644 -0.4670
 9881TIP3    H151134   5.590   0.632   2.748  0.1628 -0.4664 -2.6851
 9881TIP3    H251135   5.691   0.523   2.718 -0.3069 -1.4780 -0.6705
 9882TIP3   OH251136   1.775   2.034  16.260  0.4040  0.5787  0.5523
 9882TIP3    H151137   1.794   1.947  16.296  0.3674 -0.4769 -1.9295
 9882TIP3    H251138   1.689   2.056  16.297  0.6509 -0.1963  1.6137
 9883TIP3   OH251139   1.385   0.017  13.128 -0.1170  0.3243 -0.1068
 9883TIP3    H151140   1.372   0.103  13.089  1.0267  0.7639  0.4299
 9883TIP3    H251141   1.389  -0.043  13.054 -1.3720  0.6688 -0.4602
 9884TIP3   OH251142   1.284   2.337   4.705 -0.1169  0.3989 -0.0872
 9884TIP3    H151143   1.298   2.420   4.660  0.9571 -0.3853 -1.2357
 9884TIP3    H251144   1.335   2.344   4.786 -1.3491  1.4827  0.5913
 9885TIP3   OH251145   0.417   3.822   4.797 -0.4582  0.1159  0.3964
 9885TIP3    H151146   0.418   3.779   4.882 -1.1135 -0.1093  0.2958
 9885TIP3    H251147   0.396   3.913   4.816 -2.8995 -0.3731  0.3131
 9886TIP3   OH251148   2.909   1.889   5.229 -0.1581  0.7026 -0.0693
 9886TIP3    H151149   2.974   1.959   5.230  0.4254  0.1777 -0.4714
 9886TIP3    H251150   2.828   1.931   5.256 -0.1984  1.9205 -1.9826
 9887TIP3   OH251151   2.846   1.943  17.151 -0.2465  0.0440  0.4027
 9887TIP3    H151152   2.770   1.973  17.201  0.1919 -2.4032  2.6178
 9887TIP3    H251153   2.921   1.981  17.197  0.0494 -0.4001  0.2835
 9888TIP3   OH251154   0.366   0.359  14.823  0.5739 -0.7365 -0.0605
 9888TIP3    H151155   0.410   0.311  14.893  0.7761 -2.4296 -1.3212
 9888TIP3    H251156   0.381   0.452  14.844  0.3664 -1.2163  2.2712
 9889TIP3   OH251157   1.011   0.779   5.110  0.2745 -0.3812 -0.3133
 9889TIP3    H151158   0.978   0.868   5.123  3.7870  1.1829 -1.4359
 9889TIP3    H251159   0.959   0.745   5.037 -0.3209  1.1877 -0.6429
 9890TIP3   OH251160   4.829   0.465  17.211 -0.1571  0.0821 -0.1035
 9890TIP3    H151161   4.907   0.410  17.210  0.8243  1.4129  1.3388
 9890TIP3    H251162   4.756   0.404  17.214  0.8483 -1.1673 -0.7395
 9891TIP3   OH251163   4.190   0.085   1.720 -0.0896  0.1064 -0.0210
 9891TIP3    H151164   4.256   0.102   1.652 -0.3699  0.5007 -0.1962
 9891TIP3    H251165   4.118   0.144   1.698  0.8311  2.0680  2.0628
 9892TIP3   OH251166   4.779   4.033  12.338 -0.2317  0.4761 -0.5125
 9892TIP3    H151167   4.770   4.092  12.413 -0.2571  1.6627 -1.4399
 9892TIP3    H251168   4.790   4.091  12.263  1.7861 -0.7327 -1.1756
 9893TIP3   OH251169   0.143   3.825  13.658 -0.0514  0.2524 -0.3234
 9893TIP3    H151170   0.188   3.768  13.721 -0.5968 -1.7332 -1.6976
 9893TIP3    H251171   0.052   3.826  13.688 -0.2114 -0.2908 -0.7882
 9894TIP3   OH251172   4.486   2.327   6.287 -0.1042 -0.0430 -0.3637
 9894TIP3    H151173   4.495   2.301   6.378  1.2270  0.6549 -0.2966
 9894TIP3    H251174   4.565   2.378   6.267  0.8975 -2.3436 -2.6373
 9895TIP3   OH251175   0.333   1.506  11.693  0.3384 -0.0467 -0.1599
 9895TIP3    H151176   0.340   1.563  11.616  0.1163  0.1776 -0.0159
 9895TIP3    H251177   0.285   1.429  11.661  0.7094 -0.1902 -0.3744
 9896TIP3   OH251178   0.616   3.673  14.499  0.1421 -0.3877  0.1174
 9896TIP3    H151179   0.570   3.748  14.538 -1.2867 -0.9435 -0.4791
 9896TIP3    H251180   0.658   3.709  14.420 -0.3362 -0.1583 -0.0357
 9897TIP3   OH251181   1.813   0.366   4.102 -0.5210 -0.0289  0.2102
 9897TIP3    H151182   1.776   0.450   4.076 -2.1657 -0.5877  0.6978
 9897TIP3    H251183   1.781   0.351   4.191  0.3221 -0.8532  0.3964
 9898TIP3   OH251184   1.171   3.464  14.963 -0.1824  0.2834 -0.3657
 9898TIP3    H151185   1.081   3.431  14.958 -1.0368  2.5396 -0.1336
 9898TIP3    H251186   1.174   3.515  15.044  1.2830  0.3329 -0.4302
 9899TIP3   OH251187   3.585   3.207  16.996 -0.1392 -0.0560 -0.0625
 9899TIP3    H151188   3.648   3.279  16.994 -0.2339 -0.0015 -2.7030
 9899TIP3    H251189   3.509   3.240  16.949 -2.0820 -0.2392  2.8135
 9900TIP3   OH251190   1.936   5.312   2.262 -0.2474 -0.0019  0.1406
 9900TIP3    H151191   1.906   5.319   2.171 -1.2812  0.2531  0.4837
 9900TIP3    H251192   2.005   5.378   2.270 -1.1290  0.9644 -0.0894
 9901TIP3   OH251193   3.706   0.427  16.257 -0.1220 -0.2550  0.7068
 9901TIP3    H151194   3.764   0.486  16.209  0.0441 -0.9847 -0.0034
 9901TIP3    H251195   3.703   0.463  16.345  0.5689  0.3908  0.4744
 9902TIP3   OH251196   6.088   5.202  16.962  0.5550 -0.3327  0.9898
 9902TIP3    H151197   6.021   5.137  16.984 -0.9436  0.3328 -1.4918
 9902TIP3    H251198   6.045   5.287  16.975  1.0105  0.1038 -0.2765
 9903TIP3   OH251199   5.060   0.639  17.246 -0.2894 -0.6687 -0.5454
 9903TIP3    H151200   5.053   0.676  17.157 -1.2533  0.6165  0.0461
 9903TIP3    H251201   4.976   0.595  17.260 -0.2365 -0.6519 -0.1785
 9904TIP3   OH251202   2.802   4.005   6.145 -0.3328 -0.0159 -0.4642
 9904TIP3    H151203   2.857   4.045   6.078 -0.8046  0.6046 -0.4955
 9904TIP3    H251204   2.863   3.976   6.213  0.2522 -1.6304 -1.6361
 9905TIP3   OH251205   2.632   4.190   2.862 -0.0588  0.2114  0.1544
 9905TIP3    H151206   2.708   4.132   2.873 -0.0170  0.3005  0.3394
 9905TIP3    H251207   2.623   4.233   2.947  0.7276  1.4752 -0.3754
 9906TIP3   OH251208   6.778   5.090  13.308  0.6545 -0.0681  0.3875
 9906TIP3    H151209   6.683   5.093  13.299  0.8010  2.1330 -0.6019
 9906TIP3    H251210   6.810   5.068  13.221  1.0892 -0.3144  0.6044
 9907TIP3   OH251211   1.578   6.430   1.775  0.6456 -0.1578  0.2387
 9907TIP3    H151212   1.521   6.353   1.781  0.4378 -0.1578 -1.4921
 9907TIP3    H251213   1.554   6.471   1.692  0.2943  2.1731  1.4729
 9908TIP3   OH251214   6.032   2.661   5.747  0.1639 -0.1030 -0.3037
 9908TIP3    H151215   5.954   2.649   5.801  0.1397  0.1513 -0.2800
 9908TIP3    H251216   6.104   2.662   5.809  0.4076 -2.5026 -0.5083
 9909TIP3   OH251217   6.524   1.379  11.233  0.2833 -0.4168 -0.3649
 9909TIP3    H151218   6.607   1.418  11.206  0.3196 -0.4963 -0.3688
 9909TIP3    H251219   6.518   1.299  11.181 -0.8960  0.7372 -2.0815
 9910TIP3   OH251220   2.457   5.544  12.729  0.3611  0.0352  0.2402
 9910TIP3    H151221   2.552   5.552  12.742  0.2164  0.8240  0.8699
 9910TIP3    H251222   2.448   5.497  12.646  1.3103  0.5023 -0.1375
 9911TIP3   OH251223   0.850   3.580  16.742 -0.4527 -0.0678  0.3483
 9911TIP3    H151224   0.813   3.492  16.747 -0.0225 -0.5230 -3.3815
 9911TIP3    H251225   0.774   3.638  16.743 -0.8220 -0.5545  0.8241
 9912TIP3   OH251226   6.600   0.454   1.879  0.4663 -0.4447  0.5437
 9912TIP3    H151227   6.534   0.390   1.906 -0.3973  0.4112  0.4852
 9912TIP3    H251228   6.592   0.458   1.784 -0.2343  0.5346  0.6299
 9913TIP3   OH251229   0.148   2.235  13.927 -0.0335 -0.0882 -0.6263
 9913TIP3    H151230   0.059   2.205  13.908 -1.4922  1.2163  3.5204
 9913TIP3    H251231   0.149   2.326  13.901 -0.1321  0.0610 -0.1206
 9914TIP3   OH251232   6.723   4.429   6.005  0.2471 -0.0174  0.1279
 9914TIP3    H151233   6.736   4.451   5.912 -1.5015 -2.1883 -0.6857
 9914TIP3    H251234   6.790   4.364   6.025  1.3996  1.3443  0.7486
 9915TIP3   OH251235   4.858   0.569   4.554 -0.9134  0.0073 -0.9498
 9915TIP3    H151236   4.942   0.535   4.586 -1.5449  0.1587  0.8804
 9915TIP3    H251237   4.796   0.498   4.569 -1.1085 -0.1442 -2.4020
 9916TIP3   OH251238   4.428   4.165  14.054 -0.1179 -0.0477 -0.0570
 9916TIP3    H151239   4.403   4.237  13.997 -1.2987  0.1005  0.6396
 9916TIP3    H251240   4.465   4.206  14.131  0.6022 -0.2275 -0.3020
 9917TIP3   OH251241   1.277   3.988  14.406 -0.2927  0.3098  0.2186
 9917TIP3    H151242   1.370   4.008  14.400 -0.2039 -0.0976  0.2763
 9917TIP3    H251243   1.240   4.064  14.452 -0.0614  0.6788 -0.2007
 9918TIP3   OH251244   5.950   0.432  14.597  0.4655  0.3188  0.3596
 9918TIP3    H151245   6.016   0.493  14.629  2.0198 -0.3904 -1.4003
 9918TIP3    H251246   5.902   0.481  14.530 -0.4234  0.6352  1.2106
 9919TIP3   OH251247   2.707   4.547   2.246  0.0236  0.0145  0.2791
 9919TIP3    H151248   2.802   4.555   2.236 -0.1772 -0.2778 -2.1668
 9919TIP3    H251249   2.676   4.516   2.161 -2.6420  3.3783 -0.1187
 9920TIP3   OH251250   1.507   0.997  13.143  0.8809 -0.8835  0.6069
 9920TIP3    H151251   1.596   0.992  13.109  0.5958 -0.0890 -0.2879
 9920TIP3    H251252   1.458   1.040  13.073 -0.0268 -0.5664  1.4390
 9921TIP3   OH251253   4.740   1.485  16.424 -0.5291  0.3842  0.0095
 9921TIP3    H151254   4.755   1.417  16.490 -2.5325 -1.0229 -0.9278
 9921TIP3    H251255   4.703   1.438  16.350  1.3991  1.9840 -2.0531
 9922TIP3   OH251256   4.584   6.010  14.300 -0.2110  0.1866 -0.1484
 9922TIP3    H151257   4.524   5.980  14.369 -2.1000  0.5778 -1.5958
 9922TIP3    H251258   4.566   5.953  14.226 -0.4350  1.8003 -1.3519
 9923TIP3   OH251259   0.640   4.072  14.616 -0.1205 -0.0099  0.1297
 9923TIP3    H151260   0.675   4.056  14.703 -1.5317  1.4632  0.9974
 9923TIP3    H251261   0.699   4.137  14.578 -0.6356  0.8249  0.7476
 9924TIP3   OH251262   5.226   1.936   4.251  0.0472  0.3541 -0.2843
 9924TIP3    H151263   5.305   1.963   4.205 -1.2891  1.0171 -2.2621
 9924TIP3    H251264   5.177   2.018   4.264 -0.8129 -0.1955 -0.0211
 9925TIP3   OH251265   0.558   3.694  14.798  0.4867  0.7222 -0.2124
 9925TIP3    H151266   0.594   3.739  14.874  1.7473 -1.1793  0.3523
 9925TIP3    H251267   0.512   3.618  14.834  2.0629 -0.8357 -1.3816
 9926TIP3   OH251268   4.371   2.738  14.629 -0.8735  0.0673  0.4260
 9926TIP3    H151269   4.451   2.784  14.604 -0.3302 -0.9196  0.3112
 9926TIP3    H251270   4.304   2.806  14.632  0.0031  0.9295  0.6909
 9927TIP3   OH251271   1.396   4.262   0.050 -0.1480 -0.6911 -0.3436
 9927TIP3    H151272   1.308   4.300   0.048 -0.3028 -0.9941  0.8385
 9927TIP3    H251273   1.440   4.307   0.122 -0.3035 -2.7130  1.0289
 9928TIP3   OH251274   1.696   1.125   4.144  0.4368 -0.4360 -0.1333
 9928TIP3    H151275   1.705   1.120   4.049  0.4233  1.0540 -0.2310
 9928TIP3    H251276   1.705   1.218   4.163 -0.7782 -0.5791  1.1983
 9929TIP3   OH251277   5.944   6.154  16.770 -0.0834 -1.4212 -0.1860
 9929TIP3    H151278   5.948   6.119  16.859  2.6889 -0.5977  0.0501
 9929TIP3    H251279   5.970   6.081  16.715 -1.6298 -1.8802 -0.3310
 9930TIP3   OH251280   3.943   1.950  12.996 -0.6891 -0.2211  0.3405
 9930TIP3    H151281   3.938   1.854  12.999 -0.6571 -0.2139  0.6367
 9930TIP3    H251282   3.875   1.980  13.057 -1.5195 -0.0373 -0.6714
 9931TIP3   OH251283   0.648   3.661  13.195  0.3889  0.1126 -0.5306
 9931TIP3    H151284   0.712   3.596  13.226  1.6640  1.4171 -0.3934
 9931TIP3    H251285   0.683   3.745  13.223 -1.4808  0.8587 -0.3079
 9932TIP3   OH251286   0.010   3.962   5.651  0.1201 -0.6262  0.1489
 9932TIP3    H151287   0.071   4.035   5.653  1.5430 -1.7280 -1.5588
 9932TIP3    H251288  -0.011   3.945   5.743  0.0999  1.6141  0.5921
 9933TIP3   OH251289   3.347   0.130  16.526 -0.6041 -0.3663  0.1332
 9933TIP3    H151290   3.334   0.045  16.484  0.1554 -0.3038 -0.2319
 9933TIP3    H251291   3.430   0.163  16.490 -0.2472 -0.0460  1.2179
 9934TIP3   OH251292   4.379   2.048  11.210 -0.0229 -0.1068 -0.4414
 9934TIP3    H151293   4.328   1.986  11.262 -0.9206  0.2072 -0.9328
 9934TIP3    H251294   4.392   2.004  11.126 -0.1845  0.1431 -0.5993
 9935TIP3   OH251295   0.338   5.828   2.272  0.0647  0.4254 -0.2433
 9935TIP3    H151296   0.319   5.913   2.232 -0.5277  1.5518  2.3390
 9935TIP3    H251297   0.412   5.794   2.221 -0.2415  2.0849 -1.8562
 9936TIP3   OH251298   4.114   3.320  15.494 -0.4305  0.5240  0.6566
 9936TIP3    H151299   4.118   3.317  15.589 -0.2976  1.3214  0.6793
 9936TIP3    H251300   4.111   3.413  15.473  2.0253  0.4514 -0.2010
 9937TIP3   OH251301   0.682   6.099   1.873  0.5811  0.4966 -0.2547
 9937TIP3    H151302   0.713   6.115   1.784  0.1723 -0.7351 -0.6187
 9937TIP3    H251303   0.686   6.185   1.915 -1.4901  1.5612 -2.1514
 9938TIP3   OH251304   5.119   5.674  16.375  0.4470 -0.2622 -0.3432
 9938TIP3    H151305   5.170   5.593  16.369 -1.8246 -1.6699 -1.5485
 9938TIP3    H251306   5.056   5.657  16.445 -0.0538  0.4721 -0.6151
 9939TIP3   OH251307   4.426   2.978   1.437 -0.3409  0.7295  0.7471
 9939TIP3    H151308   4.351   3.005   1.491 -0.4547 -0.3936  1.1565
 9939TIP3    H251309   4.427   3.040   1.364 -1.7724  0.6395  0.6448
 9940TIP3   OH251310   1.091   0.060   4.197 -0.3146  0.0697  0.1583
 9940TIP3    H151311   1.157   0.016   4.251 -1.4409 -0.0846  1.4251
 9940TIP3    H251312   1.142   0.122   4.144  0.7830  0.4792  1.6505
 9941TIP3   OH251313   1.367   0.245  14.747 -0.2816  0.4400  0.6346
 9941TIP3    H151314   1.301   0.177  14.734 -2.0790  2.2998 -0.2990
 9941TIP3    H251315   1.450   0.201  14.732 -1.3525 -1.7294  0.8305
 9942TIP3   OH251316   3.358   5.945  14.757  0.2594 -0.2910 -0.0972
 9942TIP3    H151317   3.285   5.997  14.721 -1.2525 -2.8433 -0.8403
 9942TIP3    H251318   3.414   5.929  14.681  2.4632  2.9253  0.7550
 9943TIP3   OH251319   5.003   3.833  14.103 -0.1041 -0.2312  0.3022
 9943TIP3    H151320   5.000   3.917  14.148  0.1969 -0.1488  0.1720
 9943TIP3    H251321   4.960   3.849  14.019 -1.5800 -0.6418  0.9630
 9944TIP3   OH251322   1.339   6.811  15.453 -0.2042  0.1904 -0.1644
 9944TIP3    H151323   1.383   6.867  15.517 -1.7244 -0.4912  1.5166
 9944TIP3    H251324   1.407   6.752  15.422  0.7298  1.0487  0.2164
 9945TIP3   OH251325   5.955   3.992  15.682  0.0598 -0.0672 -0.5720
 9945TIP3    H151326   5.926   4.049  15.612  0.4776  0.9327  0.0542
 9945TIP3    H251327   6.009   4.048  15.738 -0.2309 -0.8544  0.5201
 9946TIP3   OH251328   3.630   5.774  15.142 -0.3326  0.0877  0.1449
 9946TIP3    H151329   3.598   5.690  15.174  0.9538 -0.3851  0.2049
 9946TIP3    H251330   3.555   5.833  15.152 -1.3042 -1.0902 -0.1017
 9947TIP3   OH251331   5.335   4.096   0.945 -0.4835 -0.1154 -0.0655
 9947TIP3    H151332   5.356   4.127   0.857  1.9179 -0.2401  0.4105
 9947TIP3    H251333   5.398   4.141   1.002 -2.6746  0.7561  1.7387
 9948TIP3   OH251334   3.645   5.322  13.313  0.1109 -0.0217 -0.2321
 9948TIP3    H151335   3.600   5.373  13.380 -0.4735  0.1366 -0.7362
 9948TIP3    H251336   3.691   5.387  13.261  0.6419 -0.1530  0.0774
 9949TIP3   OH251337   2.116   5.372  15.053 -0.0976 -0.3487 -0.3726
 9949TIP3    H151338   2.082   5.285  15.073  0.3461 -0.0189  1.9404
 9949TIP3    H251339   2.207   5.358  15.029 -0.5412 -0.7136 -1.8764
 9950TIP3   OH251340   1.076   4.265  13.685 -0.1361  0.1974  0.1839
 9950TIP3    H151341   1.104   4.251  13.594  1.6583 -1.5294  0.9624
 9950TIP3    H251342   0.990   4.222  13.690 -0.3875  0.5697 -0.7734
 9951TIP3   OH251343   0.033   2.754  14.359 -0.8438 -0.2196 -0.1681
 9951TIP3    H151344   0.100   2.780  14.295 -1.6753 -2.1516 -1.9131
 9951TIP3    H251345   0.022   2.830  14.415  1.7257  0.6592 -0.7899
 9952TIP3   OH251346   4.249   3.017   5.089  0.3035 -0.2649  0.3625
 9952TIP3    H151347   4.221   2.932   5.055 -0.3415  0.4182 -0.8241
 9952TIP3    H251348   4.320   3.044   5.030 -0.8417  0.9414 -0.4861
 9953TIP3   OH251349   2.901   4.478   4.544 -0.1472 -0.8582  0.2647
 9953TIP3    H151350   2.913   4.402   4.486  0.0870  0.7512 -1.8803
 9953TIP3    H251351   2.811   4.506   4.530  0.2116  0.1534 -0.1181
 9954TIP3   OH251352   6.585   3.947  14.447 -0.7289 -0.3057  0.0534
 9954TIP3    H151353   6.525   3.873  14.457 -0.6077 -0.5649 -1.1419
 9954TIP3    H251354   6.668   3.908  14.424 -0.6322  0.2008 -0.4650
 9955TIP3   OH251355   2.615   5.136  12.840  0.2806 -0.2538 -0.1222
 9955TIP3    H151356   2.599   5.186  12.760 -1.4618 -0.6049 -0.0098
 9955TIP3    H251357   2.641   5.049  12.809 -1.7528 -0.8106 -0.3364
 9956TIP3   OH251358   0.001   2.527   3.538 -0.5392  0.0692 -0.0857
 9956TIP3    H151359  -0.021   2.472   3.613 -0.1191 -0.4749 -0.3622
 9956TIP3    H251360   0.053   2.599   3.574 -0.1375 -0.3200  0.1000
 9957TIP3   OH251361   2.147   0.763   5.859  0.2263 -0.2964  0.0717
 9957TIP3    H151362   2.183   0.727   5.779 -0.6444 -0.4125 -0.2701
 9957TIP3    H251363   2.074   0.705   5.882 -0.7468  0.8292 -0.1063
 9958TIP3   OH251364   0.655   3.028  17.041  0.3506  0.1521 -0.2201
 9958TIP3    H151365   0.738   2.983  17.055 -1.0142 -2.3151  0.0990
 9958TIP3    H251366   0.661   3.062  16.951 -0.0352 -3.8611 -1.8448
 9959TIP3   OH251367   2.311   5.381  12.895  0.6765  0.5573  0.1779
 9959TIP3    H151368   2.280   5.301  12.852 -1.0630  2.3896 -2.0763
 9959TIP3    H251369   2.375   5.417  12.834 -0.0479  1.9277  0.2095
 9960TIP3   OH251370   5.612   4.732   4.852 -0.4983 -0.0547  0.6720
 9960TIP3    H151371   5.686   4.671   4.842 -0.6395 -0.2190  0.6130
 9960TIP3    H251372   5.535   4.677   4.841 -0.6272  0.1481  0.5567
 9961TIP3   OH251373   6.342   1.758  14.310  0.3318 -0.5644 -0.0775
 9961TIP3    H151374   6.325   1.787  14.400 -0.1315 -3.5289  0.8692
 9961TIP3    H251375   6.255   1.749  14.271  0.3842 -1.7216  0.0389
 9962TIP3   OH251376   0.545   2.660   2.189  0.4892 -0.0093 -0.6370
 9962TIP3    H151377   0.492   2.735   2.162  2.1143  0.6514 -2.0970
 9962TIP3    H251378   0.482   2.593   2.215 -0.9882  1.5907 -0.0854
 9963TIP3   OH251379   3.397   3.767  11.282 -0.0110  0.3994 -0.3717
 9963TIP3    H151380   3.453   3.697  11.318 -1.4145 -0.3086  0.4889
 9963TIP3    H251381   3.411   3.762  11.188  1.7689  0.5691 -0.1377
 9964TIP3   OH251382   0.386   1.388   5.488 -0.1721 -0.1015 -0.1670
 9964TIP3    H151383   0.440   1.467   5.492 -0.3872  0.0994 -1.1506
 9964TIP3    H251384   0.421   1.332   5.557  0.8605  0.3011 -0.3524
 9965TIP3   OH251385   0.493   0.589  10.426  0.1566  0.3298 -0.3051
 9965TIP3    H151386   0.567   0.548  10.471  1.0455  1.1770 -1.0005
 9965TIP3    H251387   0.533   0.649  10.363 -1.1273  2.4303  0.8146
 9966TIP3   OH251388   1.117   2.382  17.176  0.3558 -0.4680 -0.0648
 9966TIP3    H151389   1.099   2.451  17.240 -1.3136 -0.6132 -0.3652
 9966TIP3    H251390   1.186   2.329  17.217  1.6190  1.3381  0.1791
 9967TIP3   OH251391   2.265   6.211  16.811 -0.2331  0.4955 -0.1854
 9967TIP3    H151392   2.303   6.124  16.819  0.5979  0.6441 -2.1487
 9967TIP3    H251393   2.332   6.269  16.848 -0.4534  0.3811  0.4019
 9968TIP3   OH251394   3.440   3.296   6.650  0.4576  0.3255  0.5212
 9968TIP3    H151395   3.412   3.215   6.608 -0.1592  1.0800 -0.5501
 9968TIP3    H251396   3.367   3.356   6.638 -0.3381  0.1424  3.9884
 9969TIP3   OH251397   5.419   3.135   6.488  0.1522  0.0217 -0.1777
 9969TIP3    H151398   5.459   3.060   6.445  0.6318  0.4001 -0.3921
 9969TIP3    H251399   5.328   3.134   6.458  0.5631  0.4857 -1.4857
 9970TIP3   OH251400   4.271   4.524  11.708 -0.5047 -0.0596  0.1767
 9970TIP3    H151401   4.218   4.461  11.758 -0.3204  1.6956  2.6757
 9970TIP3    H251402   4.303   4.474  11.634  0.2085 -3.1475  2.4508
 9971TIP3   OH251403   4.764   6.331  15.770  0.5811  0.8086  0.2982
 9971TIP3    H151404   4.735   6.337  15.679 -0.8489  0.2301  0.7027
 9971TIP3    H251405   4.846   6.280  15.766 -0.2740 -0.5418 -0.5208
 9972TIP3   OH251406   4.233   3.960   0.100 -0.1341 -0.3925 -0.2040
 9972TIP3    H151407   4.174   3.893   0.064  0.4267 -1.9358  1.6662
 9972TIP3    H251408   4.191   3.987   0.182  1.9021 -1.8243  1.3725
 9973TIP3   OH251409   2.946   0.815   5.040 -0.1333 -0.6038  0.1793
 9973TIP3    H151410   2.983   0.889   5.089 -3.0387 -0.0200  1.5930
 9973TIP3    H251411   2.905   0.856   4.963 -0.1152 -0.9507 -0.0134
 9974TIP3   OH251412   6.272   2.517   1.773  0.5456  0.2298 -1.0190
 9974TIP3    H151413   6.300   2.461   1.845  0.0022 -0.1966 -1.1394
 9974TIP3    H251414   6.190   2.478   1.742  0.7351  0.4554 -1.8187
 9975TIP3   OH251415   5.342   6.393  16.409 -0.3864  0.2347 -0.2089
 9975TIP3    H151416   5.315   6.485  16.403 -0.0811  0.3105 -0.4276
 9975TIP3    H251417   5.282   6.355  16.474 -2.2809 -0.0549 -2.0470
 9976TIP3   OH251418   3.793   5.499   3.221 -0.5641  0.0380 -0.3642
 9976TIP3    H151419   3.786   5.427   3.284 -0.0701  1.0659  0.8851
 9976TIP3    H251420   3.735   5.474   3.150  1.4050 -2.7016 -1.0508
 9977TIP3   OH251421   0.074   4.212   5.370 -0.2466 -0.7490 -0.4296
 9977TIP3    H151422   0.146   4.149   5.372  2.4283  2.0546 -2.9515
 9977TIP3    H251423   0.077   4.249   5.282 -2.5934  1.9220  0.5368
 9978TIP3   OH251424   4.407   1.800   1.593 -0.0211 -0.0810 -0.3025
 9978TIP3    H151425   4.460   1.859   1.646 -0.6895  2.9657 -2.9317
 9978TIP3    H251426   4.318   1.835   1.598 -0.8505 -2.0638 -0.2854
 9979TIP3   OH251427   5.144   3.026  13.647 -0.1161 -0.4084  0.8977
 9979TIP3    H151428   5.190   3.043  13.729 -0.8997 -1.1714  1.5103
 9979TIP3    H251429   5.093   2.947  13.664 -0.7410 -0.2427 -0.1415
 9980TIP3   OH251430   3.873   3.213  14.913 -0.0414 -0.0613 -0.2595
 9980TIP3    H151431   3.936   3.240  14.979 -2.2264  0.1546  1.7929
 9980TIP3    H251432   3.881   3.279  14.844  1.1999  0.5409  0.4426
 9981TIP3   OH251433   3.828   5.681  15.601 -0.0461  0.0467 -0.4355
 9981TIP3    H151434   3.893   5.752  15.600 -0.0524  0.0345 -1.5665
 9981TIP3    H251435   3.880   5.602  15.616  0.1361  0.1020 -0.7819
 9982TIP3   OH251436   5.186   5.073  17.015  0.2773 -0.0841  0.0175
 9982TIP3    H151437   5.226   5.003  16.962  1.1510  0.7026 -0.3783
 9982TIP3    H251438   5.148   5.027  17.090  0.2750 -1.0571 -0.5611
 9983TIP3   OH251439   5.930   0.799  11.529 -0.2550 -0.0957 -0.2840
 9983TIP3    H151440   5.996   0.794  11.598 -2.5073 -1.3054  1.8546
 9983TIP3    H251441   5.934   0.889  11.498  1.4361  0.2027  0.7508
 9984TIP3   OH251442   5.893   0.994   1.344  0.2515  0.2067 -0.4138
 9984TIP3    H151443   5.880   0.962   1.433  0.4726  1.6361  0.1408
 9984TIP3    H251444   5.809   1.033   1.320  0.7490  1.4934 -0.1213
 9985TIP3   OH251445   4.741   6.096  14.510  0.2308  0.0197  0.7373
 9985TIP3    H151446   4.693   6.047  14.444 -0.2502  1.3042  0.1096
 9985TIP3    H251447   4.832   6.096  14.480  0.3894 -1.1829  1.1790
 9986TIP3   OH251448   6.203   4.453  14.691 -0.0389 -0.7420 -0.0397
 9986TIP3    H151449   6.269   4.431  14.756  0.8845  0.3176 -0.6050
 9986TIP3    H251450   6.126   4.479  14.742  0.5939 -0.1763  0.6297
 9987TIP3   OH251451   0.224   0.185   2.314 -0.4208  0.0339 -0.0534
 9987TIP3    H151452   0.256   0.158   2.229  0.1712  0.1844  0.1195
 9987TIP3    H251453   0.292   0.157   2.376  0.5168  2.4102  0.0743
 9988TIP3   OH251454   6.221   0.883   4.575  0.0428  0.5421  0.8262
 9988TIP3    H151455   6.198   0.923   4.659  1.7547  1.4957  0.8627
 9988TIP3    H251456   6.246   0.956   4.519  1.7356 -0.3333  0.4022
 9989TIP3   OH251457   2.398   0.015  11.777 -0.6361 -0.5647 -0.2967
 9989TIP3    H151458   2.342  -0.051  11.818 -0.7958 -0.6262 -0.6114
 9989TIP3    H251459   2.344   0.094  11.776 -0.0072 -0.0987  1.1977
 9990TIP3   OH251460   5.377   0.734  13.229  0.0158 -0.0862  0.1703
 9990TIP3    H151461   5.435   0.774  13.294  3.2302  2.1178 -3.8723
 9990TIP3    H251462   5.423   0.655  13.201 -0.4741 -0.0389 -0.7697
 9991TIP3   OH251463   5.599   2.529  11.216 -0.1918 -0.1496  0.3579
 9991TIP3    H151464   5.681   2.559  11.176 -0.4865 -0.0808 -0.1945
 9991TIP3    H251465   5.559   2.610  11.250 -0.0754 -0.1723  0.5524
 9992TIP3   OH251466   0.809   4.492  11.856 -0.0266  0.4296  0.2054
 9992TIP3    H151467   0.838   4.483  11.947 -0.6183 -0.4195  0.3136
 9992TIP3    H251468   0.861   4.428  11.808  0.5017  1.0861 -0.1158
 9993TIP3   OH251469   4.855   1.469   0.910  0.1476 -0.1211 -0.4356
 9993TIP3    H151470   4.855   1.485   0.816  1.0501 -1.1628 -0.6208
 9993TIP3    H251471   4.795   1.535   0.945 -0.8226 -0.2436 -1.8174
 9994TIP3   OH251472   5.075   2.891   1.392 -0.3737  0.2156 -0.4761
 9994TIP3    H151473   5.093   2.871   1.300  0.4151 -1.0438 -0.0632
 9994TIP3    H251474   5.126   2.827   1.441 -0.4459  1.1457  0.8563
 9995TIP3   OH251475   4.992   2.686   0.363  0.4287  0.4659 -0.5707
 9995TIP3    H151476   5.052   2.622   0.402  0.7944  0.3635 -1.3081
 9995TIP3    H251477   4.974   2.748   0.434 -0.0287 -0.5250  0.1909
 9996TIP3   OH251478   6.659   4.947  13.088 -0.2214  0.3494  0.2752
 9996TIP3    H151479   6.601   4.969  13.015 -0.5940 -2.8223 -0.4518
 9996TIP3    H251480   6.744   4.981  13.061 -0.3513 -0.7979 -1.6899
 9997TIP3   OH251481   3.014   0.958   0.968  0.3325  0.1238  0.0618
 9997TIP3    H151482   3.000   0.863   0.973  2.1778 -0.1006  1.2844
 9997TIP3    H251483   3.071   0.978   1.041 -1.1646  2.4304  0.6563
 9998TIP3   OH251484   0.873   5.068   5.597 -0.2994 -0.5921 -0.0989
 9998TIP3    H151485   0.853   4.997   5.536 -0.1085 -1.5349  0.9318
 9998TIP3    H251486   0.871   5.027   5.683  1.5300  0.2992  0.3724
 9999TIP3   OH251487   1.205   6.664   5.778  0.0595  0.1808 -0.5870
 9999TIP3    H151488   1.245   6.605   5.842  0.4324  0.1475 -0.8543
 9999TIP3    H251489   1.277   6.718   5.747 -0.0460 -0.1010 -1.3161
10000TIP3   OH251490   4.399   5.546  13.546  0.1835 -0.5076  0.4350
10000TIP3    H151491   4.473   5.491  13.521  0.8567  0.4608  0.2745
10000TIP3    H251492   4.360   5.502  13.621  0.3019 -1.5608 -0.1152
10001TIP3   OH251493   0.804   4.456  13.069 -0.1116  0.1360  0.1558
10001TIP3    H151494   0.805   4.397  12.994 -0.4114 -1.0076  1.0432
10001TIP3    H251495   0.741   4.524  13.045  0.0153 -0.0553 -0.7428
10002TIP3   OH251496   4.920   4.639  17.024 -0.2613 -0.4879  0.2085
10002TIP3    H151497   4.911   4.585  17.103  0.7236 -1.4048 -0.2902
10002TIP3    H251498   4.990   4.701  17.046  0.2252 -0.9425 -0.0488
10003TIP3   OH251499   1.152   3.361  15.828 -0.1831  0.4766 -0.4053
10003TIP3    H151500   1.073   3.318  15.860 -0.5241  0.6367 -1.0400
10003TIP3    H251501   1.196   3.393  15.908 -2.2730  3.0350 -0.2151
10004TIP3   OH251502   3.051   6.352  13.737 -0.4055 -0.4764 -0.2764
10004TIP3    H151503   3.117   6.287  13.714 -0.1992 -0.0879 -0.7882
10004TIP3    H251504   3.012   6.319  13.818  0.1165 -0.9262 -0.2082
10005TIP3   OH251505   6.369   0.285  11.215  0.2957 -0.5594 -0.3051
10005TIP3    H151506   6.350   0.246  11.301 -0.7133  0.8120  0.1178
10005TIP3    H251507   6.463   0.303  11.218  0.2573 -0.4428  0.5576
10006TIP3   OH251508   5.825   5.335   3.240 -0.1506 -0.5265 -0.1397
10006TIP3    H151509   5.747   5.337   3.184 -0.6213 -3.2745  0.3285
10006TIP3    H251510   5.878   5.263   3.205  1.0590 -0.2120  0.9938
10007TIP3   OH251511   4.345   5.202  12.065 -0.2955 -0.1453  0.3660
10007TIP3    H151512   4.370   5.125  12.116  0.3836  0.0086  0.2656
10007TIP3    H251513   4.309   5.166  11.984 -0.8362 -0.3756  0.7040
10008TIP3   OH251514   2.992   6.582   4.376  0.7741  0.2640 -0.0794
10008TIP3    H151515   2.965   6.500   4.335  2.0711 -0.6088  0.7843
10008TIP3    H251516   3.077   6.562   4.415  1.2764  2.1249 -0.1921
10009TIP3   OH251517   6.143   2.508   5.485 -0.1453 -0.8758  0.0163
10009TIP3    H151518   6.070   2.472   5.434 -0.2078  1.2695 -1.4889
10009TIP3    H251519   6.102   2.573   5.542  0.7420  1.4776 -1.9639
10010TIP3   OH251520   5.897   3.847   1.745  0.3012 -0.1616  0.3733
10010TIP3    H151521   5.987   3.849   1.779  0.9692 -0.2882 -1.2856
10010TIP3    H251522   5.894   3.919   1.682 -1.5655  1.4592  2.2592
10011TIP3   OH251523   0.856   5.649  12.160  0.5837 -0.1855  0.1490
10011TIP3    H151524   0.828   5.587  12.093 -0.2131 -0.7169  0.9585
10011TIP3    H251525   0.951   5.644  12.159  0.5130 -1.9475  0.6835
10012TIP3   OH251526   0.207   2.540  15.969 -0.0904  0.0024  0.4036
10012TIP3    H151527   0.180   2.485  16.043  3.8045 -2.0815  0.4306
10012TIP3    H251528   0.227   2.478  15.899  0.4206  1.6500 -0.9498
10013TIP3   OH251529   5.151   0.510   3.482 -0.0995  0.1691  0.0227
10013TIP3    H151530   5.057   0.500   3.499 -0.1021  1.0907  0.5633
10013TIP3    H251531   5.168   0.603   3.495  1.2041 -0.2649  1.4774
10014TIP3   OH251532   5.069   6.286  16.005  0.3604  0.4944  0.3806
10014TIP3    H151533   5.105   6.255  16.089  1.8303  0.3906 -0.2764
10014TIP3    H251534   5.080   6.381  16.008 -1.1892  0.6706  1.0268
10015TIP3   OH251535   6.004   4.784  11.946  0.8528 -0.2733  0.4091
10015TIP3    H151536   5.982   4.859  11.891 -2.6988 -0.9431  0.8067
10015TIP3    H251537   6.040   4.821  12.026  1.5430  0.8828 -0.4299
10016TIP3   OH251538   2.705   6.424   3.547 -0.4320 -0.4142 -0.7978
10016TIP3    H151539   2.645   6.466   3.485 -1.7143 -0.2068  0.5700
10016TIP3    H251540   2.777   6.487   3.556 -1.4000  0.6394 -0.2484
10017TIP3   OH251541   5.619   5.512   2.418  0.0457 -0.2852 -0.2880
10017TIP3    H151542   5.538   5.461   2.413  0.7845 -1.4124 -1.2952
10017TIP3    H251543   5.612   5.574   2.345  0.3564 -0.8045 -0.7654
10018TIP3   OH251544   2.480   4.931   2.257  0.1641 -0.7095  0.9965
10018TIP3    H151545   2.396   4.905   2.295  0.1216 -1.5061  0.3622
10018TIP3    H251546   2.545   4.882   2.308  0.2718  0.0452  1.6088
10019TIP3   OH251547   2.775   2.082  13.344 -0.2650 -0.1391 -0.0299
10019TIP3    H151548   2.869   2.101  13.342 -0.0256 -0.8486  3.0607
10019TIP3    H251549   2.733   2.167  13.332  0.7718  0.4308  0.3616
10020TIP3   OH251550   2.297   2.420  15.385  0.6731  0.2637 -0.3753
10020TIP3    H151551   2.388   2.433  15.412  0.6465  1.8884 -0.9944
10020TIP3    H251552   2.283   2.486  15.316  0.0287 -2.1318 -2.6330
10021TIP3   OH251553   0.575   6.475   0.202 -0.3215  0.1902  0.1609
10021TIP3    H151554   0.614   6.441   0.283  1.2703 -0.3045 -0.7871
10021TIP3    H251555   0.568   6.569   0.217 -0.1677  0.0801  0.9402
10022TIP3   OH251556   0.230   6.245  15.864 -0.3689  0.0252 -0.0247
10022TIP3    H151557   0.321   6.255  15.894 -0.6903  0.3123  0.8823
10022TIP3    H251558   0.193   6.181  15.924 -1.0452  0.6501  0.2245
10023TIP3   OH251559   6.510   3.316   1.405 -0.7709  0.1437 -0.1211
10023TIP3    H151560   6.429   3.291   1.449 -0.7476  2.6477  1.4432
10023TIP3    H251561   6.575   3.253   1.436 -1.9262 -1.4100 -0.8000
10024TIP3   OH251562   2.720   4.461  10.526 -0.1173 -0.1816  0.2364
10024TIP3    H151563   2.793   4.419  10.479  0.6205  0.4352  0.8171
10024TIP3    H251564   2.703   4.404  10.600  0.5203  0.2506  0.7199
10025TIP3   OH251565   3.441   0.633  15.751  0.4347  0.2377  0.3829
10025TIP3    H151566   3.350   0.614  15.729  0.5214  2.5769 -2.3354
10025TIP3    H251567   3.481   0.547  15.764 -1.6284 -0.9431 -0.7683
10026TIP3   OH251568   4.105   2.069   1.233  0.2096  0.9542 -0.0673
10026TIP3    H151569   4.077   2.002   1.171 -0.5313  0.5167  0.7269
10026TIP3    H251570   4.025   2.114   1.258  0.3217  0.2941  1.5364
10027TIP3   OH251571   4.703   1.631  13.676  0.0773 -0.1408  0.6151
10027TIP3    H151572   4.740   1.715  13.648  1.2985 -1.1749 -0.9792
10027TIP3    H251573   4.608   1.642  13.665  0.4226 -0.0531 -2.8205
10028TIP3   OH251574   6.761   6.046   4.946  0.6996  0.0494 -0.5652
10028TIP3    H151575   6.699   5.982   4.981  0.3999  0.2392 -0.7459
10028TIP3    H251576   6.749   6.043   4.851  1.1496 -0.0958 -0.6213
10029TIP3   OH251577   0.691   4.874  11.315 -0.4663 -0.5388 -0.2793
10029TIP3    H151578   0.603   4.890  11.282 -0.9242  1.1742  1.6574
10029TIP3    H251579   0.677   4.821  11.394  0.2972 -0.9575 -0.4176
10030TIP3   OH251580   6.432   5.473  15.444  0.0086  0.0758 -0.0539
10030TIP3    H151581   6.410   5.458  15.352 -0.2393 -0.4730  0.0955
10030TIP3    H251582   6.513   5.424  15.457  0.9972  1.5475 -0.4288
10031TIP3   OH251583   5.185   2.663  15.516  0.4453  0.1748 -0.6750
10031TIP3    H151584   5.143   2.588  15.474 -1.3666  0.9825 -0.3637
10031TIP3    H251585   5.203   2.724  15.445 -1.9271  1.2131 -0.4540
10032TIP3   OH251586   5.176   5.926   4.475  0.2857  0.2874  0.6484
10032TIP3    H151587   5.118   5.850   4.482 -0.8098  1.0727  0.2422
10032TIP3    H251588   5.172   5.950   4.382  0.8909  0.6490  0.7152
10033TIP3   OH251589   3.309   0.377  12.381 -0.7387 -0.4304 -0.2106
10033TIP3    H151590   3.266   0.456  12.348  2.3492  0.7304 -1.6766
10033TIP3    H251591   3.390   0.371  12.330  1.3552 -1.8955  3.1281
10034TIP3   OH251592   1.252   0.838   5.761 -0.3479 -0.0947 -0.3689
10034TIP3    H151593   1.270   0.755   5.717 -0.2601 -0.8723  1.0702
10034TIP3    H251594   1.321   0.896   5.731 -2.1124  0.3913 -3.6907
10035TIP3   OH251595   1.715   5.500   6.106  0.5152  0.0816  0.0472
10035TIP3    H151596   1.706   5.428   6.044  1.0613 -0.0252  0.0866
10035TIP3    H251597   1.690   5.578   6.056  0.5263 -0.0575 -0.1755
10036TIP3   OH251598   4.189   4.988   3.845 -0.0162 -0.4557 -0.2788
10036TIP3    H151599   4.217   4.912   3.793  0.9367 -0.6145  0.4512
10036TIP3    H251600   4.246   5.059   3.817 -1.0797  0.0815 -1.1477
10037TIP3   OH251601   5.798   3.047   5.000  0.3348 -0.4278  0.1613
10037TIP3    H151602   5.753   3.093   5.071  3.0801  0.5510  1.3411
10037TIP3    H251603   5.752   2.964   4.992  0.7553 -1.1127  3.9875
10038TIP3   OH251604   1.496   0.970   2.783 -0.3903  0.0864 -0.7122
10038TIP3    H151605   1.530   0.893   2.738 -0.2681 -0.4786  0.3303
10038TIP3    H251606   1.492   1.038   2.715  0.5705 -0.5108 -1.3759
10039TIP3   OH251607   0.681   6.500   3.693 -0.3239  0.1373 -0.5697
10039TIP3    H151608   0.727   6.422   3.725  0.2250  0.1061 -1.4377
10039TIP3    H251609   0.690   6.497   3.598 -1.6642  0.4231 -0.7129
10040TIP3   OH251610   3.232   4.475   4.465  0.6397  0.3864 -0.0260
10040TIP3    H151611   3.213   4.393   4.418  1.1221  0.5663 -0.5408
10040TIP3    H251612   3.281   4.528   4.402  2.1022  0.2685  0.9907
10041TIP3   OH251613   3.766   3.642  11.844  0.1870 -0.2620  0.2338
10041TIP3    H151614   3.853   3.645  11.806 -0.7948 -0.7359 -2.1451
10041TIP3    H251615   3.757   3.554  11.880 -0.6259 -1.5204 -2.8765
10042TIP3   OH251616   5.411   6.176  16.814 -0.4148 -0.1672  0.4037
10042TIP3    H151617   5.403   6.090  16.774 -2.6243 -0.1263  0.7176
10042TIP3    H251618   5.382   6.163  16.905 -0.3332  0.8043  0.5729
10043TIP3   OH251619   1.683   6.202  16.893 -0.4602  0.0424  0.3403
10043TIP3    H151620   1.636   6.262  16.951 -0.7223  1.5017 -1.3365
10043TIP3    H251621   1.670   6.116  16.932 -1.9390  0.8010  1.5873
10044TIP3   OH251622   4.214   1.164   2.373  0.3991  0.0300 -0.1547
10044TIP3    H151623   4.147   1.119   2.321  0.9540  1.1982 -1.9131
10044TIP3    H251624   4.208   1.255   2.346  1.6627  0.4133  0.8262
10045TIP3   OH251625   5.124   5.861   5.897 -0.0112 -0.9440 -0.0321
10045TIP3    H151626   5.136   5.951   5.868 -1.5547 -0.4980  0.6487
10045TIP3    H251627   5.146   5.862   5.991  1.6440 -1.6556 -0.3918
10046TIP3   OH251628   1.225   4.329  15.163 -0.5453 -0.1494 -0.2324
10046TIP3    H151629   1.229   4.414  15.206 -1.5585  0.0491 -0.4954
10046TIP3    H251630   1.292   4.276  15.206 -0.8125  0.3731  0.8432
10047TIP3   OH251631   1.242   3.522  12.564  0.3859  0.2946 -0.8196
10047TIP3    H151632   1.306   3.508  12.634  0.1781 -1.3780 -0.9672
10047TIP3    H251633   1.290   3.500  12.484  0.2884  1.1776 -1.1298
10048TIP3   OH251634   0.762   3.605   1.215  0.3905 -0.3117  0.1702
10048TIP3    H151635   0.716   3.567   1.140 -0.1393  0.1801  0.2372
10048TIP3    H251636   0.800   3.686   1.182  0.0162 -0.0086  0.4619
10049TIP3   OH251637   1.199   5.062  16.242  0.1767 -0.4205 -0.2093
10049TIP3    H151638   1.201   5.154  16.216  1.5218  0.0400  1.4247
10049TIP3    H251639   1.196   5.064  16.338 -0.0014 -2.0870 -0.1635
10050TIP3   OH251640   4.912   2.705   5.622  0.5421  0.1998  0.3879
10050TIP3    H151641   4.836   2.657   5.653  1.0342 -1.4841 -0.9524
10050TIP3    H251642   4.977   2.697   5.692  1.0099 -2.0489 -0.2657
10051TIP3   OH251643   5.833   2.410   4.494  0.0564 -0.4941 -0.0119
10051TIP3    H151644   5.894   2.434   4.565 -2.6274  0.4388  2.0613
10051TIP3    H251645   5.841   2.481   4.431  0.3736  0.1312  0.7175
10052TIP3   OH251646   5.110   0.803  11.810 -0.1589 -0.4229  0.0302
10052TIP3    H151647   5.044   0.734  11.816  0.8572 -1.3144  1.2721
10052TIP3    H251648   5.192   0.760  11.835  0.9451  0.6187 -1.6563
10053TIP3   OH251649   4.836   2.663  15.452  0.2983 -0.1572  0.0723
10053TIP3    H151650   4.753   2.684  15.409  0.1350  1.8705  1.3138
10053TIP3    H251651   4.871   2.748  15.480  0.3301 -1.3649  3.9969
10054TIP3   OH251652   4.883   3.303  15.778 -0.2900  0.5336  0.1654
10054TIP3    H151653   4.969   3.320  15.738 -0.3399  1.6940  0.5255
10054TIP3    H251654   4.902   3.296  15.872 -0.1091 -2.6029 -0.0341
10055TIP3   OH251655   1.297   6.581  12.774  0.2889 -0.2874  0.2236
10055TIP3    H151656   1.362   6.650  12.779  1.5110 -1.4691  1.1677
10055TIP3    H251657   1.298   6.541  12.862 -1.7216 -0.3029  0.2578
10056TIP3   OH251658   6.250   2.080   1.804 -0.3344  0.2753 -0.1412
10056TIP3    H151659   6.199   2.122   1.735 -2.3734 -0.1012  1.0704
10056TIP3    H251660   6.299   2.011   1.760  0.2472  1.5857 -1.5638
10057TIP3   OH251661   3.479   5.596  13.235  0.8448  0.1406 -0.0995
10057TIP3    H151662   3.425   5.628  13.163  0.1249  0.1414  0.4336
10057TIP3    H251663   3.426   5.529  13.278  1.3487 -0.0121  0.3019
10058TIP3   OH251664   1.237   5.604  14.981 -0.0801  0.0475 -0.4012
10058TIP3    H151665   1.319   5.606  14.933  0.1886  0.8605  0.0891
10058TIP3    H251666   1.260   5.572  15.068 -0.1239  1.1836  0.0329
10059TIP3   OH251667   0.953   4.239   1.008  0.1190  0.1175  0.0583
10059TIP3    H151668   0.975   4.268   0.920  0.3201 -2.1532 -0.6725
10059TIP3    H251669   0.867   4.278   1.026  0.5920  1.5292 -0.6584
10060TIP3   OH251670   5.564   3.788  13.994 -0.3043 -0.3815  0.0281
10060TIP3    H151671   5.585   3.718  13.932  1.2739  0.2322 -0.1608
10060TIP3    H251672   5.474   3.813  13.972  0.0979 -0.4323 -1.7822
10061TIP3   OH251673   4.484   2.959  11.309  0.7745  0.7567 -0.0038
10061TIP3    H151674   4.416   2.893  11.295  0.7332  0.8245 -0.1339
10061TIP3    H251675   4.435   3.039  11.329  0.8336  0.6671  0.5116
10062TIP3   OH251676   5.326   6.604   0.714 -0.1581  0.2082 -0.5467
10062TIP3    H151677   5.240   6.646   0.724 -0.7456 -0.6770 -1.7563
10062TIP3    H251678   5.307   6.522   0.669  1.6047  1.1443 -3.1094
10063TIP3   OH251679   2.988   4.132  14.307 -0.1720  0.2278 -0.4490
10063TIP3    H151680   2.898   4.117  14.279 -0.2588 -0.0975 -0.0039
10063TIP3    H251681   2.987   4.220  14.344 -0.6303 -0.3185  0.8594
10064TIP3   OH251682   5.076   1.806   5.568  0.1667 -0.2887 -0.6226
10064TIP3    H151683   5.043   1.798   5.658  0.5773 -1.4221 -0.5543
10064TIP3    H251684   4.999   1.821   5.515 -0.2778 -1.2268 -0.2626
10065TIP3   OH251685   5.381   3.127  12.460 -0.0293 -0.2143 -0.3938
10065TIP3    H151686   5.308   3.065  12.453 -0.0690 -0.2592  0.4364
10065TIP3    H251687   5.394   3.158  12.370 -0.5983 -0.7457 -0.6656
10066TIP3   OH251688   1.889   1.272   5.451 -0.1808 -0.3242  0.3107
10066TIP3    H151689   1.884   1.197   5.391  1.3449 -0.6713  0.6040
10066TIP3    H251690   1.891   1.233   5.538 -0.8100  0.1288  0.5368
10067TIP3   OH251691   2.361   0.677   1.621  0.0856  0.4017 -0.0012
10067TIP3    H151692   2.273   0.645   1.642  0.5875 -0.5083  0.7675
10067TIP3    H251693   2.357   0.771   1.634 -0.9148  0.4220 -0.4582
10068TIP3   OH251694   1.300   1.032  12.054  0.5246 -0.3457  0.1948
10068TIP3    H151695   1.355   1.110  12.044  0.2556 -0.0073  1.2398
10068TIP3    H251696   1.335   0.969  11.992  1.4419  0.2318  0.1220
10069TIP3   OH251697   0.213   4.142   3.577 -0.2120 -0.1621  0.4090
10069TIP3    H151698   0.226   4.201   3.503  2.4540  0.3417  1.2141
10069TIP3    H251699   0.197   4.056   3.537 -2.6172  0.7864 -0.7462
10070TIP3   OH251700   1.343   0.517   2.878  0.1874 -0.0351  0.0263
10070TIP3    H151701   1.432   0.537   2.848  0.0993  0.0233 -0.1971
10070TIP3    H251702   1.293   0.597   2.861  0.4118  0.4123  1.4269
10071TIP3   OH251703   4.315   6.761   6.461 -0.3156  0.3082 -0.3646
10071TIP3    H151704   4.320   6.807   6.377 -1.0135 -0.0516 -0.6059
10071TIP3    H251705   4.281   6.827   6.522 -1.9801 -0.0492 -0.8587
10072TIP3   OH251706   5.491   5.983  12.212  0.3381 -0.4735  0.1034
10072TIP3    H151707   5.570   5.994  12.158 -0.1595 -1.2739 -0.8296
10072TIP3    H251708   5.517   5.921  12.280  0.3272 -1.2803 -0.6189
10073TIP3   OH251709   1.258   3.161   5.959 -0.0508  0.1783 -0.2224
10073TIP3    H151710   1.190   3.224   5.983 -0.4852 -0.4495  0.2041
10073TIP3    H251711   1.339   3.200   5.989 -0.2932  0.6474 -0.1820
10074TIP3   OH251712   0.491   0.927  15.481  0.5537 -0.2307  0.5617
10074TIP3    H151713   0.543   1.005  15.461  0.2087 -1.1888 -4.6525
10074TIP3    H251714   0.404   0.948  15.449  0.3572 -2.5933 -0.5135
10075TIP3   OH251715   2.184   5.001   5.120  0.4285 -0.3382  0.4402
10075TIP3    H151716   2.127   5.033   5.190 -1.0679  0.9942 -1.3686
10075TIP3    H251717   2.222   5.080   5.082  2.5609 -1.1491  0.8125
10076TIP3   OH251718   5.159   5.560  12.400  0.7910 -0.3655 -0.1498
10076TIP3    H151719   5.218   5.484  12.398 -1.5378 -2.2892  1.6539
10076TIP3    H251720   5.161   5.590  12.491  0.2088  0.5614 -0.4282
10077TIP3   OH251721   2.804   6.344   0.749  0.4463 -0.5074 -0.5304
10077TIP3    H151722   2.888   6.322   0.790  1.3363  1.6642 -1.1084
10077TIP3    H251723   2.785   6.433   0.781 -1.2421 -0.6674 -1.0401
10078TIP3   OH251724   4.838   2.099  15.159  0.0026 -0.0522  0.4605
10078TIP3    H151725   4.899   2.127  15.091  0.6626  0.2614  1.1775
10078TIP3    H251726   4.785   2.177  15.177 -0.5239 -0.2829 -0.0577
10079TIP3   OH251727   4.093   2.880   5.712 -0.8867  0.1219 -0.1391
10079TIP3    H151728   4.105   2.818   5.640 -0.8687  0.1711 -0.1787
10079TIP3    H251729   4.178   2.884   5.755 -0.5402  1.0652 -0.8918
10080TIP3   OH251730   3.194   2.329  10.427 -0.3739 -0.2687 -0.0350
10080TIP3    H151731   3.272   2.382  10.408 -0.6821 -0.0383 -0.6602
10080TIP3    H251732   3.129   2.391  10.459 -0.5974 -0.3315 -0.3692
10081TIP3   OH251733   3.934   5.887  15.817  0.5707 -0.7424 -0.0063
10081TIP3    H151734   3.988   5.809  15.802  0.8159 -0.4915 -0.4361
10081TIP3    H251735   3.919   5.923  15.730 -1.2022 -1.4178  0.0124
10082TIP3   OH251736   6.797   0.273   4.809  0.2351 -0.1753 -0.1555
10082TIP3    H151737   6.849   0.353   4.803 -2.4333  1.6751  0.3089
10082TIP3    H251738   6.811   0.228   4.726  1.4348  1.0121 -0.6021
10083TIP3   OH251739   2.296   3.158  14.047  0.0003  0.1962  0.1415
10083TIP3    H151740   2.384   3.179  14.015  0.0485 -0.3068 -0.0448
10083TIP3    H251741   2.250   3.242  14.045  0.6384  0.5731  0.7517
10084TIP3   OH251742   3.182   2.724  10.717 -0.0299  0.1512 -0.5771
10084TIP3    H151743   3.182   2.628  10.711  0.1999  0.2187 -1.7415
10084TIP3    H251744   3.217   2.753  10.633 -0.0692  1.2618 -0.2114
10085TIP3   OH251745   3.579   3.506  15.826  0.5117 -0.3804 -0.6571
10085TIP3    H151746   3.557   3.494  15.919 -0.1419 -1.7372 -0.9794
10085TIP3    H251747   3.527   3.582  15.799 -0.0553 -0.5895 -0.1691
10086TIP3   OH251748   0.597   5.284  14.853 -0.2437 -0.0111  0.5594
10086TIP3    H151749   0.577   5.377  14.859 -1.0167 -0.4079  5.2748
10086TIP3    H251750   0.541   5.252  14.782 -1.4709  2.6715  0.2614
10087TIP3   OH251751   2.874   3.663  13.952 -0.3546  0.0560  0.7520
10087TIP3    H151752   2.873   3.731  14.018  1.8034  0.2075  0.6343
10087TIP3    H251753   2.890   3.709  13.869 -0.4585 -0.4223  0.4612
10088TIP3   OH251754   3.413   1.212  14.946 -0.4313 -0.0459  0.0374
10088TIP3    H151755   3.383   1.264  15.020 -0.9683  1.1627 -0.9993
10088TIP3    H251756   3.339   1.213  14.885 -0.0878 -1.2319 -0.4037
10089TIP3   OH251757   4.441   3.711  13.546  0.5515 -0.0953  0.6975
10089TIP3    H151758   4.366   3.667  13.588  0.8129  0.1783  1.4536
10089TIP3    H251759   4.507   3.716  13.615  0.3474  1.9396  0.7619
10090TIP3   OH251760   5.816   4.015   1.541 -0.7414  0.4870 -0.2040
10090TIP3    H151761   5.760   4.093   1.547 -0.6788  0.3880  2.4530
10090TIP3    H251762   5.755   3.942   1.536 -0.8714  0.4741  1.2812
10091TIP3   OH251763   5.208   4.490   3.042  0.2455 -0.1727  0.4567
10091TIP3    H151764   5.158   4.492   2.961  2.7145  0.4790 -1.1127
10091TIP3    H251765   5.296   4.465   3.015  1.4520  1.3950  2.7263
10092TIP3   OH251766   6.530   2.111   3.517  0.6661  0.1889  0.0868
10092TIP3    H151767   6.612   2.120   3.567  0.8884  0.4774 -0.3323
10092TIP3    H251768   6.550   2.147   3.431  0.1081  0.2197 -0.0309
10093TIP3   OH251769   6.230   5.456  13.063 -0.1278 -0.1933  0.0958
10093TIP3    H151770   6.162   5.491  13.006  0.9718  0.3028 -0.9473
10093TIP3    H251771   6.293   5.416  13.003  0.4605 -0.7056  1.0450
10094TIP3   OH251772   4.366   5.947  15.678  0.6194  0.1121 -0.2385
10094TIP3    H151773   4.389   5.999  15.754  0.5771 -1.7376  1.0709
10094TIP3    H251774   4.437   5.883  15.670  0.2625 -0.1643 -1.3187
10095TIP3   OH251775   2.256   1.728   1.366  0.3023 -0.3177 -0.4078
10095TIP3    H151776   2.228   1.653   1.314  0.5162 -0.4139 -0.3869
10095TIP3    H251777   2.280   1.794   1.302 -0.9643  0.1433 -0.4232
10096TIP3   OH251778   6.437   5.806  16.034  0.0166  0.0391 -0.0766
10096TIP3    H151779   6.451   5.901  16.033  0.4913 -0.0341 -0.3400
10096TIP3    H251780   6.470   5.778  16.120 -0.1851  0.1223  0.0297
10097TIP3   OH251781   2.062   4.266  14.044  0.1820 -0.0578  0.0316
10097TIP3    H151782   2.060   4.297  14.134  2.1700  1.6002 -0.4401
10097TIP3    H251783   1.976   4.227  14.030 -1.1539  2.1148  1.8157
10098TIP3   OH251784   6.333   6.672   3.678 -0.2549 -0.2652  0.1712
10098TIP3    H151785   6.317   6.766   3.692  1.4963  0.4738 -2.4286
10098TIP3    H251786   6.249   6.631   3.699 -1.9669  2.1941 -1.4796
10099TIP3   OH251787   0.556   3.466  11.985  0.0549  0.6334  0.1373
10099TIP3    H151788   0.603   3.539  12.027  0.8759  0.4403 -0.4286
10099TIP3    H251789   0.471   3.464  12.030  1.1403  0.0150  2.2569
10100TIP3   OH251790   6.567   1.491  17.172  0.1773  1.0198  0.0289
10100TIP3    H151791   6.611   1.470  17.254  0.8859  0.7142 -0.4256
10100TIP3    H251792   6.552   1.407  17.130 -1.5593  1.0528  0.5381
10101TIP3   OH251793   2.545   1.093  13.632 -0.0742  0.6241  0.0677
10101TIP3    H151794   2.552   1.187  13.650  0.6586  1.0225 -2.1862
10101TIP3    H251795   2.574   1.083  13.541 -2.2841 -1.4677 -0.4801
10102TIP3   OH251796   0.331   4.256  15.486  0.6451 -0.2575 -0.2322
10102TIP3    H151797   0.248   4.241  15.442  0.1945  0.7756  0.2772
10102TIP3    H251798   0.323   4.341  15.528  1.5281 -0.6601  0.8104
10103TIP3   OH251799   5.323   2.916   3.447 -0.1041  0.7769  0.5188
10103TIP3    H151800   5.282   2.831   3.466 -0.6572  1.0312  0.4390
10103TIP3    H251801   5.402   2.893   3.398 -0.7987  0.3712 -0.4331
10104TIP3   OH251802   5.999   6.088   4.076 -0.4621 -0.1156 -0.0682
10104TIP3    H151803   6.039   6.002   4.068 -1.0609 -0.3134 -1.0742
10104TIP3    H251804   5.965   6.107   3.988  1.4437  2.0360 -0.4095
10105TIP3   OH251805   0.247   2.835   5.945  0.0285 -0.2278 -0.3462
10105TIP3    H151806   0.296   2.769   5.896  0.1330 -1.1151  0.9294
10105TIP3    H251807   0.252   2.806   6.036  1.2195  2.2446  0.4342
10106TIP3   OH251808   3.235   4.965  14.044  0.6951 -0.6473 -0.6234
10106TIP3    H151809   3.307   4.939  14.102 -0.4313  0.4693  1.3108
10106TIP3    H251810   3.156   4.954  14.098 -0.3843  0.2623 -2.0047
10107TIP3   OH251811   5.061   0.164  13.375 -0.2703  0.5590 -0.4253
10107TIP3    H151812   5.090   0.219  13.302 -0.5007  1.1655 -0.0677
10107TIP3    H251813   4.966   0.177  13.377 -0.2768  0.4502 -0.0931
10108TIP3   OH251814   4.621   2.644   4.955 -0.1908 -0.9350  0.1228
10108TIP3    H151815   4.618   2.579   4.884 -1.0678 -0.8868  0.1045
10108TIP3    H251816   4.548   2.703   4.936  0.3957 -0.1463  0.3313
10109TIP3   OH251817   5.465   0.969   1.625 -0.2062  0.3975  0.1814
10109TIP3    H151818   5.505   1.052   1.650  0.4485  0.4311 -0.9398
10109TIP3    H251819   5.533   0.904   1.642 -0.4083  0.2017  0.2436
10110TIP3   OH251820   1.587   4.704  12.455  0.8990  0.0350  0.0334
10110TIP3    H151821   1.579   4.696  12.360  0.0126 -1.1936  0.1897
10110TIP3    H251822   1.578   4.797  12.472 -2.1064 -0.0357 -0.8623
10111TIP3   OH251823   1.709   3.145  13.671 -0.4324  0.9148 -0.3153
10111TIP3    H151824   1.783   3.108  13.623 -0.4284  0.5965 -0.0628
10111TIP3    H251825   1.637   3.084  13.655 -0.1344  0.2131  1.0014
10112TIP3   OH251826   5.626   6.616   0.652 -0.0029 -0.3508 -0.4654
10112TIP3    H151827   5.621   6.712   0.648 -0.4521 -0.4209 -2.0877
10112TIP3    H251828   5.543   6.589   0.691 -0.7101 -0.1485 -1.7775
10113TIP3   OH251829   6.556   5.092  15.062  0.0959 -0.4954 -0.0454
10113TIP3    H151830   6.513   5.007  15.048  1.6810 -1.4820  0.9081
10113TIP3    H251831   6.521   5.123  15.146  1.5378 -1.4972  0.9380
10114TIP3   OH251832   0.585   5.364  15.794  0.0724 -0.5573  0.4201
10114TIP3    H151833   0.495   5.390  15.774 -0.3697 -2.2490  0.1098
10114TIP3    H251834   0.580   5.326  15.882  0.5039 -0.5158  0.4628
10115TIP3   OH251835   0.034   6.137   5.490  0.1004  0.6482  0.0075
10115TIP3    H151836   0.030   6.136   5.395  0.0756 -1.6102  0.0022
10115TIP3    H251837  -0.001   6.222   5.515 -1.6230  0.5325 -1.9262
10116TIP3   OH251838   1.039   6.297   6.611  0.3965 -0.3772  0.3711
10116TIP3    H151839   0.968   6.234   6.602 -1.2277  1.3342  1.0749
10116TIP3    H251840   1.116   6.242   6.630 -0.9183 -2.1618  0.7074
10117TIP3   OH251841   3.167   5.388   2.567 -0.1550  0.1591  0.2082
10117TIP3    H151842   3.263   5.384   2.576 -0.0882  1.0088 -0.1006
10117TIP3    H251843   3.142   5.298   2.547  0.6208 -0.0094 -0.0433
10118TIP3   OH251844   1.554   6.756   6.383  0.0697  0.5613 -0.2263
10118TIP3    H151845   1.464   6.729   6.398  0.0313  0.5926 -0.4023
10118TIP3    H251846   1.592   6.686   6.330  0.0754  0.6713 -0.3679
10119TIP3   OH251847   3.356   6.274   0.522 -0.7635  0.0984  0.2750
10119TIP3    H151848   3.383   6.335   0.590  0.4998 -0.5894  0.3997
10119TIP3    H251849   3.265   6.254   0.544 -0.6457  0.5740  1.2456
10120TIP3   OH251850   3.158   0.163   0.896 -0.4889 -0.0796 -0.3051
10120TIP3    H151851   3.084   0.186   0.839  0.3158  0.0697 -1.3011
10120TIP3    H251852   3.190   0.080   0.861  0.1512  0.1251 -0.2129
10121TIP3   OH251853   5.748   3.937   1.181 -0.3629 -0.6068 -0.3667
10121TIP3    H151854   5.673   3.926   1.123 -0.6449  1.6725 -0.4482
10121TIP3    H251855   5.715   3.912   1.268 -2.0060  2.8411  0.0797
10122TIP3   OH251856   1.173   6.472   5.274  0.2706 -0.2212 -0.0810
10122TIP3    H151857   1.195   6.564   5.259  3.3313 -1.0276 -0.8921
10122TIP3    H251858   1.154   6.437   5.187 -0.4235 -0.4966  0.1734
10123TIP3   OH251859   5.274   2.575   4.817 -0.5170  0.3308  0.7278
10123TIP3    H151860   5.266   2.666   4.847  1.1530  1.4712 -2.1163
10123TIP3    H251861   5.354   2.543   4.859  0.0942  0.8895 -0.0082
10124TIP3   OH251862   1.343   4.033  12.025  0.1157 -0.6478 -0.7436
10124TIP3    H151863   1.433   4.004  12.031 -0.3335 -1.8131  0.7397
10124TIP3    H251864   1.315   4.009  11.937  1.1997 -0.3900 -1.1590
10125TIP3   OH251865   5.817   6.320  14.367  0.2980 -0.2314  0.2992
10125TIP3    H151866   5.779   6.266  14.297  0.0104  0.7371 -0.2885
10125TIP3    H251867   5.844   6.400  14.324  3.4008 -1.0364  0.6253
10126TIP3   OH251868   5.580   2.600  10.342  0.2174  0.0643 -0.6760
10126TIP3    H151869   5.630   2.551  10.407  1.4613  0.1687 -1.5393
10126TIP3    H251870   5.646   2.646  10.290 -0.8146  0.8536 -1.3222
10127TIP3   OH251871   1.401   4.162  14.147  0.0199  0.1825 -0.2283
10127TIP3    H151872   1.478   4.117  14.182 -0.8257 -1.0990  0.0424
10127TIP3    H251873   1.402   4.247  14.190 -1.0557 -1.3934  3.1498
10128TIP3   OH251874   4.591   6.496   0.943  0.0157 -0.2287  0.0517
10128TIP3    H151875   4.528   6.566   0.959 -0.4239 -0.5177 -0.4101
10128TIP3    H251876   4.612   6.463   1.031 -1.5117 -1.0291  0.1416
10129TIP3   OH251877   5.543   2.711  16.578  0.0286  0.1486 -0.0480
10129TIP3    H151878   5.476   2.751  16.632 -0.0285 -0.3982  0.2835
10129TIP3    H251879   5.528   2.748  16.490 -1.8683 -1.3538 -0.3960
10130TIP3   OH251880   0.904   1.807  16.566 -0.3633  0.2253 -0.1870
10130TIP3    H151881   0.861   1.782  16.648  1.6749 -1.8179  0.3121
10130TIP3    H251882   0.900   1.728  16.512  0.9839  0.6197 -0.8837
10131TIP3   OH251883   1.576   0.624  16.862  0.7961  0.0618 -0.6066
10131TIP3    H151884   1.506   0.675  16.822  0.4615  1.2832  1.4466
10131TIP3    H251885   1.534   0.540  16.883 -0.4110  1.1688  1.6007
10132TIP3   OH251886   6.809   1.844   6.305  0.1500  0.3927  0.3431
10132TIP3    H151887   6.876   1.779   6.282 -0.7269 -0.7977  1.0730
10132TIP3    H251888   6.855   1.927   6.308  0.9583  0.0918 -2.4449
10133TIP3   OH251889   5.268   1.304  10.526 -0.6416 -0.3294 -0.3236
10133TIP3    H151890   5.340   1.351  10.567 -0.5115 -0.5856 -0.2529
10133TIP3    H251891   5.189   1.350  10.554 -0.6407 -1.2606  1.2403
10134TIP3   OH251892   1.842   5.971   2.928 -0.2408 -0.0913  0.5468
10134TIP3    H151893   1.822   6.023   2.850  0.8191  0.4521  0.6207
10134TIP3    H251894   1.789   5.892   2.918 -0.9956  0.4862 -0.1466
10135TIP3   OH251895   6.664   5.770   3.636  0.1672  0.3755  0.1794
10135TIP3    H151896   6.652   5.724   3.553 -0.0943 -0.1982  0.5389
10135TIP3    H251897   6.592   5.833   3.639 -0.0376  0.1431  0.1466
10136TIP3   OH251898   1.694   5.124  11.700 -0.3103  0.1842  0.5702
10136TIP3    H151899   1.745   5.045  11.685 -1.4699 -0.0521 -2.3773
10136TIP3    H251900   1.758   5.188  11.732  0.7155 -1.7723  2.5824
10137TIP3   OH251901   0.965   4.619  17.159  0.5298 -0.0514  0.2756
10137TIP3    H151902   0.961   4.527  17.132  0.8726  0.4372 -1.4940
10137TIP3    H251903   0.932   4.619  17.249 -1.1473 -1.6542 -0.3133
10138TIP3   OH251904   6.605   2.512  15.365 -0.2287  0.0057  0.0792
10138TIP3    H151905   6.683   2.485  15.414  0.0991  1.6954  0.5291
10138TIP3    H251906   6.537   2.523  15.432 -0.3740  0.2289 -0.1026
10139TIP3   OH251907   3.717   0.210   2.714  0.2574  0.2870 -0.2509
10139TIP3    H151908   3.743   0.147   2.782 -1.5483  0.4359  0.6041
10139TIP3    H251909   3.629   0.184   2.689  0.1373  1.4624 -1.1215
10140TIP3   OH251910   5.182   1.887   4.530 -0.5309  0.3207 -0.1244
10140TIP3    H151911   5.195   1.967   4.582  0.4292  0.8778 -1.2038
10140TIP3    H251912   5.223   1.906   4.446 -2.1015 -0.5738 -1.1132
10141TIP3   OH251913   4.806   4.062  16.650  0.2031  0.1312  0.8588
10141TIP3    H151914   4.746   4.052  16.577  0.8780 -0.7873  0.4141
10141TIP3    H251915   4.784   3.990  16.710  0.9984 -0.3642  0.5749
10142TIP3   OH251916   5.550   1.983  13.716 -0.1622 -0.4849  0.1030
10142TIP3    H151917   5.567   1.890  13.727  0.5871 -0.3248  0.2961
10142TIP3    H251918   5.488   1.987  13.643  0.6168 -1.0686 -0.6061
10143TIP3   OH251919   0.612   5.871   0.783  0.1471 -0.1922  0.2752
10143TIP3    H151920   0.671   5.932   0.828 -0.4199  0.7371 -0.2124
10143TIP3    H251921   0.529   5.880   0.829  0.1577 -0.8679  0.4258
10144TIP3   OH251922   1.526   3.725  13.535 -0.1037  0.1145  0.7928
10144TIP3    H151923   1.562   3.769  13.611  2.1837 -1.3043  0.5620
10144TIP3    H251924   1.503   3.638  13.566 -1.7113  0.4168  0.4981
10145TIP3   OH251925   0.349   4.737  13.931 -0.3790 -0.2863 -0.0811
10145TIP3    H151926   0.275   4.698  13.885 -0.8580 -0.3505  0.7371
10145TIP3    H251927   0.392   4.792  13.866 -1.6590  0.4425 -0.3217
10146TIP3   OH251928   1.376   1.735  12.928  0.4885  0.0840  0.2467
10146TIP3    H151929   1.431   1.722  13.006  0.5616  1.2960  0.3945
10146TIP3    H251930   1.368   1.829  12.919 -0.5938 -0.0672 -0.4795
10147TIP3   OH251931   2.225   5.092  15.253 -0.0142  0.0815  0.5484
10147TIP3    H151932   2.303   5.111  15.306  0.4992  0.2272 -0.2418
10147TIP3    H251933   2.218   4.997  15.254  0.2661  0.0581  0.5035
10148TIP3   OH251934   5.610   0.102  16.944  0.5238 -0.5986  0.1836
10148TIP3    H151935   5.638   0.024  16.896 -1.9759 -1.9537  0.8480
10148TIP3    H251936   5.554   0.149  16.882 -0.9670 -1.2486  1.0208
10149TIP3   OH251937   0.198   4.906   4.636  0.0625 -0.2240 -0.3256
10149TIP3    H151938   0.293   4.902   4.646  0.1295  0.3279 -0.7331
10149TIP3    H251939   0.164   4.894   4.725  0.4454 -2.6293 -0.4761
10150TIP3   OH251940   0.400   5.075  11.402 -0.8228  0.2904  0.3493
10150TIP3    H151941   0.418   5.025  11.482 -1.7439 -0.8865 -0.1479
10150TIP3    H251942   0.304   5.080  11.399 -0.7455  1.6857  0.1339
10151TIP3   OH251943   1.062   3.667  15.215 -0.1624 -0.7151 -0.1537
10151TIP3    H151944   0.983   3.613  15.215 -0.1188 -0.7863  1.1700
10151TIP3    H251945   1.058   3.716  15.297  0.6698  0.0192 -0.5414
10152TIP3   OH251946   5.399   4.449   6.037 -0.3835  0.3038  0.2253
10152TIP3    H151947   5.426   4.497   5.958 -1.0577 -1.5720 -1.1801
10152TIP3    H251948   5.332   4.504   6.077 -1.2123  0.5253 -1.4193
10153TIP3   OH251949   6.035   3.002   0.695 -0.2500 -0.3851  0.2643
10153TIP3    H151950   6.060   3.048   0.775 -0.2310  0.0488  0.0060
10153TIP3    H251951   6.015   2.913   0.725 -2.1194  0.2669  1.0450
10154TIP3   OH251952   0.138   1.227  15.625 -0.5199  0.2020  0.5167
10154TIP3    H151953   0.047   1.258  15.623 -0.6273  0.0085  1.7740
10154TIP3    H251954   0.146   1.185  15.711  1.0445  1.0697  0.7995
10155TIP3   OH251955   0.720   1.203  13.719  0.1684  0.5715 -0.6413
10155TIP3    H151956   0.738   1.225  13.628 -0.5210  0.2234 -0.8632
10155TIP3    H251957   0.649   1.139  13.715 -0.1234  0.8376  0.1552
10156TIP3   OH251958   2.303   1.934   1.877 -0.0143  0.7698  0.0725
10156TIP3    H151959   2.291   1.896   1.963  0.1925 -0.9582 -0.6532
10156TIP3    H251960   2.215   1.942   1.841  0.2479 -4.8175 -2.2117
10157TIP3   OH251961   2.222   2.925   5.142 -0.6310  0.6234  0.1909
10157TIP3    H151962   2.208   2.985   5.215 -0.6732  0.0562  0.6437
10157TIP3    H251963   2.139   2.879   5.132 -0.1769 -0.3292  0.7163
10158TIP3   OH251964   2.282   2.998   4.684  0.4345 -0.1629  0.0862
10158TIP3    H151965   2.302   3.067   4.620 -1.5478  0.5077  0.1541
10158TIP3    H251966   2.297   2.916   4.637 -1.7440  0.3120 -1.5072
10159TIP3   OH251967   4.123   0.097   1.283  0.3042 -0.2679 -0.9542
10159TIP3    H151968   4.031   0.093   1.255 -0.2173 -0.8964  0.7966
10159TIP3    H251969   4.121   0.141   1.368  1.8667  1.5548 -1.7974
10160TIP3   OH251970   3.110   1.129  15.691 -0.0708 -0.1708  0.2880
10160TIP3    H151971   3.101   1.130  15.595 -1.9494  0.7522  0.4392
10160TIP3    H251972   3.024   1.100  15.722  0.1193  0.7478  1.7258
10161TIP3   OH251973   3.381   5.821  11.405 -0.2239 -0.3342  0.4224
10161TIP3    H151974   3.399   5.762  11.478  0.2350 -1.3871 -0.5246
10161TIP3    H251975   3.456   5.811  11.347  0.8040  2.6616  1.1758
10162TIP3   OH251976   0.971   4.149   5.430  0.1204 -0.3165  0.2023
10162TIP3    H151977   1.046   4.164   5.488 -0.3180  2.3301  0.1436
10162TIP3    H251978   0.895   4.161   5.486 -0.2897 -1.5355 -0.0819
10163TIP3   OH251979   6.393   6.131  16.824  0.2315 -0.4312 -0.3733
10163TIP3    H151980   6.348   6.052  16.853 -0.5334 -0.5544 -1.8647
10163TIP3    H251981   6.476   6.130  16.872  0.1406 -2.0150 -0.2197
10164TIP3   OH251982   2.458   3.645   0.676  0.3594  0.1265 -0.6004
10164TIP3    H151983   2.451   3.707   0.603 -0.9051  1.1633  0.3727
10164TIP3    H251984   2.490   3.564   0.636 -0.8881  0.4908 -2.4148
10165TIP3   OH251985   3.151   3.140  17.049  0.2015  0.2186  0.2113
10165TIP3    H151986   3.057   3.133  17.070  0.2186 -2.4711 -0.4433
10165TIP3    H251987   3.153   3.181  16.962 -0.5141 -1.8556 -0.8237
10166TIP3   OH251988   6.648   4.446  17.282 -0.2434 -0.5303 -0.6351
10166TIP3    H151989   6.572   4.429  17.226  0.7733 -2.2729 -1.5380
10166TIP3    H251990   6.663   4.363  17.326  0.8775 -0.0609 -0.1376
10167TIP3   OH251991   0.792   0.111  12.652 -0.1793  0.1160  0.6808
10167TIP3    H151992   0.701   0.140  12.645 -0.3446 -0.0861  1.8732
10167TIP3    H251993   0.796   0.063  12.735  0.7642 -0.8055  0.1178
10168TIP3   OH251994   1.564   3.509   5.825  0.6190  0.0932  0.2042
10168TIP3    H151995   1.632   3.470   5.770  0.8080  1.3305 -0.4515
10168TIP3    H251996   1.482   3.493   5.778  0.6194 -0.1412  0.2849
10169TIP3   OH251997   5.237   5.833   2.808 -0.0297 -0.2963  0.4226
10169TIP3    H151998   5.272   5.823   2.896 -1.3386 -0.8382  0.8930
10169TIP3    H251999   5.193   5.750   2.790  0.6161 -0.3739 -0.9325
10170TIP3   OH252000   1.424   2.602  16.031  0.0077  0.3125 -0.2038
10170TIP3    H152001   1.455   2.628  16.117 -1.3413  0.7082  0.1873
10170TIP3    H252002   1.443   2.678  15.975 -0.2850  0.5640  0.0377
10171TIP3   OH252003   4.489   0.215  14.092 -0.2003  0.1213 -0.2120
10171TIP3    H152004   4.541   0.148  14.050 -0.3729 -0.5206  0.5838
10171TIP3    H252005   4.398   0.193  14.070 -0.2319  0.3176 -0.2791
10172TIP3   OH252006   0.504   1.959  16.809  0.2522  0.0225 -0.1079
10172TIP3    H152007   0.466   1.881  16.850  0.0426 -0.3748 -1.0204
10172TIP3    H252008   0.516   1.933  16.717 -0.8714  1.4307 -0.6650
10173TIP3   OH252009   4.384   3.760   3.938  0.2586  0.3533 -0.4932
10173TIP3    H152010   4.320   3.689   3.951  0.4771  0.2550  0.0830
10173TIP3    H252011   4.408   3.786   4.027 -0.6001  1.8625 -0.6904
10174TIP3   OH252012   4.251   1.987  12.040  0.2481 -0.0958 -0.3871
10174TIP3    H152013   4.247   2.081  12.058 -0.0056 -0.0390 -0.7335
10174TIP3    H252014   4.178   1.950  12.090  0.1386 -0.0615 -0.5188
10175TIP3   OH252015   2.350   2.912   2.597  0.4591 -0.5231  0.3611
10175TIP3    H152016   2.286   2.841   2.586 -1.2112  0.7936  1.4386
10175TIP3    H252017   2.301   2.992   2.576  1.7313  0.5045  1.2473
10176TIP3   OH252018   3.196   2.458  11.066  0.0259 -0.4907  0.3737
10176TIP3    H152019   3.152   2.489  10.987  1.4351  1.2521  0.2241
10176TIP3    H252020   3.127   2.453  11.132 -0.8206 -0.1295 -0.4755
10177TIP3   OH252021   2.162   5.000   2.867 -0.2058 -0.1815  0.0783
10177TIP3    H152022   2.115   5.026   2.945  0.4689  1.6821 -0.1230
10177TIP3    H252023   2.202   5.081   2.834  0.9924 -1.2532 -1.1836
10178TIP3   OH252024   5.467   6.178   1.988  0.2954  0.2290 -0.4208
10178TIP3    H152025   5.512   6.100   2.020 -0.7709  0.1617  0.9723
10178TIP3    H252026   5.421   6.212   2.065  1.6860  2.9144 -0.7495
10179TIP3   OH252027   3.005   3.730   6.227 -0.7718 -0.1142  0.7077
10179TIP3    H152028   2.993   3.650   6.277  0.4171 -1.1749 -0.6294
10179TIP3    H252029   3.018   3.799   6.293  0.5288 -1.4268  1.8649
10180TIP3   OH252030   1.478   1.940  16.844  0.1300 -0.3584 -0.0677
10180TIP3    H152031   1.529   2.013  16.879  0.0066 -0.1275 -0.3711
10180TIP3    H252032   1.429   1.907  16.920  0.0940 -0.0490  0.0487
10181TIP3   OH252033   3.131   0.338   2.206 -0.2967  0.0859  0.3176
10181TIP3    H152034   3.124   0.433   2.202 -0.5935  0.0379 -0.2372
10181TIP3    H252035   3.201   0.316   2.144 -0.0398 -0.0393  0.6443
10182TIP3   OH252036   1.792   2.605   3.199 -0.2716 -0.1958  0.1229
10182TIP3    H152037   1.887   2.612   3.205 -0.1653 -0.4926 -1.0667
10182TIP3    H252038   1.768   2.669   3.132 -0.6859 -1.6129 -1.0876
10183TIP3   OH252039   5.483   2.590   3.649 -0.4821 -0.2549  0.1780
10183TIP3    H152040   5.542   2.665   3.645 -1.4920  0.4991 -0.9811
10183TIP3    H252041   5.415   2.615   3.711 -0.0701 -0.7850  0.8593
10184TIP3   OH252042   6.168   1.741  15.050 -0.1313 -0.6962 -0.0092
10184TIP3    H152043   6.223   1.795  15.106 -0.9831 -2.0546  2.1811
10184TIP3    H252044   6.194   1.651  15.069  0.9784 -1.1458 -3.3035
10185TIP3   OH252045   3.304   1.875   0.302  0.0761 -0.3786  0.1667
10185TIP3    H152046   3.241   1.943   0.279 -2.2123 -2.7574 -0.9564
10185TIP3    H252047   3.316   1.826   0.220  0.9098 -1.8980  1.1861
10186TIP3   OH252048   6.528   5.843  13.092 -0.1422 -0.1929  0.4216
10186TIP3    H152049   6.503   5.797  13.172  1.6832  0.8624  1.6432
10186TIP3    H252050   6.599   5.790  13.055  1.0496  0.8660  1.1265
10187TIP3   OH252051   4.645   0.710   4.350 -0.4675  0.1486  0.1682
10187TIP3    H152052   4.722   0.680   4.398  0.5483 -0.7123 -1.9910
10187TIP3    H252053   4.590   0.632   4.342 -1.7841  0.8478  2.0526
10188TIP3   OH252054   3.780   5.002  15.420 -0.1367  0.1090 -0.2338
10188TIP3    H152055   3.802   5.091  15.446 -0.2478 -0.0955  0.5999
10188TIP3    H252056   3.839   4.946  15.471 -0.7088 -0.3265 -0.0338
10189TIP3   OH252057   5.422   3.614  11.335  0.7425  0.5694  0.2347
10189TIP3    H152058   5.362   3.559  11.386 -0.4117  0.2928 -1.3511
10189TIP3    H252059   5.378   3.699  11.331  0.9365  0.6555 -0.0859
10190TIP3   OH252060   4.614   0.001   2.347  0.8983 -0.0572  0.0113
10190TIP3    H152061   4.647   0.081   2.306  1.8820 -0.4214  0.0785
10190TIP3    H252062   4.521  -0.001   2.325  1.2827  0.0812 -1.6794
10191TIP3   OH252063   1.752   0.439   0.010  0.0630  0.2858 -0.1066
10191TIP3    H152064   1.684   0.411   0.072 -1.2854  0.8318 -1.3131
10191TIP3    H252065   1.777   0.527   0.040 -1.0438  0.8098 -0.6973
10192TIP3   OH252066   0.085   3.075   0.976  0.1091 -0.4718  0.4339
10192TIP3    H152067   0.094   3.122   0.893  2.2350  1.2732  1.5637
10192TIP3    H252068   0.013   3.120   1.021  1.4727  1.1640  1.0828
10193TIP3   OH252069   1.733   6.570  17.132 -0.0859 -0.2319  0.5017
10193TIP3    H152070   1.790   6.501  17.098 -1.1803 -0.7236 -0.3683
10193TIP3    H252071   1.697   6.534  17.213  0.1104 -0.3011  0.5575
10194TIP3   OH252072   0.839   6.343   2.253  0.8079 -0.0014 -0.2830
10194TIP3    H152073   0.799   6.414   2.304 -0.2387  0.6444 -1.9539
10194TIP3    H252074   0.928   6.336   2.287 -0.3477 -0.7319  2.7801
10195TIP3   OH252075   2.642   2.610  12.775 -0.0187  0.2499 -0.2610
10195TIP3    H152076   2.684   2.605  12.689  1.1270 -1.0052  0.3548
10195TIP3    H252077   2.619   2.519  12.796 -1.8315  0.7504  0.0170
10196TIP3   OH252078   3.468   0.613   0.811  0.3832 -0.2186  0.4400
10196TIP3    H152079   3.536   0.609   0.743  0.8880 -2.0926  1.0129
10196TIP3    H252080   3.517   0.617   0.893 -0.1906 -0.6214  0.8084
10197TIP3   OH252081   5.565   3.220   4.279 -0.2808  0.1241  0.1069
10197TIP3    H152082   5.653   3.208   4.314  0.1159 -0.2769 -0.9928
10197TIP3    H252083   5.520   3.137   4.296 -1.3782  1.3106  3.2239
10198TIP3   OH252084   3.507   6.478  17.232 -0.2769  0.2714  0.4671
10198TIP3    H152085   3.528   6.463  17.140  0.9009  0.8633  0.6349
10198TIP3    H252086   3.572   6.427  17.280 -0.4913  0.4771  0.9827
10199TIP3   OH252087   4.317   6.682  11.764  0.1984 -0.0969 -0.5335
10199TIP3    H152088   4.266   6.605  11.788 -1.6216  1.4423  0.6945
10199TIP3    H252089   4.363   6.707  11.844 -0.4335  0.9930 -0.5007
10200TIP3   OH252090   5.045   5.482   5.279  0.0176 -0.1077 -0.4455
10200TIP3    H152091   5.074   5.467   5.189  0.4608  0.2364 -0.3580
10200TIP3    H252092   5.082   5.409   5.328  1.5561  0.8567 -0.1572
10201TIP3   OH252093   3.839   5.029   3.470  0.4427  0.2784  0.7219
10201TIP3    H152094   3.825   4.986   3.554 -0.7086  0.5295  0.6599
10201TIP3    H252095   3.908   4.978   3.428 -1.3508 -1.9243  0.3703
10202TIP3   OH252096   5.057   4.603   0.948  0.7009 -0.3311  0.4905
10202TIP3    H152097   5.025   4.638   0.864  1.2640 -0.5378  0.1833
10202TIP3    H252098   5.131   4.659   0.970 -0.2850  0.5685  1.5397
10203TIP3   OH252099   5.446   6.719   4.068  0.3103 -0.0627 -0.3641
10203TIP3    H152100   5.400   6.653   4.119 -0.6766  2.1792  1.7357
10203TIP3    H252101   5.382   6.748   4.003 -0.3529  1.1377  0.8179
10204TIP3   OH252102   4.172   5.979  17.068 -0.2453 -0.5672  0.0208
10204TIP3    H152103   4.197   5.931  16.989 -0.3065  1.1217 -1.0586
10204TIP3    H252104   4.244   6.040  17.082 -1.1470  0.4876  0.1240
10205TIP3   OH252105   5.213   0.779   1.577 -0.5857 -0.1191 -0.3589
10205TIP3    H152106   5.288   0.831   1.548 -0.4195  0.6621  1.4696
10205TIP3    H252107   5.235   0.689   1.551  0.7134  0.1933 -0.3570
10206TIP3   OH252108   4.812   3.396  12.152 -0.1604  0.4890 -0.2311
10206TIP3    H152109   4.830   3.413  12.245 -1.7215  0.1875  0.1367
10206TIP3    H252110   4.789   3.303  12.148 -0.0516  0.4912 -0.9241
10207TIP3   OH252111   0.623   0.676   3.174  0.2262  0.0845 -0.4748
10207TIP3    H152112   0.584   0.727   3.103  3.6418  1.4630 -1.4500
10207TIP3    H252113   0.603   0.585   3.152  0.5361  0.5479 -2.7927
10208TIP3   OH252114   4.075   2.535  16.144  0.0168  0.2166 -0.1078
10208TIP3    H152115   4.072   2.446  16.179  0.2524  0.7689  1.3347
10208TIP3    H252116   4.058   2.524  16.050  0.3412 -1.3707  0.0051
10209TIP3   OH252117   5.333   4.754   3.365 -0.1664 -0.2344  0.0484
10209TIP3    H152118   5.289   4.839   3.371  0.3888  0.1262 -0.8114
10209TIP3    H252119   5.270   4.697   3.322  0.3551  0.4065 -1.6256
10210TIP3   OH252120   4.211   1.468  11.989  0.2035  0.2602  0.2706
10210TIP3    H152121   4.293   1.499  12.026  0.2887  0.3098  0.0433
10210TIP3    H252122   4.155   1.450  12.065 -1.1606  4.4247  0.3907
10211TIP3   OH252123   5.344   3.271  14.963  0.2581 -0.0106 -0.0343
10211TIP3    H152124   5.431   3.299  14.936 -0.8373  3.2841 -0.4327
10211TIP3    H252125   5.295   3.353  14.975 -2.0473 -1.6741  2.6886
10212TIP3   OH252126   1.635   5.363   6.377 -0.2275 -0.1405  0.4087
10212TIP3    H152127   1.656   5.442   6.328 -1.5380  0.3886  0.6989
10212TIP3    H252128   1.628   5.392   6.468 -3.1993 -0.0983  0.2062
10213TIP3   OH252129   3.328   5.014   4.040  0.1437  0.0946  0.4264
10213TIP3    H152130   3.253   5.041   4.093 -0.1660 -0.3993  0.2482
10213TIP3    H252131   3.291   4.952   3.977  0.1819  1.9317 -1.4613
10214TIP3   OH252132   2.437   2.492   6.430 -0.2837  0.4474 -0.0332
10214TIP3    H152133   2.434   2.519   6.521  0.6326  1.3355 -0.2515
10214TIP3    H252134   2.444   2.574   6.380 -1.6881  0.0207 -0.9521
10215TIP3   OH252135   0.018   2.009   1.277  0.3046 -0.1893 -0.5524
10215TIP3    H152136  -0.059   2.058   1.246 -1.5946 -2.1087  1.0028
10215TIP3    H252137   0.015   1.927   1.228  0.6822 -0.7690  0.3922
10216TIP3   OH252138   1.753   3.314  16.378  0.3273 -0.3056  0.6184
10216TIP3    H152139   1.668   3.286  16.345  0.3158 -0.2259  0.5794
10216TIP3    H252140   1.734   3.388  16.435  0.3555 -0.3895  0.7367
10217TIP3   OH252141   3.691   2.531   3.120  0.0841 -0.2599  0.0161
10217TIP3    H152142   3.765   2.486   3.160 -0.0048  1.4896  2.2660
10217TIP3    H252143   3.620   2.521   3.183 -1.4616 -1.4815 -1.8887
10218TIP3   OH252144   2.711   1.805  14.154  0.4806  0.3301 -0.5712
10218TIP3    H152145   2.806   1.795  14.153  0.5124  0.1791  1.6029
10218TIP3    H252146   2.692   1.851  14.236 -1.4164 -0.6297 -0.4419
10219TIP3   OH252147   4.139   6.333   5.831  0.0337  0.3508  0.1846
10219TIP3    H152148   4.084   6.255   5.827 -0.8108  0.9084  0.7652
10219TIP3    H252149   4.225   6.301   5.858 -0.5381 -0.2569  1.3039
10220TIP3   OH252150   0.449   4.589  15.818 -0.7831  0.1619 -0.2193
10220TIP3    H152151   0.541   4.569  15.830 -1.1282  0.0054  2.4886
10220TIP3    H252152   0.446   4.683  15.799 -0.1457  0.3401  0.5827
10221TIP3   OH252153   6.627   0.922  12.369 -0.0289  0.0871  0.6038
10221TIP3    H152154   6.637   0.996  12.430  1.0360  0.7666 -0.3808
10221TIP3    H252155   6.601   0.963  12.287  1.1418 -0.5820 -0.1037
10222TIP3   OH252156   6.290   6.181  11.230  0.5507  0.7095  0.7272
10222TIP3    H152157   6.354   6.142  11.170  0.9731  1.4850  0.6709
10222TIP3    H252158   6.326   6.168  11.317  0.3878  0.4124  0.7506
10223TIP3   OH252159   3.763   4.916   2.047  0.1276 -0.0739  0.4385
10223TIP3    H152160   3.799   5.003   2.033  1.2892 -0.5125  0.6171
10223TIP3    H252161   3.788   4.867   1.969 -0.9269 -0.1244  0.1267
10224TIP3   OH252162   0.992   0.064   6.124  0.2554  0.5516  0.3745
10224TIP3    H152163   0.912   0.016   6.148  0.6296  0.6298  1.8163
10224TIP3    H252164   0.975   0.153   6.154 -1.9178  2.3325 -5.4561
10225TIP3   OH252165   0.777   6.604   1.473 -0.3180 -0.1665  0.0660
10225TIP3    H152166   0.709   6.608   1.540 -0.5897  0.2700 -0.2343
10225TIP3    H252167   0.860   6.605   1.522 -0.5160  0.1391  0.3946
10226TIP3   OH252168   6.257   4.188  13.741  0.1275  0.0247 -0.1008
10226TIP3    H152169   6.327   4.237  13.699 -1.6913  1.6185 -1.3632
10226TIP3    H252170   6.271   4.098  13.712  1.7748  0.2643 -0.1258
10227TIP3   OH252171   6.218   6.673   0.991  0.3522  0.2843 -0.2047
10227TIP3    H152172   6.264   6.696   0.910  1.8357 -0.8981  0.2932
10227TIP3    H252173   6.213   6.578   0.990  1.0577  0.2289  1.4803
10228TIP3   OH252174   1.938   2.603  14.060  0.3054  0.4082 -0.0506
10228TIP3    H152175   1.987   2.663  14.005  0.3257  0.1533 -0.3125
10228TIP3    H252176   1.940   2.520  14.012  3.0389 -0.6813  1.8234
10229TIP3   OH252177   5.828   1.255   2.176  0.4221  0.6130 -0.0556
10229TIP3    H152178   5.783   1.193   2.233  1.7226 -0.4911 -0.2205
10229TIP3    H252179   5.807   1.341   2.213 -2.0741  0.1392 -0.3242
10230TIP3   OH252180   1.367   1.473  12.839 -0.0898  0.0268 -0.4323
10230TIP3    H152181   1.399   1.413  12.907 -1.6426 -1.3376 -0.8573
10230TIP3    H252182   1.389   1.560  12.871  0.2313 -0.6541  1.2696
10231TIP3   OH252183   2.016   2.676  11.050 -1.0672  0.0980 -0.6560
10231TIP3    H152184   2.060   2.760  11.065 -1.2757 -0.1209  1.3058
10231TIP3    H252185   1.944   2.698  10.990 -0.2906  1.0489 -1.2668
10232TIP3   OH252186   6.462   4.190   3.128 -0.3347 -0.1578 -0.4451
10232TIP3    H152187   6.541   4.238   3.102 -0.1123  0.5638  1.4947
10232TIP3    H252188   6.494   4.123   3.188 -0.7310 -2.3609 -2.6443
10233TIP3   OH252189   0.346   5.930  13.982  0.3193  0.4036 -0.4166
10233TIP3    H152190   0.266   5.979  13.999 -0.5602 -0.7784 -1.1120
10233TIP3    H252191   0.361   5.880  14.062  1.3095  1.8826  0.3583
10234TIP3   OH252192   4.261   2.665  11.312  0.0264  0.0592 -0.1721
10234TIP3    H152193   4.351   2.653  11.341  0.7775  1.1014 -1.9823
10234TIP3    H252194   4.264   2.650  11.218 -1.5822  0.7044 -0.3413
10235TIP3   OH252195   0.589   2.150  13.394 -0.1594  0.1233 -0.4096
10235TIP3    H152196   0.506   2.137  13.348 -0.4974  0.3134  0.1434
10235TIP3    H252197   0.655   2.141  13.325 -0.7395  2.1767 -1.2894
10236TIP3   OH252198   5.262   2.334  14.622 -0.6658  0.3513 -0.1559
10236TIP3    H152199   5.310   2.251  14.617  0.4972  0.9798  0.2604
10236TIP3    H252200   5.175   2.314  14.589 -0.4186 -1.0588  0.0173
10237TIP3   OH252201   2.752   1.679   0.496  0.6804  0.1452  0.0805
10237TIP3    H152202   2.719   1.654   0.582 -1.6352  1.4163 -0.3817
10237TIP3    H252203   2.755   1.775   0.499 -2.2100  0.3943 -2.1536
10238TIP3   OH252204   3.687   1.633  17.163  0.1435 -0.3032 -0.0011
10238TIP3    H152205   3.627   1.621  17.238  0.2738 -4.0067 -0.3868
10238TIP3    H252206   3.636   1.683  17.100 -0.6015  1.3355  1.8391
10239TIP3   OH252207   2.014   4.227   3.827 -0.5543  0.0278  0.2425
10239TIP3    H152208   1.998   4.293   3.894 -0.5876  0.4640 -0.1995
10239TIP3    H252209   1.938   4.168   3.833 -1.4038  1.0386 -0.5881
10240TIP3   OH252210   6.435   3.261  15.598  0.4896 -0.5106 -0.1146
10240TIP3    H152211   6.436   3.188  15.660  0.8875  0.7740  1.4443
10240TIP3    H252212   6.342   3.276  15.579  0.3664 -0.9354  0.1530
10241TIP3   OH252213   1.703   2.145  14.076 -0.0164  0.0018  0.5082
10241TIP3    H152214   1.789   2.144  14.034  0.3596  1.0513  1.2257
10241TIP3    H252215   1.686   2.054  14.099  1.4417 -0.0663  1.4112
10242TIP3   OH252216   6.008   0.215   5.347 -0.4718  0.1173 -0.0013
10242TIP3    H152217   5.943   0.285   5.356 -3.5826 -2.7398  0.9019
10242TIP3    H252218   6.033   0.194   5.438 -0.9340 -1.1166 -0.1437
10243TIP3   OH252219   0.534   2.343   4.700 -0.9041 -0.0629 -0.1115
10243TIP3    H152220   0.570   2.259   4.728  0.0816 -0.0634 -1.3078
10243TIP3    H252221   0.595   2.408   4.736 -1.0827  0.0793 -0.0635
10244TIP3   OH252222   6.089   1.993   2.565  0.4019  0.4269  0.2692
10244TIP3    H152223   6.125   1.928   2.626  0.6343 -0.7473 -1.0929
10244TIP3    H252224   6.165   2.026   2.518  0.2844  1.7190  0.9640
10245TIP3   OH252225   6.566   5.013   1.725 -0.3735  0.0117 -0.1782
10245TIP3    H152226   6.549   4.919   1.716 -2.2492  0.4419 -1.5563
10245TIP3    H252227   6.479   5.053   1.723  0.2801  1.6683  2.1850
10246TIP3   OH252228   4.527   0.608   4.726 -0.8322 -0.2882  0.1493
10246TIP3    H152229   4.552   0.690   4.769 -2.6986 -0.1874  1.0963
10246TIP3    H252230   4.570   0.540   4.778  2.0533  0.1161 -1.5927
10247TIP3   OH252231   5.878   1.105  12.335 -0.4728 -0.2487  0.0381
10247TIP3    H152232   5.888   1.063  12.421 -0.1530 -0.0588  0.0907
10247TIP3    H252233   5.921   1.190  12.344  2.1522 -1.4064 -1.2023
10248TIP3   OH252234   6.028   4.350  15.151  0.3663  0.4764  0.0001
10248TIP3    H152235   5.941   4.340  15.112  0.5833 -1.3385 -0.1000
10248TIP3    H252236   6.072   4.416  15.098 -1.0948  1.7109  0.3152
10249TIP3   OH252237   3.627   1.558  12.025  0.0221  0.2170 -0.2850
10249TIP3    H152238   3.649   1.470  12.057  1.0650  0.2102 -1.0075
10249TIP3    H252239   3.562   1.590  12.088 -0.9284 -1.3554 -0.4386
10250TIP3   OH252240   2.373   3.447   1.898 -0.0549 -0.7153 -0.5934
10250TIP3    H152241   2.365   3.542   1.905  0.4982 -0.6955 -0.1616
10250TIP3    H252242   2.284   3.415   1.886 -0.2918 -0.1794 -0.2505
10251TIP3   OH252243   5.578   3.533   2.461  0.4923 -0.0649  0.2972
10251TIP3    H152244   5.579   3.507   2.553 -0.5359 -1.6077 -0.1072
10251TIP3    H252245   5.625   3.463   2.416  3.1582  1.8808 -0.0950
10252TIP3   OH252246   3.007   2.591   0.319  0.0430 -0.1536  0.2005
10252TIP3    H152247   2.968   2.513   0.359 -0.1566  0.9685  2.2773
10252TIP3    H252248   3.092   2.600   0.363  1.5598 -1.0693 -2.4129
10253TIP3   OH252249   2.624   1.359   0.073 -0.2861  0.4604 -0.4004
10253TIP3    H152250   2.583   1.343   0.158 -1.1401  1.9133 -0.5282
10253TIP3    H252251   2.718   1.348   0.089 -0.5107 -0.1237  0.5340
10254TIP3   OH252252   5.820   2.533   0.915 -0.8812  0.2387  0.1149
10254TIP3    H152253   5.886   2.465   0.930 -1.1876 -0.2917 -0.9215
10254TIP3    H252254   5.766   2.499   0.844 -1.2061  1.4506 -0.2298
10255TIP3   OH252255   3.857   0.607   2.531 -0.3097 -0.8145  0.4823
10255TIP3    H152256   3.936   0.642   2.573 -2.5181  1.6270  2.7997
10255TIP3    H252257   3.851   0.655   2.448 -0.9121  1.2003  1.6550
10256TIP3   OH252258   3.612   3.317  13.763  0.1761 -0.3308 -0.2912
10256TIP3    H152259   3.606   3.242  13.822  0.3916  0.3968  0.6657
10256TIP3    H252260   3.693   3.301  13.713  0.8519 -0.1500  0.7345
10257TIP3   OH252261   6.147   3.411  16.227  0.2849 -0.0944 -0.1762
10257TIP3    H152262   6.126   3.503  16.212 -1.1904 -0.2844  0.6206
10257TIP3    H252263   6.170   3.377  16.141 -0.7376  0.6345 -0.7491
10258TIP3   OH252264   2.136   2.836   1.819 -0.3167 -0.9828  0.1563
10258TIP3    H152265   2.117   2.857   1.728  0.7464  1.7360  0.5315
10258TIP3    H252266   2.051   2.814   1.857 -0.8952 -1.1653 -1.2226
10259TIP3   OH252267   1.310   2.577   5.930  0.0457 -0.1010 -0.3696
10259TIP3    H152268   1.384   2.517   5.914  0.7503  0.7275 -0.2318
10259TIP3    H252269   1.303   2.627   5.849  0.3229  0.5554  0.0095
10260TIP3   OH252270   0.367   0.436   4.710  0.5802  0.8186 -0.3224
10260TIP3    H152271   0.434   0.501   4.730  0.8538  0.4284  0.0483
10260TIP3    H252272   0.399   0.392   4.632 -0.5640  2.4477 -1.7380
10261TIP3   OH252273   1.843   3.972   2.171 -0.5327  0.5886  0.2349
10261TIP3    H152274   1.894   3.905   2.216 -2.0666  0.5630  2.0090
10261TIP3    H252275   1.767   3.925   2.136  1.4901  0.2555 -4.0456
10262TIP3   OH252276   0.036   3.541   5.636 -0.0277 -0.0067  0.2226
10262TIP3    H152277   0.120   3.586   5.645  0.1386 -0.1992 -0.3357
10262TIP3    H252278   0.052   3.475   5.568 -1.2715  1.4863 -1.5629
10263TIP3   OH252279   0.863   5.314  11.586  0.0730  0.0984 -0.8610
10263TIP3    H152280   0.820   5.380  11.641  0.9801  0.1259 -0.1741
10263TIP3    H252281   0.856   5.349  11.497  0.2195  0.9550 -0.5467
10264TIP3   OH252282   3.258   3.039   0.256 -0.3806  0.0192  0.0264
10264TIP3    H152283   3.253   2.946   0.232  0.5813 -0.1291  0.3941
10264TIP3    H252284   3.169   3.072   0.241 -0.5765 -0.8115 -0.7095
10265TIP3   OH252285   6.514   6.024   3.312 -0.0563  0.4575 -0.2919
10265TIP3    H152286   6.602   6.060   3.298 -0.0991  0.9847  0.7358
10265TIP3    H252287   6.462   6.061   3.241 -0.2736  3.0549  1.1430
10266TIP3   OH252288   0.917   4.422   1.486  0.3635 -0.6127  0.1576
10266TIP3    H152289   0.957   4.406   1.400  1.6904 -0.6790  0.7741
10266TIP3    H252290   0.828   4.388   1.477  0.7676 -1.4305 -0.9209
10267TIP3   OH252291   3.565   4.909  15.725 -0.4324 -0.0201  0.0032
10267TIP3    H152292   3.646   4.858  15.725 -1.3501 -1.5397 -0.1004
10267TIP3    H252293   3.569   4.961  15.645  0.3025 -0.3313 -0.1659
10268TIP3   OH252294   4.170   4.483  14.932  0.4735 -0.2866 -0.7298
10268TIP3    H152295   4.170   4.493  15.027  1.3999 -1.6628 -0.5627
10268TIP3    H252296   4.262   4.471  14.909  0.5060  2.3411 -2.0853
10269TIP3   OH252297   0.837   5.600   3.716 -0.0821 -0.5121  0.2630
10269TIP3    H152298   0.929   5.621   3.732 -0.5208  1.2940  0.6558
10269TIP3    H252299   0.811   5.659   3.645 -0.5269 -2.1147 -0.9064
10270TIP3   OH252300   0.464   6.405  16.241  0.0104  0.3092  0.6430
10270TIP3    H152301   0.548   6.406  16.286  0.2667  1.4127  0.1522
10270TIP3    H252302   0.479   6.352  16.163 -0.1675 -0.7686  1.3307
10271TIP3   OH252303   3.922   4.522   0.344 -0.0926 -0.0202 -0.0194
10271TIP3    H152304   3.949   4.583   0.276  3.5316 -0.8623  0.5195
10271TIP3    H252305   3.964   4.555   0.423 -0.1254 -1.7970  0.7587
10272TIP3   OH252306   4.560   2.753   0.915 -0.3849  0.6431  0.3383
10272TIP3    H152307   4.480   2.774   0.868 -1.1537 -0.2670  1.2060
10272TIP3    H252308   4.571   2.824   0.978 -0.2039  1.0541 -0.1568
10273TIP3   OH252309   4.728   0.493  16.925  0.4448 -0.4646  0.5124
10273TIP3    H152310   4.813   0.507  16.882  1.4370 -1.5012  2.0715
10273TIP3    H252311   4.751   0.459  17.012 -1.5347  0.7958  1.5456
10274TIP3   OH252312   5.923   3.629   5.066  0.4926 -0.3677 -0.0155
10274TIP3    H152313   5.928   3.633   5.162 -2.3005  0.2424  0.1404
10274TIP3    H252314   5.941   3.538   5.045  0.0146 -0.7488  1.1722
10275TIP3   OH252315   1.942   6.403  14.242  0.2530  0.5611  0.1537
10275TIP3    H152316   1.975   6.467  14.179 -0.5716  1.4271  0.5844
10275TIP3    H252317   1.867   6.446  14.283  0.3908 -0.2397  1.2702
10276TIP3   OH252318   1.459   4.874  17.238  0.0740 -0.4428  0.1648
10276TIP3    H152319   1.400   4.896  17.310  0.3039 -0.3410  0.3210
10276TIP3    H252320   1.502   4.794  17.266  2.2536  1.1204  1.3734
10277TIP3   OH252321   5.536   1.024  15.041 -0.5909  0.6579  0.2824
10277TIP3    H152322   5.622   0.992  15.068 -1.2909 -1.3004  0.2765
10277TIP3    H252323   5.532   1.114  15.074  1.1872  0.5570  0.8311
10278TIP3   OH252324   4.338   5.435   5.368 -0.2490  0.2757 -0.1590
10278TIP3    H152325   4.249   5.400   5.365 -0.4681  0.7931  0.2543
10278TIP3    H252326   4.346   5.475   5.455  0.8672 -1.0182  0.3543
10279TIP3   OH252327   5.478   1.412   5.288  0.6337  0.3958 -0.2820
10279TIP3    H152328   5.422   1.451   5.356 -1.3412  0.4249 -1.8702
10279TIP3    H252329   5.555   1.381   5.335  0.4759  2.7062  1.6028
10280TIP3   OH252330   4.587   5.910   5.933  0.0641 -0.4192 -0.2700
10280TIP3    H152331   4.569   5.819   5.910 -0.1699 -0.3256 -0.4706
10280TIP3    H252332   4.547   5.960   5.861  1.2036 -0.2056 -0.7575
10281TIP3   OH252333   3.583   3.904  11.604  0.2468 -0.5610 -0.2629
10281TIP3    H152334   3.594   3.820  11.647 -0.1600 -0.4058  0.1483
10281TIP3    H252335   3.490   3.906  11.578 -0.8983  1.5573  3.5633
10282TIP3   OH252336   2.046   6.650   0.534  0.3517  0.1617  0.5904
10282TIP3    H152337   2.112   6.699   0.582  0.1838  0.6659  0.3051
10282TIP3    H252338   2.004   6.714   0.477 -0.0946 -0.2403  0.4591
10283TIP3   OH252339   5.715   5.814  12.314 -0.3232  0.1136  0.4645
10283TIP3    H152340   5.747   5.785  12.229 -2.1838 -1.7338  0.3512
10283TIP3    H252341   5.734   5.742  12.373  0.8249  1.3292  1.6196
10284TIP3   OH252342   4.620   5.235  12.438  0.0615 -0.4011  0.2232
10284TIP3    H152343   4.678   5.194  12.502  1.3423 -0.1405 -0.7567
10284TIP3    H252344   4.634   5.186  12.357  0.7124  1.1817 -0.6449
10285TIP3   OH252345   4.497   4.551  13.345 -0.1678  0.1232 -0.3005
10285TIP3    H152346   4.572   4.495  13.365 -0.6575 -0.4937 -0.1480
10285TIP3    H252347   4.508   4.575  13.253 -1.0781 -2.0050 -0.9899
10286TIP3   OH252348   4.874   0.316  11.450 -0.1493  0.4696  0.0675
10286TIP3    H152349   4.872   0.305  11.545  0.9326  0.3516  0.0821
10286TIP3    H252350   4.871   0.227  11.416 -1.8578  0.5534 -0.0483
10287TIP3   OH252351   4.850   3.112   0.754  0.2237 -0.2510  0.4074
10287TIP3    H152352   4.881   3.183   0.811 -0.3615 -0.8476  1.4900
10287TIP3    H252353   4.894   3.034   0.787 -2.2315 -1.0835  1.8591
10288TIP3   OH252354   1.466   1.640  14.387  0.7976 -0.1747 -0.4179
10288TIP3    H152355   1.472   1.589  14.468  0.9803 -0.8625 -0.8547
10288TIP3    H252356   1.535   1.706  14.395 -0.1354  0.6864  0.6222
10289TIP3   OH252357   3.105   5.127  17.038 -0.3733 -0.7823 -0.3328
10289TIP3    H152358   3.133   5.128  17.129 -0.0614  0.5117 -0.4444
10289TIP3    H252359   3.036   5.060  17.036  1.3882 -2.6884  0.3052
10290TIP3   OH252360   6.574   6.382   2.348 -0.0517  0.4848  0.2495
10290TIP3    H152361   6.516   6.306   2.344  1.9296 -1.0263 -0.9941
10290TIP3    H252362   6.642   6.356   2.411  1.7994  0.3360 -1.7465
10291TIP3   OH252363   3.935   6.120  16.691  0.2766 -0.4832 -0.4185
10291TIP3    H152364   3.864   6.114  16.628 -0.2383 -0.8951  0.1926
10291TIP3    H252365   3.898   6.088  16.773  1.7174 -2.5658 -0.5400
10292TIP3   OH252366   4.987   2.151  15.409  0.1971 -0.7367 -0.2463
10292TIP3    H152367   4.941   2.129  15.328 -0.3097 -2.3128  0.4448
10292TIP3    H252368   4.919   2.149  15.476  0.6600  0.3119  0.2655
10293TIP3   OH252369   0.216   1.835  13.337 -0.6601 -0.1262  0.2457
10293TIP3    H152370   0.180   1.832  13.425  0.7192  2.5163  0.9604
10293TIP3    H252371   0.150   1.879  13.284 -1.1571 -1.0210  0.1095
10294TIP3   OH252372   4.288   5.925   4.478  0.4369  0.0079  0.1445
10294TIP3    H152373   4.226   5.992   4.508 -0.4963 -0.9897  0.4597
10294TIP3    H252374   4.328   5.963   4.399 -3.1679 -0.7487 -2.1780
10295TIP3   OH252375   5.243   6.781  13.334  0.8546 -0.1977 -0.3957
10295TIP3    H152376   5.153   6.811  13.344  1.4310  1.6132 -0.4663
10295TIP3    H252377   5.235   6.692  13.300 -0.8992  0.2076 -1.1027
10296TIP3   OH252378   5.929   0.570   3.804 -0.1670  0.3507  0.3813
10296TIP3    H152379   5.970   0.640   3.754  1.1140 -0.5005  0.2066
10296TIP3    H252380   5.994   0.548   3.872 -0.5428 -0.6577  0.4207
10297TIP3   OH252381   2.248   2.751  16.332 -0.5539  0.4226 -0.0780
10297TIP3    H152382   2.218   2.667  16.295  2.0438  0.1851 -1.7910
10297TIP3    H252383   2.276   2.801  16.256  1.0752  1.5468  1.2415
10298TIP3   OH252384   4.154   6.456  11.804  0.4807 -0.5766 -0.4826
10298TIP3    H152385   4.237   6.411  11.817 -0.2062 -1.2213  1.9021
10298TIP3    H252386   4.091   6.386  11.786 -0.3684 -0.5460  2.1218
10299TIP3   OH252387   1.153   2.067   3.166 -0.2407  0.1488 -0.3960
10299TIP3    H152388   1.070   2.035   3.201 -0.2265 -0.0467 -0.5351
10299TIP3    H252389   1.205   2.090   3.243 -0.5344  0.5521 -0.3198
10300TIP3   OH252390   3.501   1.342   3.722 -0.2985  0.4556  0.9230
10300TIP3    H152391   3.563   1.344   3.649 -0.1810 -1.4903  0.9538
10300TIP3    H252392   3.537   1.405   3.785  1.5794 -0.5465  0.8876
10301TIP3   OH252393   3.864   3.593   0.221 -0.0016 -0.0575  0.0111
10301TIP3    H152394   3.788   3.649   0.238 -0.6465 -1.5042  1.9858
10301TIP3    H252395   3.833   3.532   0.154 -0.3646 -0.2069  0.3119
10302TIP3   OH252396   2.012   4.293  16.054 -0.1824 -0.0575 -0.0527
10302TIP3    H152397   1.963   4.239  15.992  0.3816 -0.5237 -0.0948
10302TIP3    H252398   1.990   4.383  16.029  0.1851 -0.2395 -1.0433
10303TIP3   OH252399   2.167   2.461  14.930 -0.7200  0.5398 -0.6256
10303TIP3    H152400   2.240   2.400  14.939  0.1555  1.4549 -1.4757
10303TIP3    H252401   2.196   2.525  14.865 -2.3877  0.7285 -1.2273
10304TIP3   OH252402   5.623   4.258  11.324 -0.2669  0.3977  0.0795
10304TIP3    H152403   5.702   4.302  11.293  1.1328 -0.9853  1.6321
10304TIP3    H252404   5.654   4.175  11.359 -2.6499 -1.0522 -1.0998
10305TIP3   OH252405   5.411   0.601  12.871  0.6089 -0.5751  0.2006
10305TIP3    H152406   5.499   0.607  12.908  0.7464 -1.4883  0.0296
10305TIP3    H252407   5.356   0.575  12.944  0.0559  2.2942  0.8787
10306TIP3   OH252408   6.810   5.798  15.908  0.5669 -0.1866  0.1809
10306TIP3    H152409   6.733   5.777  15.855 -1.0363  0.6794  2.1280
10306TIP3    H252410   6.804   5.739  15.983  2.2434 -0.6625 -0.0416
10307TIP3   OH252411   6.791   3.008   5.691  0.1663  0.0433 -0.0323
10307TIP3    H152412   6.735   2.978   5.619 -0.7582 -2.4516  1.6604
10307TIP3    H252413   6.758   3.095   5.712 -2.2309 -0.8283 -0.0070
10308TIP3   OH252414   5.141   5.342   2.078 -0.1688  0.1300  0.1753
10308TIP3    H152415   5.168   5.367   1.990  0.6215  0.0157  0.3860
10308TIP3    H252416   5.062   5.394   2.094 -0.5335 -0.1328 -0.7442
10309TIP3   OH252417   4.860   4.229   0.269  0.1055 -0.0651 -0.0391
10309TIP3    H152418   4.924   4.290   0.232  1.7281 -0.1626  2.4016
10309TIP3    H252419   4.911   4.150   0.287 -1.2025 -0.9146 -0.0483
10310TIP3   OH252420   0.959   3.045   4.048 -0.4085 -0.2889  0.3012
10310TIP3    H152421   0.894   3.036   4.117 -0.2328  0.3191  0.5427
10310TIP3    H252422   0.908   3.060   3.969 -0.6557 -1.8750  0.1339
10311TIP3   OH252423   0.856   1.819   5.776 -0.4510 -0.2154 -0.3889
10311TIP3    H152424   0.866   1.739   5.828 -0.1708 -1.1134 -1.8079
10311TIP3    H252425   0.937   1.868   5.791 -0.7929  0.0151  0.8031
10312TIP3   OH252426   2.550   1.600  17.225 -0.1065  0.6065 -0.1070
10312TIP3    H152427   2.459   1.574  17.236 -0.0455  0.2962 -0.3348
10312TIP3    H252428   2.600   1.528  17.263  0.0654  0.3579 -0.7998
10313TIP3   OH252429   4.031   2.698   3.344 -0.0681  0.3797 -0.2385
10313TIP3    H152430   4.109   2.664   3.300 -0.4189 -0.0333 -0.5482
10313TIP3    H252431   3.998   2.767   3.287 -1.3961 -1.1915 -1.3961
10314TIP3   OH252432   1.372   0.112  16.474  0.0901 -0.7194 -0.1516
10314TIP3    H152433   1.351   0.035  16.526 -0.9131  0.2434  0.9139
10314TIP3    H252434   1.449   0.087  16.423  0.9460 -1.7702  1.6277
10315TIP3   OH252435   5.631   5.007  10.639  0.6955 -0.2843  0.3504
10315TIP3    H152436   5.706   4.970  10.687  0.0654  0.9531  2.3543
10315TIP3    H252437   5.644   5.102  10.644 -0.3146 -0.1026 -0.4448
10316TIP3   OH252438   4.148   2.553   3.602  0.5528  0.1072 -0.7334
10316TIP3    H152439   4.143   2.554   3.506  2.2305  2.3073 -0.8322
10316TIP3    H252440   4.072   2.603   3.631  0.0664 -0.5252 -0.9293
10317TIP3   OH252441   2.597   1.872  15.261 -0.2838  0.2274  0.0155
10317TIP3    H152442   2.549   1.852  15.181 -0.7861  0.8110  0.1647
10317TIP3    H252443   2.552   1.822  15.329  1.1596 -1.5709 -0.3321
10318TIP3   OH252444   6.546   3.886   3.523 -0.1622  0.2821  0.3317
10318TIP3    H152445   6.618   3.927   3.571  0.8581 -0.9923 -0.0703
10318TIP3    H252446   6.468   3.909   3.572  0.4821  1.9192  0.6301
10319TIP3   OH252447   6.256   1.998  12.812 -0.1374 -0.6111  0.3564
10319TIP3    H152448   6.307   1.926  12.849 -1.4520 -0.2770  2.9583
10319TIP3    H252449   6.168   1.962  12.801 -0.4854  0.2044  0.4160
10320TIP3   OH252450   4.200   1.735  14.505  0.1591 -0.1944  0.5386
10320TIP3    H152451   4.210   1.750  14.411 -2.2172  0.3640  0.3431
10320TIP3    H252452   4.132   1.797  14.532  0.6801 -0.4784  2.5962
10321TIP3   OH252453   4.465   0.037   4.675  0.0044 -0.0066  0.0705
10321TIP3    H152454   4.422  -0.034   4.629  1.8626 -0.8997 -0.3288
10321TIP3    H252455   4.554   0.005   4.692  0.6416  1.9252  0.5351
10322TIP3   OH252456   6.421   0.075  14.588 -0.3662  0.1409 -0.5388
10322TIP3    H152457   6.460  -0.011  14.578 -0.3747  0.4168 -3.3358
10322TIP3    H252458   6.354   0.064  14.656  0.2253 -1.8352 -0.2710
10323TIP3   OH252459   1.674   0.326  16.690  0.3046  0.1768  0.3582
10323TIP3    H152460   1.595   0.333  16.636  0.4653 -0.6932  0.0002
10323TIP3    H252461   1.710   0.415  16.692  0.6132  0.1115 -1.4575
10324TIP3   OH252462   5.515   6.466  13.748 -0.3809 -0.1965 -0.1493
10324TIP3    H152463   5.539   6.403  13.815 -0.3615 -1.4281 -1.2994
10324TIP3    H252464   5.589   6.527  13.745  0.6808 -1.4836 -0.6722
10325TIP3   OH252465   0.397   2.115  11.943  0.5988  0.2451  0.2624
10325TIP3    H152466   0.428   2.199  11.909 -0.8217  1.1237  1.1066
10325TIP3    H252467   0.308   2.107  11.910  1.6884 -2.3239 -2.2559
10326TIP3   OH252468   2.599   5.220  16.534 -0.0146  0.1655  0.3813
10326TIP3    H152469   2.600   5.197  16.627  2.5322  0.0682  0.3415
10326TIP3    H252470   2.600   5.316  16.534 -0.0202  0.1658  0.4512
10327TIP3   OH252471   6.565   6.282  14.896 -0.0991  0.7846 -0.0627
10327TIP3    H152472   6.606   6.337  14.963  0.4515 -2.6834  2.5840
10327TIP3    H252473   6.471   6.288  14.915 -0.1681  1.9680 -0.7377
10328TIP3   OH252474   5.225   2.205  16.234 -0.3669 -0.5767 -0.7889
10328TIP3    H152475   5.175   2.233  16.158  0.3713 -0.6512 -1.3006
10328TIP3    H252476   5.264   2.122  16.208  1.3036  0.2415 -0.9623
10329TIP3   OH252477   2.168   4.076   3.999  0.1061  0.0104 -0.4930
10329TIP3    H152478   2.132   4.142   3.940  0.9760  0.5302 -0.4379
10329TIP3    H252479   2.210   4.012   3.941 -1.6160 -1.0522 -0.6152
10330TIP3   OH252480   6.694   1.818   0.250  0.2759 -0.3912  0.0912
10330TIP3    H152481   6.757   1.889   0.261 -1.4168  1.4086 -1.6515
10330TIP3    H252482   6.666   1.825   0.159 -0.6814 -2.6766  0.1802
10331TIP3   OH252483   3.986   1.158   6.500 -0.0637 -0.4071 -0.0903
10331TIP3    H152484   4.052   1.225   6.517 -1.8001  1.8786 -2.0843
10331TIP3    H252485   3.910   1.186   6.551 -0.1408 -2.0187  0.7163
10332TIP3   OH252486   4.361   1.986   2.521 -0.3968  0.0480  0.0771
10332TIP3    H152487   4.380   2.066   2.471  0.3825 -0.1909 -0.0235
10332TIP3    H252488   4.295   2.013   2.585 -1.5614  0.3031 -1.2173
10333TIP3   OH252489   3.908   3.103   3.409 -0.4116  0.4176  0.1570
10333TIP3    H152490   3.918   3.198   3.408  1.7867  0.2179  0.2356
10333TIP3    H252491   3.950   3.074   3.329  1.6720 -0.6950  1.6042
10334TIP3   OH252492   5.452   2.488   1.357  0.1440  0.1784  0.1384
10334TIP3    H152493   5.378   2.511   1.414  2.1871  0.0516  2.9219
10334TIP3    H252494   5.526   2.535   1.394  1.7263 -0.6543 -1.9038
10335TIP3   OH252495   6.607   1.330   2.219 -0.1684 -0.3096  0.0511
10335TIP3    H152496   6.524   1.338   2.265  0.7410  0.1325  1.6763
10335TIP3    H252497   6.663   1.283   2.280  1.4488  1.3681 -0.0843
10336TIP3   OH252498   0.677   0.462   3.885  0.0591  0.0467  0.0467
10336TIP3    H152499   0.747   0.415   3.840 -0.1397  0.7584 -1.0179
10336TIP3    H252500   0.664   0.414   3.967  2.4066  0.4288  0.6710
10337TIP3   OH252501   2.643   3.362   6.345  0.3664  0.0221 -1.0162
10337TIP3    H152502   2.580   3.385   6.276  0.4849  2.3329 -0.4054
10337TIP3    H252503   2.608   3.282   6.384 -0.9338 -0.0320 -2.2446
10338TIP3   OH252504   6.681   5.090  14.805 -0.0815  0.2877 -0.1476
10338TIP3    H152505   6.640   5.087  14.891 -0.5676  1.3564 -0.3315
10338TIP3    H252506   6.695   4.998  14.781 -1.9538 -0.0902  0.1223
10339TIP3   OH252507   1.210   4.899   5.386  0.3248  0.1442 -0.1463
10339TIP3    H152508   1.219   4.862   5.298 -2.1145 -0.9979  0.0484
10339TIP3    H252509   1.176   4.987   5.372  0.8764  0.3174 -0.3886
10340TIP3   OH252510   2.401   1.641   5.947 -0.1191  0.1062  0.0700
10340TIP3    H152511   2.357   1.609   5.868  0.5477  1.6851 -0.9653
10340TIP3    H252512   2.363   1.728   5.962  2.7664  1.5886 -0.9670
10341TIP3   OH252513   4.425   0.337   5.206 -0.0880 -0.2013  0.2235
10341TIP3    H152514   4.504   0.297   5.171  0.8835  0.1502  1.9698
10341TIP3    H252515   4.440   0.431   5.198 -0.0570 -0.1251  1.1377
10342TIP3   OH252516   4.609   2.854  16.927 -0.2044  0.1652 -0.0672
10342TIP3    H152517   4.658   2.882  16.850  0.9192  0.7950  0.8558
10342TIP3    H252518   4.620   2.926  16.989 -0.1055 -0.8570  1.1119
10343TIP3   OH252519   6.569   1.961  14.326 -0.4040  0.1638 -0.2822
10343TIP3    H152520   6.547   1.935  14.416 -0.6702  1.5435  0.0753
10343TIP3    H252521   6.621   1.888  14.292 -0.2356 -0.3494  1.0214
10344TIP3   OH252522   3.388   5.761   3.083 -0.4730  0.1873 -0.1066
10344TIP3    H152523   3.393   5.675   3.124  0.7516  0.6412  0.7504
10344TIP3    H252524   3.357   5.819   3.153  1.3186  0.9165  0.1160
10345TIP3   OH252525   6.803   4.624   1.393 -0.8996  0.2944 -0.0792
10345TIP3    H152526   6.860   4.650   1.320 -1.6838  1.5444 -0.2461
10345TIP3    H252527   6.746   4.699   1.407 -0.9869 -0.0737  1.6118
10346TIP3   OH252528   3.892   5.677   4.600 -0.7846 -0.3408 -0.0374
10346TIP3    H152529   3.926   5.680   4.690  0.2489  1.3601 -0.4576
10346TIP3    H252530   3.968   5.695   4.545 -1.8982  1.1827 -1.1123
10347TIP3   OH252531   6.036   3.365  12.668 -0.2807 -0.0841  0.0409
10347TIP3    H152532   5.956   3.337  12.622  1.1148 -0.9079 -1.9479
10347TIP3    H252533   6.038   3.311  12.747 -0.9461 -1.1182 -0.6241
10348TIP3   OH252534   0.866   4.289   4.934  0.2150 -0.2835 -0.0989
10348TIP3    H152535   0.957   4.297   4.907  0.3580 -1.6530 -0.0313
10348TIP3    H252536   0.868   4.232   5.011 -0.6543  0.0815  0.2091
10349TIP3   OH252537   1.279   2.201   0.057  0.4087 -0.3609 -0.0388
10349TIP3    H152538   1.249   2.110   0.056 -0.7927  0.0046  1.3695
10349TIP3    H252539   1.374   2.196   0.046  0.0339 -1.6137 -3.6454
10350TIP3   OH252540   5.760   4.522   4.733  0.0388 -0.0441 -0.2576
10350TIP3    H152541   5.703   4.498   4.660 -0.5774  0.3230  0.0956
10350TIP3    H252542   5.835   4.565   4.692 -1.2662  2.0072 -0.5480
10351TIP3   OH252543   4.911   5.866  11.486  0.2408  0.3338  0.1556
10351TIP3    H152544   4.885   5.951  11.521  2.5640  2.0998 -2.2126
10351TIP3    H252545   5.004   5.859  11.506  0.3723 -1.0261 -0.8790
10352TIP3   OH252546   6.156   4.199   1.145 -0.4275 -0.2752 -0.2447
10352TIP3    H152547   6.160   4.285   1.186 -0.3855 -0.4062  0.0331
10352TIP3    H252548   6.161   4.216   1.051 -0.5417  0.0324 -0.1954
10353TIP3   OH252549   0.183   6.504   3.997  0.3650  0.4020 -0.3375
10353TIP3    H152550   0.273   6.473   3.987 -0.0356 -0.6882 -0.6520
10353TIP3    H252551   0.135   6.427   4.027 -0.3514  1.1284  0.3926
10354TIP3   OH252552   6.059   4.353  10.416 -0.2152 -0.2913  0.1172
10354TIP3    H152553   5.978   4.403  10.406  0.6396  0.5357 -3.1505
10354TIP3    H252554   6.106   4.366  10.334  3.0882 -1.0339  1.7857
10355TIP3   OH252555   0.582   1.161   3.501 -1.0851 -0.5241  0.5499
10355TIP3    H152556   0.595   1.082   3.449 -0.8997  0.6232 -1.1764
10355TIP3    H252557   0.544   1.225   3.440 -2.1964  0.4157  2.1562
10356TIP3   OH252558   2.126   6.095  13.463  0.0713  0.2344 -0.1244
10356TIP3    H152559   2.053   6.076  13.404  0.6831 -1.4834 -0.3524
10356TIP3    H252560   2.199   6.117  13.405 -0.0552  1.2467  0.0842
10357TIP3   OH252561   2.192   4.945  13.416 -0.3992 -0.2633 -0.2891
10357TIP3    H152562   2.138   4.912  13.344  1.3291 -1.4530 -1.0600
10357TIP3    H252563   2.149   4.911  13.495 -0.0671 -2.3246 -0.9596
10358TIP3   OH252564   5.506   0.392  14.700  0.1062 -0.7660 -0.4737
10358TIP3    H152565   5.490   0.401  14.794 -0.1884  0.3300 -0.6182
10358TIP3    H252566   5.583   0.335  14.694  0.2255 -0.7111  0.4388
10359TIP3   OH252567   6.028   3.385   0.694 -0.7271 -0.4614 -0.2954
10359TIP3    H152568   6.073   3.301   0.687 -0.9501 -0.5385 -0.8282
10359TIP3    H252569   5.936   3.365   0.678 -0.9769 -0.3215  0.9286
10360TIP3   OH252570   4.466   4.436   5.736  0.1444  0.2604  0.2716
10360TIP3    H152571   4.490   4.461   5.825 -1.9229  0.0972  0.8902
10360TIP3    H252572   4.478   4.341   5.735 -0.5564  0.1680  0.6020
10361TIP3   OH252573   0.928   4.947  15.487  0.3515  0.3832 -0.6370
10361TIP3    H152574   0.870   4.879  15.454  0.8788 -0.1747 -0.4294
10361TIP3    H252575   0.988   4.964  15.414  0.5462  0.2526 -0.5076
10362TIP3   OH252576   5.431   4.486   1.272 -0.1907 -0.2770  0.4461
10362TIP3    H152577   5.504   4.509   1.329  0.0612 -2.2301  0.9665
10362TIP3    H252578   5.368   4.557   1.283  1.0706  0.7756  0.9898
10363TIP3   OH252579   4.090   2.351   4.851 -0.1849 -0.1450 -0.1935
10363TIP3    H152580   4.008   2.372   4.805 -0.3635  1.4919  0.8238
10363TIP3    H252581   4.159   2.385   4.794 -0.1466 -2.2767 -1.4582
10364TIP3   OH252582   4.153   5.497  11.072  0.2483  0.0783  0.1420
10364TIP3    H152583   4.197   5.447  11.004  0.1214 -1.5139  1.2108
10364TIP3    H252584   4.085   5.439  11.106 -1.5534  1.8555 -0.2796
10365TIP3   OH252585   1.244   3.783   5.149  0.3154 -0.1377 -0.0344
10365TIP3    H152586   1.222   3.843   5.220  0.8669  0.8369 -0.6820
10365TIP3    H252587   1.337   3.797   5.134  0.3092 -0.7082 -0.6075
10366TIP3   OH252588   5.467   3.747  11.047 -0.0410 -0.0450 -0.0322
10366TIP3    H152589   5.452   3.787  10.961  1.5445 -0.4124 -0.5065
10366TIP3    H252590   5.411   3.669  11.047  2.4915 -1.9779 -2.1727
10367TIP3   OH252591   2.895   1.192  14.272  0.2120 -0.2491 -0.1668
10367TIP3    H152592   2.948   1.113  14.288 -0.0434  0.0083  2.1084
10367TIP3    H252593   2.959   1.260  14.255  0.4667 -0.7277 -1.1928
10368TIP3   OH252594   2.935   1.569   4.216  0.3885  0.5615 -0.5520
10368TIP3    H152595   2.949   1.480   4.184 -0.2352  0.5188 -0.7279
10368TIP3    H252596   2.852   1.564   4.264  1.1571  0.6963  0.8124
10369TIP3   OH252597   5.085   4.064  13.472 -0.0045 -0.2973  0.2428
10369TIP3    H152598   5.120   4.074  13.560  0.6944  0.0722 -0.0729
10369TIP3    H252599   5.133   3.991  13.434 -0.5631 -0.6963  0.2915
10370TIP3   OH252600   1.899   2.067  12.777  0.6236 -0.6573  0.4544
10370TIP3    H152601   1.940   1.982  12.792  1.2113 -0.4105  0.2241
10370TIP3    H252602   1.884   2.071  12.683 -1.5631 -1.5002  0.7195
10371TIP3   OH252603   2.207   6.264   1.609  0.0223  0.3158 -0.1219
10371TIP3    H152604   2.249   6.343   1.576  1.4996  0.4035  1.8711
10371TIP3    H252605   2.250   6.192   1.563  0.2283  0.5640 -0.3134
10372TIP3   OH252606   4.829   3.928   2.000 -0.1268  0.4018  0.3693
10372TIP3    H152607   4.804   4.011   2.041 -1.9187  0.6440 -1.1553
10372TIP3    H252608   4.922   3.918   2.021 -0.3207  1.9332  2.0247
10373TIP3   OH252609   1.745   4.235   3.156 -0.5612  0.2691 -0.0776
10373TIP3    H152610   1.721   4.145   3.131  1.3392 -0.1596 -0.4310
10373TIP3    H252611   1.708   4.246   3.244 -1.0495 -0.7687 -0.1486
10374TIP3   OH252612   0.473   4.150   2.344  0.4890  0.0311 -0.0232
10374TIP3    H152613   0.429   4.220   2.297 -0.9578 -1.4237 -0.9009
10374TIP3    H252614   0.553   4.134   2.294  0.2270  0.2537 -0.5164
10375TIP3   OH252615   4.452   1.287   3.636  0.3546 -0.3070 -0.0474
10375TIP3    H152616   4.360   1.286   3.609  0.2244  0.7312  0.3523
10375TIP3    H252617   4.449   1.287   3.732  0.7583  0.5516 -0.0321
10376TIP3   OH252618   1.284   1.440  17.005 -0.3377 -0.1121  0.3077
10376TIP3    H152619   1.271   1.486  17.088  2.4515  1.1300  0.0986
10376TIP3    H252620   1.379   1.434  16.996 -0.6213 -0.8426 -2.4643
10377TIP3   OH252621   1.313   0.473  11.731  0.2465 -0.0299  0.5726
10377TIP3    H152622   1.269   0.529  11.666 -1.4889  1.0044  2.5864
10377TIP3    H252623   1.297   0.384  11.700  0.0467  0.4624 -0.7978
10378TIP3   OH252624   1.322   2.560   5.314  0.3503 -0.3027  0.1363
10378TIP3    H152625   1.285   2.581   5.400 -0.9298 -0.0574 -0.4617
10378TIP3    H252626   1.416   2.555   5.329  0.0880 -0.9148  1.6928
10379TIP3   OH252627   4.713   5.067  15.225  0.2477  0.1509  0.4420
10379TIP3    H152628   4.623   5.098  15.216  1.6857  4.7774  1.0789
10379TIP3    H252629   4.729   5.017  15.145 -3.0818 -1.4431  0.6864
10380TIP3   OH252630   4.574   1.850   6.730 -0.3011  0.1662 -0.4544
10380TIP3    H152631   4.480   1.861   6.738 -0.3429  1.1619 -2.2020
10380TIP3    H252632   4.585   1.766   6.685 -0.3128 -0.4440  0.6615
10381TIP3   OH252633   4.766   0.279  14.978 -0.0750  0.1147 -0.2925
10381TIP3    H152634   4.705   0.213  15.011  1.1758 -1.0968 -0.3926
10381TIP3    H252635   4.718   0.362  14.986 -0.3010 -0.3018  3.2927
10382TIP3   OH252636   1.256   4.635  12.779  0.3370 -0.1238  0.2150
10382TIP3    H152637   1.345   4.613  12.750 -0.1970  1.1624 -2.5337
10382TIP3    H252638   1.264   4.725  12.813  0.4419 -0.6952  1.7369
10383TIP3   OH252639   3.926   1.914  15.724  0.0206 -0.0628  0.0600
10383TIP3    H152640   3.928   1.873  15.638  0.3066 -1.2182  0.6001
10383TIP3    H252641   4.016   1.908  15.756  0.1059  1.1656  0.0719
10384TIP3   OH252642   4.066   4.900   4.487  0.3156  0.3675 -0.3290
10384TIP3    H152643   3.981   4.896   4.444 -0.3324 -0.4975  1.0037
10384TIP3    H252644   4.067   4.824   4.545  1.1626  1.5212  1.1881
10385TIP3   OH252645   3.225   4.875   6.131 -0.6041  0.0135 -0.3500
10385TIP3    H152646   3.294   4.828   6.178 -1.1728 -0.9946 -0.5177
10385TIP3    H252647   3.272   4.937   6.075  0.1657 -0.6778 -0.4687
10386TIP3   OH252648   0.828   5.715   0.068 -0.1449  0.2349  0.3963
10386TIP3    H152649   0.763   5.676   0.010 -0.9826 -0.3062  1.6665
10386TIP3    H252650   0.842   5.803   0.033 -1.1928  0.1743 -0.1870
10387TIP3   OH252651   5.988   3.557  11.662 -0.2273 -0.5770  0.2983
10387TIP3    H152652   6.000   3.604  11.744 -0.6282  0.2836 -0.1280
10387TIP3    H252653   6.077   3.540  11.631 -0.0795  0.2476  0.2607
10388TIP3   OH252654   2.125   4.169  12.531 -0.0358  0.0828  0.4690
10388TIP3    H152655   2.128   4.265  12.524 -1.1150  0.1090  0.2286
10388TIP3    H252656   2.205   4.146  12.577  1.3745  0.9138 -1.4750
10389TIP3   OH252657   0.280   4.009  13.314 -0.0115  0.0565  0.1134
10389TIP3    H152658   0.337   4.038  13.385 -0.2595 -0.5628  0.5691
10389TIP3    H252659   0.264   4.088  13.262  2.1515  0.0332 -0.6602
10390TIP3   OH252660   4.025   2.016  14.962  0.0424  0.7729  0.3153
10390TIP3    H152661   4.001   2.024  14.869 -2.4615 -0.2033  0.8485
10390TIP3    H252662   4.069   2.099  14.982  0.1568  1.2002 -1.6195
10391TIP3   OH252663   4.957   5.754  16.037  0.4149 -0.4833 -0.1334
10391TIP3    H152664   4.869   5.716  16.030  1.4114 -2.7791 -0.3297
10391TIP3    H252665   4.952   5.835  15.985 -1.5422 -0.6299 -0.2182
10392TIP3   OH252666   4.999   6.709  16.259  0.4933 -0.4992  0.2817
10392TIP3    H152667   5.008   6.681  16.168 -0.2635  2.4073 -0.7192
10392TIP3    H252668   4.906   6.698  16.279  0.5329 -0.4539  0.4966
10393TIP3   OH252669   3.718   4.912  13.019 -0.8972 -0.4962  1.0520
10393TIP3    H152670   3.678   4.825  13.015 -0.0397 -0.8599  0.0432
10393TIP3    H252671   3.651   4.971  12.984  0.7026 -1.5994 -4.4097
10394TIP3   OH252672   4.761   6.814  12.156 -0.2224  0.2701 -0.3972
10394TIP3    H152673   4.805   6.828  12.239 -0.1641 -1.2057 -0.1749
10394TIP3    H252674   4.739   6.902  12.125 -0.8777  0.7886  1.5084
10395TIP3   OH252675   1.440   2.966  11.498 -0.1887  0.2885  0.2266
10395TIP3    H152676   1.439   2.933  11.408 -0.9899 -0.9539  0.6797
10395TIP3    H252677   1.411   3.057  11.490  1.7714  0.8235 -1.0010
10396TIP3   OH252678   3.724   0.173  14.608 -0.5901  0.1718 -0.0040
10396TIP3    H152679   3.668   0.098  14.586 -1.2938  0.5679  0.4164
10396TIP3    H252680   3.665   0.249  14.605 -0.7287  0.2717  3.0967
10397TIP3   OH252681   6.296   5.805   3.353  0.0087  0.2088 -0.3516
10397TIP3    H152682   6.375   5.852   3.327 -0.8094  1.9178  0.1361
10397TIP3    H252683   6.311   5.715   3.327  1.7933  0.6742 -0.9724
10398TIP3   OH252684   4.814   4.528   3.411 -0.0947 -0.2580  1.0447
10398TIP3    H152685   4.858   4.570   3.485 -1.5847  1.2079  1.1435
10398TIP3    H252686   4.729   4.501   3.445 -0.8914  0.6432 -0.1667
10399TIP3   OH252687   2.541   5.850  14.653 -0.0077 -0.0906  0.2396
10399TIP3    H152688   2.612   5.907  14.682  0.9809 -1.2682  0.1833
10399TIP3    H252689   2.461   5.901  14.666  0.7930  0.9783  0.9712
10400TIP3   OH252690   6.462   6.752   5.988 -0.2914 -0.2734 -0.1893
10400TIP3    H152691   6.394   6.791   5.933 -1.1303 -1.9399 -0.3754
10400TIP3    H252692   6.528   6.820   5.996 -1.6426  1.1215 -0.6132
10401TIP3   OH252693   4.586   4.038  11.246 -0.2185  0.1194 -0.3739
10401TIP3    H152694   4.630   4.029  11.161  0.5496 -0.0412  0.0298
10401TIP3    H252695   4.514   4.099  11.230  0.0583  0.2690 -1.0865
10402TIP3   OH252696   2.623   6.126  12.400 -0.0720  0.0421 -1.1675
10402TIP3    H152697   2.661   6.094  12.482 -1.0963  1.6806 -0.0148
10402TIP3    H252698   2.552   6.184  12.428 -1.2546 -0.3663 -3.2458
10403TIP3   OH252699   6.174   3.454  14.763 -0.5272  0.7803  0.5634
10403TIP3    H152700   6.202   3.378  14.815  0.0888  1.9616  1.9860
10403TIP3    H252701   6.252   3.478  14.713 -0.8691  0.1783 -0.2686
10404TIP3   OH252702   0.711   3.478  12.569  0.2404  0.3044 -0.0020
10404TIP3    H152703   0.795   3.442  12.543  0.8307  1.3810  0.3981
10404TIP3    H252704   0.662   3.485  12.487  1.2121  1.3938 -0.5074
10405TIP3   OH252705   5.719   5.873  11.691 -0.1819  0.1893  0.3913
10405TIP3    H152706   5.746   5.891  11.601 -2.0391  1.1142  0.0074
10405TIP3    H252707   5.702   5.779  11.692  1.0389 -0.0427  0.1080
10406TIP3   OH252708   0.405   4.270   0.011  0.3210  0.7635  0.0077
10406TIP3    H152709   0.388   4.245  -0.080  1.4795  1.2886 -0.3658
10406TIP3    H252710   0.323   4.310   0.040 -0.9320 -1.7343  0.0230
10407TIP3   OH252711   6.228   3.131   0.826 -0.1968  0.5237  0.0401
10407TIP3    H152712   6.297   3.123   0.891 -0.1225  1.4462  0.0917
10407TIP3    H252713   6.273   3.123   0.742  0.2752  2.8510  0.0220
10408TIP3   OH252714   5.005   0.464  16.803  0.0585  0.2233  0.0863
10408TIP3    H152715   5.047   0.431  16.882 -1.1441  2.2860  1.6393
10408TIP3    H252716   5.033   0.404  16.734  2.4879 -0.6264  1.7558
10409TIP3   OH252717   2.052   1.343  14.168 -0.1073  0.3635 -0.2481
10409TIP3    H152718   2.055   1.249  14.148  1.7862  0.9450 -2.9486
10409TIP3    H252719   2.072   1.349  14.261 -0.6659 -1.9404  0.0416
10410TIP3   OH252720   5.811   6.637   5.503 -0.6937 -0.2987 -0.5478
10410TIP3    H152721   5.756   6.712   5.527  2.5610  2.4478 -1.2603
10410TIP3    H252722   5.851   6.662   5.420  0.4528 -2.8870 -0.8365
10411TIP3   OH252723   6.001   0.209   1.133 -0.5094 -0.3020 -0.0695
10411TIP3    H152724   5.934   0.211   1.065 -0.7011  1.6082  0.1434
10411TIP3    H252725   5.972   0.275   1.196  1.2356  0.0712  0.3548
10412TIP3   OH252726   5.422   5.874  14.790  0.6771 -0.6852 -0.7393
10412TIP3    H152727   5.376   5.850  14.870  0.5459 -0.1388 -0.6475
10412TIP3    H252728   5.361   5.850  14.719  0.5775 -0.6856 -0.6536
10413TIP3   OH252729   1.450   2.153  16.069  0.4097  0.9834 -0.4114
10413TIP3    H152730   1.430   2.246  16.060  0.2629  1.0163  0.2375
10413TIP3    H252731   1.426   2.131  16.159 -2.3706 -0.3871 -1.4283
10414TIP3   OH252732   3.023   1.486  14.422 -0.4260  0.1321 -0.1884
10414TIP3    H152733   3.089   1.524  14.480 -1.2958 -0.4040  1.2056
10414TIP3    H252734   2.956   1.554  14.415 -1.1856 -0.4844  0.9394
10415TIP3   OH252735   1.068   5.271   1.322  0.3104  0.6485 -0.2416
10415TIP3    H152736   1.042   5.361   1.342  1.1723  1.2565 -1.7853
10415TIP3    H252737   1.026   5.252   1.238 -0.1649 -0.5309  0.2549
10416TIP3   OH252738   0.421   6.309  14.914 -0.4728  0.4824 -0.0446
10416TIP3    H152739   0.346   6.283  14.967  0.4484 -1.0730  0.5238
10416TIP3    H252740   0.424   6.244  14.843  1.2096 -0.3658  0.7829
10417TIP3   OH252741   5.135   0.385  13.242  0.1734  0.1525 -0.0888
10417TIP3    H152742   5.148   0.426  13.157 -2.4447  0.7228 -0.2448
10417TIP3    H252743   5.132   0.458  13.304  0.6088 -0.1568  0.2964
10418TIP3   OH252744   0.307   5.997  11.854 -0.6984 -0.1119  0.1127
10418TIP3    H152745   0.383   5.944  11.879 -1.3705 -1.1128  0.0382
10418TIP3    H252746   0.243   5.934  11.820 -1.9926  0.5791  1.2137
10419TIP3   OH252747   2.290   2.413   2.343 -0.2571  0.2306 -0.0696
10419TIP3    H152748   2.200   2.446   2.343 -0.4248 -0.2238  0.0982
10419TIP3    H252749   2.298   2.368   2.258  0.1236  1.1187 -0.5070
10420TIP3   OH252750   3.664   6.490  14.035 -0.5875  0.1014  0.2075
10420TIP3    H152751   3.569   6.477  14.030 -0.8424  1.3592  1.5320
10420TIP3    H252752   3.682   6.498  14.129  0.7760  0.3014 -0.0645
10421TIP3   OH252753   3.551   0.568  13.827 -0.5606  0.0783 -0.1261
10421TIP3    H152754   3.589   0.511  13.761 -0.5126 -2.5138  2.0248
10421TIP3    H252755   3.459   0.541  13.831 -0.2360 -0.8333  1.8321
10422TIP3   OH252756   1.465   5.531   2.337 -0.1985 -0.2392  0.0149
10422TIP3    H152757   1.525   5.574   2.277 -1.1102  1.7546  0.4901
10422TIP3    H252758   1.500   5.442   2.347  0.0314 -0.5892 -3.3520
10423TIP3   OH252759   6.141   1.565  15.760 -0.2716 -0.3120 -0.4198
10423TIP3    H152760   6.233   1.544  15.774 -0.7685 -1.8774  0.6490
10423TIP3    H252761   6.108   1.496  15.703 -1.0584 -0.4377  0.1706
10424TIP3   OH252762   3.609   4.488   6.117  0.7203  0.4941 -0.3333
10424TIP3    H152763   3.523   4.458   6.088  0.6866  1.4537 -1.2390
10424TIP3    H252764   3.648   4.411   6.159 -0.9882  0.3405  1.0328
10425TIP3   OH252765   4.258   1.525   4.518  0.3042 -0.3551 -0.1672
10425TIP3    H152766   4.200   1.601   4.513  2.0016  0.9689 -0.2336
10425TIP3    H252767   4.206   1.459   4.563 -1.6160  0.4359 -1.1500
10426TIP3   OH252768   2.153   3.091   5.355 -0.0681 -0.1287  0.6244
10426TIP3    H152769   2.062   3.114   5.371 -0.0312 -0.5569  1.4622
10426TIP3    H252770   2.184   3.055   5.437  0.6904 -0.5537  0.1622
10427TIP3   OH252771   5.942   1.177   4.911  0.0884 -0.1231  0.6422
10427TIP3    H152772   5.851   1.169   4.884 -0.2285 -0.1328  1.6825
10427TIP3    H252773   5.938   1.218   4.998  1.1736  1.8343 -0.1922
10428TIP3   OH252774   5.502   5.878  12.794 -0.3135 -0.0638 -0.2495
10428TIP3    H152775   5.557   5.879  12.716  0.4775  1.9978  0.2792
10428TIP3    H252776   5.424   5.928  12.770  0.7986  2.3011  0.7998
10429TIP3   OH252777   1.616   3.885  16.626 -0.2150  0.2250  0.5590
10429TIP3    H152778   1.563   3.914  16.700 -1.3927 -1.9309  0.5990
10429TIP3    H252779   1.692   3.842  16.666  0.8571  1.9717  0.4890
10430TIP3   OH252780   4.697   3.583  13.114  0.2373 -0.0691  0.3814
10430TIP3    H152781   4.635   3.598  13.185  1.6213  3.0046  1.0279
10430TIP3    H252782   4.643   3.553  13.041 -1.7692  0.9466  1.4195
10431TIP3   OH252783   3.880   1.889  11.292  0.2382  0.2741 -0.4864
10431TIP3    H152784   3.815   1.912  11.226  0.0921  1.2505 -0.0130
10431TIP3    H252785   3.848   1.808  11.332 -0.5811  0.6443 -0.3900
10432TIP3   OH252786   5.331   0.077  15.123 -0.5585  0.1829  0.8490
10432TIP3    H152787   5.295   0.141  15.184 -0.9582  3.0356 -2.2163
10432TIP3    H252788   5.254   0.043  15.077  0.0560  1.2710 -1.0258
10433TIP3   OH252789   0.298   4.119  12.684 -0.4444  0.0166  0.2056
10433TIP3    H152790   0.320   4.044  12.738 -0.0110 -0.8845 -1.2054
10433TIP3    H252791   0.220   4.156  12.726 -1.3291 -1.8805  0.2724
10434TIP3   OH252792   4.993   6.388   5.760  0.6440  0.6490  0.0013
10434TIP3    H152793   5.004   6.309   5.707 -1.3411 -0.4198  1.1297
10434TIP3    H252794   5.077   6.399   5.804  0.8582 -0.9960  0.0361
10435TIP3   OH252795   5.563   0.171   2.658 -0.1951 -0.0532 -0.1074
10435TIP3    H152796   5.495   0.230   2.627  0.3787  2.6807  3.5230
10435TIP3    H252797   5.519   0.114   2.721  0.2124 -0.5369 -0.2550
10436TIP3   OH252798   3.852   2.762   3.960  0.4047  0.6465 -0.4619
10436TIP3    H152799   3.776   2.779   4.016  1.5850  2.6545  0.5962
10436TIP3    H252800   3.824   2.789   3.873 -0.8025 -0.6965 -0.5169
10437TIP3   OH252801   5.409   1.903  14.024  0.7665  0.2543 -0.1494
10437TIP3    H152802   5.348   1.961  13.979  0.3472  2.1646  2.7517
10437TIP3    H252803   5.355   1.853  14.085  1.8235  0.5741  1.0729
10438TIP3   OH252804   4.907   1.163   0.116  0.2046  0.4451 -0.1225
10438TIP3    H152805   4.960   1.121   0.183  1.0289  0.6562 -0.6284
10438TIP3    H252806   4.962   1.161   0.037 -0.8606 -0.0635 -0.8649
10439TIP3   OH252807   1.867   4.208   0.261  0.2200  0.6647  0.2297
10439TIP3    H152808   1.923   4.173   0.331  1.8071 -1.3266 -1.9727
10439TIP3    H252809   1.797   4.144   0.253 -0.6887  1.5649  0.8472
10440TIP3   OH252810   6.790   0.445   1.613 -0.3469 -0.2109 -0.1905
10440TIP3    H152811   6.730   0.401   1.552 -0.2143  1.1951 -1.3721
10440TIP3    H252812   6.782   0.538   1.591  2.0971  0.0116 -0.2141
10441TIP3   OH252813   0.736   4.858  13.871  0.1306 -0.0288  0.6496
10441TIP3    H152814   0.769   4.906  13.947 -1.2338  1.8041  0.1193
10441TIP3    H252815   0.756   4.915  13.797  0.0113 -1.0733 -0.1798
10442TIP3   OH252816   6.235   3.049   4.746  0.2545  0.5426 -0.1670
10442TIP3    H152817   6.235   3.144   4.749  0.0605  0.5538 -0.4358
10442TIP3    H252818   6.171   3.023   4.812  0.5347  0.5892  0.1237
10443TIP3   OH252819   0.428   5.558   1.649 -0.5301 -0.1962 -0.0210
10443TIP3    H152820   0.415   5.641   1.695 -1.4386 -0.6194  0.5082
10443TIP3    H252821   0.444   5.495   1.719 -1.8374 -0.8309 -0.2688
10444TIP3   OH252822   1.159   3.271   1.146 -0.6957  0.5437  0.6839
10444TIP3    H152823   1.104   3.320   1.084 -1.1677  1.4008  1.7719
10444TIP3    H252824   1.113   3.188   1.159 -0.9270  0.6279  0.4018
10445TIP3   OH252825   2.450   4.628   3.062 -0.7079 -0.4546  0.6555
10445TIP3    H152826   2.444   4.678   3.143 -0.0140 -0.9579  1.0346
10445TIP3    H252827   2.541   4.596   3.061 -0.2686  0.7964 -1.0730
10446TIP3   OH252828   2.506   1.930   4.614  0.8511 -0.7989 -0.0276
10446TIP3    H152829   2.600   1.910   4.613  1.3462  1.3873  1.0617
10446TIP3    H252830   2.475   1.892   4.697  1.5229  1.5784  1.3718
10447TIP3   OH252831   1.364   5.141   5.618 -0.3976 -0.2079 -0.2950
10447TIP3    H152832   1.344   5.112   5.707 -1.8426 -1.8072 -1.0909
10447TIP3    H252833   1.280   5.170   5.583  0.2514  0.8565 -0.9874
10448TIP3   OH252834   1.328   4.503  13.037  0.4646  0.1824 -0.0671
10448TIP3    H152835   1.310   4.412  13.063 -0.6909  0.4379  0.0627
10448TIP3    H252836   1.269   4.518  12.963  0.7809  0.7760 -0.1976
10449TIP3   OH252837   6.778   6.072  15.522 -0.1905 -0.6502 -0.5332
10449TIP3    H152838   6.745   6.103  15.438  0.6093  0.7295 -0.3590
10449TIP3    H252839   6.862   6.117  15.532 -0.8594  0.1410  1.5865
10450TIP3   OH252840   3.457   3.108   1.560 -0.4201 -0.0966  0.2085
10450TIP3    H152841   3.512   3.127   1.636 -1.2060  1.1231  0.5031
10450TIP3    H252842   3.503   3.147   1.486 -0.3696  0.0073  0.2940
10451TIP3   OH252843   4.482   0.172   3.114 -0.0347  0.4853 -0.2991
10451TIP3    H152844   4.399   0.211   3.084 -0.4429 -1.2197 -1.4310
10451TIP3    H252845   4.541   0.182   3.040  0.7559  1.5979  0.4719
10452TIP3   OH252846   0.001   1.203   2.338  0.4688 -0.1594 -0.3627
10452TIP3    H152847   0.077   1.249   2.302  1.2307 -0.0719  1.3106
10452TIP3    H252848   0.027   1.111   2.339 -0.0080 -0.3070 -1.1388
10453TIP3   OH252849   0.777   3.145   4.220  0.4158  0.2041  0.4397
10453TIP3    H152850   0.821   3.226   4.196 -2.3928  1.9018  0.7279
10453TIP3    H252851   0.786   3.140   4.315  3.8545 -1.8706  0.0820
10454TIP3   OH252852   5.788   0.923  16.614  0.3675 -0.6324 -0.2899
10454TIP3    H152853   5.734   0.974  16.554  0.4373  0.0216  0.1984
10454TIP3    H252854   5.740   0.925  16.697  1.7192  0.9858  0.4860
10455TIP3   OH252855   6.089   0.196  12.372 -0.8278  0.0051 -0.7722
10455TIP3    H152856   6.065   0.284  12.343 -2.0370  0.1128  0.4998
10455TIP3    H252857   6.061   0.192  12.463 -2.8256 -2.4678 -1.4477
10456TIP3   OH252858   4.771   2.968  10.876  0.1974  0.0946 -0.0305
10456TIP3    H152859   4.725   3.025  10.814  0.0712  0.1149  0.0826
10456TIP3    H252860   4.713   2.962  10.952  0.1309 -0.3257 -0.1111
10457TIP3   OH252861   4.119   6.619  13.163  0.1821  0.1924  0.5686
10457TIP3    H152862   4.201   6.600  13.208  1.3939  0.4150 -1.4657
10457TIP3    H252863   4.124   6.713  13.142 -1.0767  0.4505  1.3765
10458TIP3   OH252864   5.348   3.780  16.110  0.0822  0.7591 -0.4428
10458TIP3    H152865   5.346   3.754  16.202 -1.7743  1.5513 -0.2434
10458TIP3    H252866   5.295   3.714  16.065  0.4127  0.7622 -0.8420
10459TIP3   OH252867   3.021   5.835  15.496 -0.0005 -0.1429  0.1968
10459TIP3    H152868   3.058   5.791  15.572 -0.9244 -1.5376 -0.1482
10459TIP3    H252869   3.023   5.769  15.426 -2.2921  0.0291 -0.0643
10460TIP3   OH252870   2.334   5.461  13.390 -0.3866  0.0538 -0.4019
10460TIP3    H152871   2.284   5.380  13.397  0.0422 -0.0542  1.6986
10460TIP3    H252872   2.335   5.480  13.296 -3.3101 -0.5877 -0.6334
10461TIP3   OH252873   6.494   0.634   1.412  0.5608 -0.1650  0.1143
10461TIP3    H152874   6.557   0.701   1.385  0.2730 -0.3090 -0.9327
10461TIP3    H252875   6.440   0.619   1.334  0.0237 -0.9342  0.6292
10462TIP3   OH252876   6.161   2.350   0.668 -0.2480 -0.1913 -0.4000
10462TIP3    H152877   6.157   2.256   0.654 -1.4773 -0.2186  0.0573
10462TIP3    H252878   6.088   2.385   0.617  1.0998  0.6841 -1.8000
10463TIP3   OH252879   0.368   5.086  17.089  0.0824  0.1343 -0.3437
10463TIP3    H152880   0.345   5.172  17.122  0.7121  0.4168 -0.6413
10463TIP3    H252881   0.300   5.028  17.123  0.5645  0.4675  1.2106
10464TIP3   OH252882   0.025   4.914  14.289 -0.0493 -0.6934  0.0985
10464TIP3    H152883   0.080   4.845  14.328 -0.0809 -1.2809 -0.8817
10464TIP3    H252884  -0.004   4.877  14.206  1.1911  1.0821 -1.1737
10465TIP3   OH252885   2.119   6.668   2.162 -0.8962  0.1408  0.2523
10465TIP3    H152886   2.059   6.608   2.117 -2.4684  1.6711  0.2512
10465TIP3    H252887   2.145   6.730   2.094 -0.4908  0.3694  0.6166
10466TIP3   OH252888   3.471   4.254   3.293  0.0996  0.1726 -0.1801
10466TIP3    H152889   3.456   4.221   3.204  0.4486 -0.2327 -0.0889
10466TIP3    H252890   3.458   4.177   3.349 -1.9968  0.8284  0.2887
10467TIP3   OH252891   4.819   0.065   4.292  0.3783 -0.1739  0.0879
10467TIP3    H152892   4.858   0.131   4.348 -0.7940 -0.2013  0.9524
10467TIP3    H252893   4.852   0.085   4.204  1.5666  0.3645  0.6512
10468TIP3   OH252894   2.492   6.635  16.991 -0.3128  0.6750  0.9516
10468TIP3    H152895   2.575   6.678  17.010  0.5719 -1.4911  2.1691
10468TIP3    H252896   2.435   6.660  17.063 -0.4118  1.3490  0.6426
10469TIP3   OH252897   0.004   5.100   3.781 -0.2038 -0.2231  0.8912
10469TIP3    H152898   0.097   5.120   3.768 -0.4173  0.8394  0.9452
10469TIP3    H252899  -0.006   5.011   3.747  0.5010  0.2417 -0.5805
10470TIP3   OH252900   5.845   6.240   0.689 -0.2460 -0.3320  0.1262
10470TIP3    H152901   5.754   6.266   0.701 -0.4331 -0.9774  0.1504
10470TIP3    H252902   5.840   6.159   0.638  0.2933 -0.5542  0.4192
10471TIP3   OH252903   0.285   0.116  13.962 -0.1097 -0.7535  0.1707
10471TIP3    H152904   0.291   0.147  14.052  0.8574 -2.6577  0.7919
10471TIP3    H252905   0.260   0.024  13.970  1.8472 -1.4675 -1.4118
10472TIP3   OH252906   1.587   2.534   3.866  0.0289 -0.3083  0.6997
10472TIP3    H152907   1.578   2.446   3.829  2.6409  0.3485 -1.5917
10472TIP3    H252908   1.676   2.536   3.901  0.2812  1.7062 -0.0352
10473TIP3   OH252909   2.438   3.419  14.908 -0.1390 -0.2101 -0.1924
10473TIP3    H152910   2.359   3.450  14.951  0.2295  0.0839  0.2795
10473TIP3    H252911   2.407   3.371  14.832 -0.7103  1.7914 -1.2484
10474TIP3   OH252912   1.441   2.231   0.807  0.1530 -0.1838 -0.5659
10474TIP3    H152913   1.437   2.314   0.759  0.2711 -0.3600 -0.8832
10474TIP3    H252914   1.533   2.205   0.802 -0.0230 -0.7014 -1.0920
10475TIP3   OH252915   6.676   5.390  11.867 -0.5541  0.3678 -0.1322
10475TIP3    H152916   6.672   5.483  11.890  2.5556  0.8057 -1.1049
10475TIP3    H252917   6.690   5.390  11.772  0.1723 -1.0617 -0.0369
10476TIP3   OH252918   6.241   6.603  16.407 -0.3212 -0.1798 -0.3687
10476TIP3    H152919   6.200   6.519  16.427 -1.0345  0.5333  1.2505
10476TIP3    H252920   6.176   6.649  16.354  0.6709 -1.1962 -2.5537
10477TIP3   OH252921   3.968   1.033   2.332 -0.8182 -0.3179 -0.2543
10477TIP3    H152922   3.978   0.951   2.283 -2.0367 -0.8336  0.3391
10477TIP3    H252923   3.938   1.005   2.419  1.2291  0.5801  0.7880
10478TIP3   OH252924   6.804   3.725  10.888  0.3637 -0.5499  0.9840
10478TIP3    H152925   6.737   3.663  10.916 -1.8003  1.6413  0.8512
10478TIP3    H252926   6.885   3.675  10.890 -0.9173 -2.6593  3.3667
10479TIP3   OH252927   5.281   2.021   1.000  0.0542  0.0092  0.0343
10479TIP3    H152928   5.244   2.079   0.933 -0.6244  0.5147  0.8325
10479TIP3    H252929   5.207   1.997   1.054  0.2644 -1.9303 -0.4956
10480TIP3   OH252930   4.903   6.813  12.399  0.2844 -0.4690  0.1187
10480TIP3    H152931   4.948   6.740  12.441  1.2597  0.6139  1.0008
10480TIP3    H252932   4.843   6.847  12.466  1.8219  1.2425  0.6720
10481TIP3   OH252933   1.859   6.393   1.802  0.2587 -0.0833 -0.2392
10481TIP3    H152934   1.864   6.297   1.799  1.7710  0.0099 -0.9548
10481TIP3    H252935   1.765   6.412   1.793 -0.1847 -1.5222  0.9880
10482TIP3   OH252936   1.330   3.988   5.934 -0.3971  0.0206 -0.1720
10482TIP3    H152937   1.380   3.908   5.922 -2.1073 -1.1123  0.0400
10482TIP3    H252938   1.248   3.973   5.886 -0.3284  2.0310 -0.9619
10483TIP3   OH252939   5.528   0.968  14.411  0.2551  0.1935 -0.3760
10483TIP3    H152940   5.498   1.044  14.461 -2.2292 -1.0057  0.0059
10483TIP3    H252941   5.624   0.975  14.412  0.1861  1.2320  2.8914
10484TIP3   OH252942   3.452   6.224   3.380  0.3906 -0.2440 -0.4086
10484TIP3    H152943   3.534   6.230   3.331  0.2072  1.2549 -0.5698
10484TIP3    H252944   3.389   6.272   3.326  0.1258  1.1926  1.1436
10485TIP3   OH252945   4.721   2.504  16.491 -1.0745  0.2075  0.0175
10485TIP3    H152946   4.673   2.456  16.559  0.8447  1.1663  2.1336
10485TIP3    H252947   4.695   2.595  16.504 -0.6973  0.3933 -0.5509
10486TIP3   OH252948   0.841   2.521  13.903 -0.4395 -0.0444  0.3394
10486TIP3    H152949   0.899   2.567  13.964  0.1943 -0.4743  0.0739
10486TIP3    H252950   0.765   2.578  13.894  0.2710  0.8775  0.1324
10487TIP3   OH252951   6.741   0.109  16.845  0.0168 -0.1006  0.7190
10487TIP3    H152952   6.808   0.170  16.873 -0.3528 -0.4345  2.4175
10487TIP3    H252953   6.758   0.095  16.752  0.7269  1.7743  0.5443
10488TIP3   OH252954   0.339   5.847  15.604 -0.7003  0.3279  0.8947
10488TIP3    H152955   0.338   5.797  15.685  0.0837 -1.9823 -0.4853
10488TIP3    H252956   0.260   5.821  15.558  0.0103 -0.0947 -0.1002
10489TIP3   OH252957   3.676   5.319   4.414 -0.4087 -0.1959  0.7850
10489TIP3    H152958   3.669   5.414   4.418  1.1440 -0.1720  3.1260
10489TIP3    H252959   3.600   5.292   4.361 -0.4855  2.3538 -0.4592
10490TIP3   OH252960   2.166   0.256  12.453  0.3075  0.0170  0.4609
10490TIP3    H152961   2.159   0.347  12.423 -1.1793 -0.1425  0.2819
10490TIP3    H252962   2.081   0.217  12.430  0.3626 -0.9915  1.9566
10491TIP3   OH252963   5.494   2.491   3.374 -0.0272 -0.3074 -0.4665
10491TIP3    H152964   5.516   2.504   3.466 -1.0649 -0.8033 -0.1431
10491TIP3    H252965   5.577   2.468   3.332  0.9250  2.2956 -0.1112
10492TIP3   OH252966   5.529   6.263   4.758 -0.3516  0.2482 -0.2016
10492TIP3    H152967   5.584   6.185   4.769 -2.3062 -1.1164  0.1882
10492TIP3    H252968   5.530   6.279   4.664 -0.9635 -1.0508 -0.4476
10493TIP3   OH252969   4.586   0.453   0.190 -0.6301 -0.4885  0.3040
10493TIP3    H152970   4.566   0.531   0.138  0.0356 -1.6235 -1.7461
10493TIP3    H252971   4.664   0.476   0.240 -0.8440  0.3866  0.2367
10494TIP3   OH252972   3.562   3.333   2.316  0.1968  0.5994  0.7813
10494TIP3    H152973   3.525   3.421   2.327 -0.4341  0.2871  1.1954
10494TIP3    H252974   3.523   3.301   2.234  0.2471  0.6200  0.7495
10495TIP3   OH252975   3.060   5.832   6.584  0.2690 -0.0323  0.6529
10495TIP3    H152976   3.017   5.911   6.617  1.5280 -0.0878  2.4340
10495TIP3    H252977   3.112   5.863   6.510 -1.6194  0.2816 -0.5936
10496TIP3   OH252978   4.384   0.267  17.130  0.2626  0.6430  0.3365
10496TIP3    H152979   4.358   0.331  17.064  0.5702  1.5810  1.1254
10496TIP3    H252980   4.303   0.243  17.174  0.2259  0.8934  0.4038
10497TIP3   OH252981   4.212   6.310   4.238 -0.0996  0.2286  0.0691
10497TIP3    H152982   4.210   6.385   4.298  0.6740  0.0696  0.3047
10497TIP3    H252983   4.228   6.234   4.295  1.7503  0.2054 -0.4458
10498TIP3   OH252984   2.541   6.645  13.098 -0.1815  0.3161 -0.3295
10498TIP3    H152985   2.587   6.642  13.182  0.3242  0.5371 -0.5975
10498TIP3    H252986   2.498   6.560  13.091 -0.3999  0.3739  0.2522
10499TIP3   OH252987   5.769   5.738   5.209  0.3624  1.2277  0.0951
10499TIP3    H152988   5.738   5.660   5.257  1.2362  1.9932  1.9527
10499TIP3    H252989   5.832   5.703   5.146  0.2476  0.3442  0.4506
10500TIP3   OH252990   4.327   5.207   0.100 -0.0072  0.6957  0.6360
10500TIP3    H152991   4.382   5.128   0.100  2.4057  2.3337 -0.0656
10500TIP3    H252992   4.252   5.183   0.154  1.3120 -1.6611  1.5233
10501TIP3   OH252993   1.203   4.641   3.852 -0.1967 -0.2109 -0.2705
10501TIP3    H152994   1.136   4.644   3.920 -0.4680  1.2741 -0.5679
10501TIP3    H252995   1.276   4.595   3.892 -1.0698 -1.0723  0.3511
10502TIP3   OH252996   4.558   1.954   5.827  0.1880  0.5903  0.5796
10502TIP3    H152997   4.502   2.026   5.795 -0.6972  0.1230  1.0568
10502TIP3    H252998   4.536   1.947   5.920  0.2786 -0.2909  0.5332
10503TIP3   OH252999   4.617   4.319   2.415 -0.5169 -0.3877 -0.2931
10503TIP3    H153000   4.704   4.283   2.399  0.1649  0.5340  1.2313
10503TIP3    H253001   4.578   4.261   2.481 -0.1562  0.5162  0.7321
10504TIP3   OH253002   4.217   2.087  16.748  0.2192 -0.7048 -0.3193
10504TIP3    H153003   4.139   2.042  16.781  0.0850 -0.5312 -0.3950
10504TIP3    H253004   4.291   2.044  16.791  0.0382 -0.3806  0.3178
10505TIP3   OH253005   4.634   1.427   3.451  0.3300 -0.4967 -0.8236
10505TIP3    H153006   4.702   1.437   3.517 -0.1093 -0.8871 -0.3055
10505TIP3    H253007   4.557   1.398   3.500 -0.8263  1.9448 -1.0786
10506TIP3   OH253008   4.363   0.826   1.072 -0.3735 -0.1602 -0.4061
10506TIP3    H153009   4.389   0.743   1.031  0.0174 -0.4148  0.3440
10506TIP3    H253010   4.378   0.892   1.004  0.4774 -0.5452 -0.6028
10507TIP3   OH253011   4.424   5.436  15.329  0.1789 -0.1880  0.3290
10507TIP3    H153012   4.339   5.478  15.338 -0.1961 -0.2790 -2.2286
10507TIP3    H253013   4.427   5.371  15.400 -0.3097  2.3122  2.7056
10508TIP3   OH253014   1.866   6.660  11.686 -0.2419  0.3859  0.4655
10508TIP3    H153015   1.795   6.687  11.628 -2.4967 -2.4533  1.7926
10508TIP3    H253016   1.886   6.570  11.659  1.0976  0.2719  1.8023
10509TIP3   OH253017   6.048   6.756  16.285  0.5794  0.4083  0.4802
10509TIP3    H153018   6.106   6.823  16.320  0.2612  0.7442  0.3691
10509TIP3    H253019   5.965   6.802  16.269  1.0740  0.5468 -1.8568
10510TIP3   OH253020   0.706   3.820   5.678 -0.3811  0.0380 -0.1136
10510TIP3    H153021   0.652   3.741   5.671 -0.4770  0.2541 -2.0437
10510TIP3    H253022   0.749   3.826   5.593  1.2784  0.8852  0.7820
10511TIP3   OH253023   5.270   2.690  16.887  0.5527  0.1981  0.1116
10511TIP3    H153024   5.186   2.719  16.921 -0.5156  0.6678 -2.7546
10511TIP3    H253025   5.274   2.597  16.909 -0.8098  0.1339  0.1292
10512TIP3   OH253026   5.010   0.203  10.474  0.4540  0.1490  0.1939
10512TIP3    H153027   4.981   0.245  10.393 -1.1255  0.3188  0.8298
10512TIP3    H253028   5.042   0.275  10.528  0.6593  0.1507  0.0689
10513TIP3   OH253029   4.974   0.978   5.080  0.7157 -0.2525 -0.0048
10513TIP3    H153030   4.972   1.057   5.135 -1.0238  0.6207 -1.2790
10513TIP3    H253031   5.040   0.998   5.013 -0.5051  0.5962 -0.9796
10514TIP3   OH253032   4.655   4.941   4.601  0.0445  0.5124 -0.2132
10514TIP3    H153033   4.567   4.937   4.565  0.3965 -2.6235 -0.9047
10514TIP3    H253034   4.646   4.993   4.681 -2.3696  0.5268 -0.4602
10515TIP3   OH253035   5.348   3.368  14.497  0.0976 -0.6457  0.1428
10515TIP3    H153036   5.303   3.435  14.549  2.1492  0.5781  0.4133
10515TIP3    H253037   5.284   3.342  14.431 -0.3847  2.5600 -0.7852
10516TIP3   OH253038   0.996   6.000  12.731 -0.2656  0.2679  0.3482
10516TIP3    H153039   1.014   6.077  12.677  0.4794  0.4222  0.8106
10516TIP3    H253040   0.906   5.976  12.710  0.2175 -0.0323 -1.4048
10517TIP3   OH253041   4.096   5.055  12.848  0.1944  0.0023 -0.6062
10517TIP3    H153042   4.103   5.148  12.825 -0.2370  0.2779  0.3687
10517TIP3    H253043   4.187   5.024  12.846  0.2325  0.1619 -2.0505
10518TIP3   OH253044   3.868   2.126   2.596 -0.2341  0.0304 -0.3775
10518TIP3    H153045   3.903   2.156   2.680 -0.1454  0.5729 -0.6132
10518TIP3    H253046   3.783   2.170   2.589 -1.1981 -1.6278  0.4119
10519TIP3   OH253047   2.895   2.754  14.428  0.2541 -0.2506 -0.7031
10519TIP3    H153048   2.880   2.826  14.489 -1.7408  0.3219 -1.8337
10519TIP3    H253049   2.873   2.676  14.479 -1.0744  0.1945 -0.5876
10520TIP3   OH253050   6.732   2.810   4.470  0.4401  0.4912  0.3202
10520TIP3    H153051   6.656   2.868   4.475 -0.3927 -0.2751 -2.1778
10520TIP3    H253052   6.695   2.723   4.457  1.7260  0.1189 -1.0644
10521TIP3   OH253053   3.300   6.259   1.790 -0.5059 -0.2151 -0.4660
10521TIP3    H153054   3.316   6.353   1.797 -0.7382 -0.0344 -2.0237
10521TIP3    H253055   3.374   6.218   1.833  0.4403  0.6731 -1.2379
10522TIP3   OH253056   3.613   4.640  16.296 -0.3544  0.2285 -0.2667
10522TIP3    H153057   3.568   4.714  16.336  0.9456  1.2453 -0.6359
10522TIP3    H253058   3.636   4.583  16.370 -0.0352  0.9460  0.1919
10523TIP3   OH253059   3.002   4.682  12.127  0.3656  0.3573  0.2149
10523TIP3    H153060   3.004   4.602  12.075 -1.7635  0.6032 -0.2807
10523TIP3    H253061   2.990   4.652  12.217  0.6982  0.0937  0.1766
10524TIP3   OH253062   2.715   5.266   4.336 -0.5185 -0.5104 -0.5217
10524TIP3    H153063   2.675   5.353   4.347 -0.4613 -0.4239 -0.9633
10524TIP3    H253064   2.650   5.205   4.372 -0.7744 -0.3228 -0.6614
10525TIP3   OH253065   2.982   1.428  13.569 -0.1310 -0.1221  0.1505
10525TIP3    H153066   3.003   1.370  13.642 -1.1519 -0.5308  0.1297
10525TIP3    H253067   3.003   1.377  13.491 -0.5292 -0.2731  0.1409
10526TIP3   OH253068   4.405   2.221   2.406  0.0689 -0.0769 -0.4345
10526TIP3    H153069   4.370   2.308   2.423  1.6748  0.5153 -0.1695
10526TIP3    H253070   4.497   2.234   2.386  0.2592 -1.6792 -0.7228
10527TIP3   OH253071   4.337   3.089  14.441  0.3694 -0.1400 -0.0425
10527TIP3    H153072   4.370   3.007  14.404 -0.7838  0.1166 -1.6387
10527TIP3    H253073   4.341   3.152  14.369  1.4433  1.2949  1.2222
10528TIP3   OH253074   4.898   4.491   1.164 -0.1049 -0.0223  0.0135
10528TIP3    H153075   4.943   4.542   1.097  0.1584 -1.1859 -0.7037
10528TIP3    H253076   4.946   4.511   1.245 -0.0384  0.9032 -0.2464
10529TIP3   OH253077   3.405   6.600   5.862 -0.0091  0.4582 -0.2226
10529TIP3    H153078   3.474   6.596   5.796  0.1245  0.2326 -0.0709
10529TIP3    H253079   3.366   6.512   5.862  0.3782  0.2830  0.4041
10530TIP3   OH253080   2.683   0.650   0.368  0.4786  0.3167  0.3805
10530TIP3    H153081   2.613   0.711   0.389 -0.8235 -1.0182 -0.0154
10530TIP3    H253082   2.696   0.599   0.448  0.0407 -0.3612  0.0267
10531TIP3   OH253083   1.352   2.804   1.914  0.3888  0.3748 -0.1254
10531TIP3    H153084   1.397   2.786   1.996  0.6365 -1.8645 -0.6995
10531TIP3    H253085   1.288   2.733   1.906  2.6971 -1.4828 -3.4912
10532TIP3   OH253086   6.557   3.413   0.084 -0.7029 -0.0047 -0.1525
10532TIP3    H153087   6.600   3.438   0.003 -0.5435 -2.2774 -0.7960
10532TIP3    H253088   6.534   3.496   0.125 -1.5971  1.1783 -2.9344
10533TIP3   OH253089   2.500   0.687   0.127 -0.1662  0.6093 -0.7066
10533TIP3    H153090   2.549   0.614   0.165  1.4543  2.7200  1.3890
10533TIP3    H253091   2.564   0.734   0.074 -0.6988  1.6447 -0.4373
10534TIP3   OH253092   6.481   4.372   0.308  0.1107  0.0589 -0.0388
10534TIP3    H153093   6.405   4.317   0.325 -0.4731  0.3762 -1.5888
10534TIP3    H253094   6.459   4.421   0.229  1.9995 -0.0269 -0.6670
10535TIP3   OH253095   3.138   4.193  12.019 -0.0662 -0.3327 -0.5783
10535TIP3    H153096   3.158   4.125  11.954  0.4540 -0.6016 -0.1405
10535TIP3    H253097   3.150   4.150  12.103  1.5321  0.6353 -0.2846
10536TIP3   OH253098   0.820   3.970   4.415 -0.2303  0.3276 -0.0457
10536TIP3    H153099   0.911   3.962   4.388 -0.7884 -1.4017 -1.5047
10536TIP3    H253100   0.823   4.022   4.495  2.0877 -0.2155  0.2466
10537TIP3   OH253101   1.242   4.239  15.580 -0.0781 -0.6797  0.6417
10537TIP3    H153102   1.322   4.187  15.583  0.3495 -0.2838 -2.7118
10537TIP3    H253103   1.184   4.191  15.521 -0.5638  1.4351 -0.6543
10538TIP3   OH253104   6.612   1.156   1.991 -0.0605 -0.1263  0.4168
10538TIP3    H153105   6.640   1.208   2.066  2.8194 -0.8018 -0.1312
10538TIP3    H253106   6.523   1.129   2.012  0.0027  1.3114  2.6875
10539TIP3   OH253107   3.907   4.990   2.690  0.0801  0.2961  0.1346
10539TIP3    H153108   3.918   4.957   2.779 -0.3562 -1.2961 -0.3676
10539TIP3    H253109   3.814   4.978   2.672  0.4234 -0.7546 -1.0245
10540TIP3   OH253110   1.977   3.220   0.176 -0.5155  1.0051 -0.1336
10540TIP3    H153111   1.961   3.126   0.187 -0.9827  0.8841 -1.7393
10540TIP3    H253112   1.974   3.255   0.265  0.1115 -0.5684  0.5294
10541TIP3   OH253113   5.735   6.762   0.213  0.2054 -0.4313 -0.0002
10541TIP3    H153114   5.790   6.700   0.262  1.1479  1.1825  1.0317
10541TIP3    H253115   5.688   6.810   0.281  0.3813  0.7976 -0.7404
10542TIP3   OH253116   2.537   1.497  11.887 -0.1446  0.0814  0.3239
10542TIP3    H153117   2.608   1.435  11.871  0.8538  0.7415  2.0620
10542TIP3    H253118   2.490   1.461  11.962  0.7416  1.6404  1.6652
10543TIP3   OH253119   3.959   5.869   4.311  0.5004  0.3423 -0.2891
10543TIP3    H153120   4.019   5.890   4.239  0.6957  0.9480  0.0464
10543TIP3    H253121   4.007   5.806   4.365  1.4961  2.0596  0.8728
10544TIP3   OH253122   0.963   6.498  15.384 -0.4122 -0.3570  0.3041
10544TIP3    H153123   0.867   6.500  15.380 -0.3759  2.1413 -0.3220
10544TIP3    H253124   0.990   6.576  15.334  1.9897 -2.0172 -1.0541
10545TIP3   OH253125   3.579   3.704  14.839  0.5207  0.5815 -0.2432
10545TIP3    H153126   3.649   3.687  14.776 -0.2261  0.8254 -1.1458
10545TIP3    H253127   3.562   3.798  14.831 -2.2092 -0.0110 -2.4963
10546TIP3   OH253128   2.035   1.509   5.427  0.0118  0.5367 -0.0883
10546TIP3    H153129   1.989   1.591   5.406  0.1197  0.2087 -1.6948
10546TIP3    H253130   1.968   1.441   5.415 -0.0781  0.3784  1.2489
10547TIP3   OH253131   3.714   5.523  11.261 -0.2381 -0.5742  0.3474
10547TIP3    H153132   3.722   5.456  11.194 -1.5894 -0.4073 -0.0070
10547TIP3    H253133   3.800   5.527  11.303  0.2756 -1.4791 -0.6114
10548TIP3   OH253134   6.109   5.486  12.751 -0.3778 -1.3517 -0.8663
10548TIP3    H153135   6.099   5.582  12.754 -0.6894 -1.4204  1.3269
10548TIP3    H253136   6.196   5.472  12.716 -0.0753 -0.2378 -0.5912
10549TIP3   OH253137   6.656   2.000  15.595 -0.3090 -0.1900 -0.0509
10549TIP3    H153138   6.748   2.020  15.616 -0.3318 -1.6005  1.5404
10549TIP3    H253139   6.632   1.932  15.658 -2.9936  1.4049  0.7232
10550TIP3   OH253140   3.502   2.559   5.100  0.3173  0.4867 -0.2148
10550TIP3    H153141   3.407   2.550   5.114  0.6914 -1.4326  1.2636
10550TIP3    H253142   3.512   2.556   5.005 -1.1642  1.3267 -0.4151
10551TIP3   OH253143   3.597   4.892   2.491 -0.1032  0.4453 -0.2422
10551TIP3    H153144   3.507   4.894   2.459 -0.1013  2.1730 -0.1890
10551TIP3    H253145   3.588   4.890   2.586 -0.0837  0.0594 -0.2476
10552TIP3   OH253146   2.308   4.422   1.530  0.1336  0.0829  0.0900
10552TIP3    H153147   2.350   4.344   1.494  0.6201  0.1148  0.5805
10552TIP3    H253148   2.292   4.478   1.454  0.6603 -0.0790 -0.1441
10553TIP3   OH253149   6.728   2.544  10.802 -0.0044 -0.7453 -0.3837
10553TIP3    H153150   6.740   2.620  10.859  0.9295  0.2112 -1.8359
10553TIP3    H253151   6.654   2.568  10.746 -1.5108 -2.0543  1.0036
10554TIP3   OH253152   1.882   3.520  13.927  0.0682  0.1915  0.3394
10554TIP3    H153153   1.902   3.613  13.910  0.9374  0.4479  2.6298
10554TIP3    H253154   1.824   3.521  14.003 -0.7308 -1.1064 -0.2387
10555TIP3   OH253155   0.295   1.219  13.136  0.0689 -0.0401 -0.0426
10555TIP3    H153156   0.271   1.234  13.044  4.1106 -1.0826 -1.3663
10555TIP3    H253157   0.360   1.286  13.155  1.3911 -1.5972  1.1008
10556TIP3   OH253158   4.155   5.195   1.426  0.1679  0.1741 -0.0157
10556TIP3    H153159   4.184   5.104   1.420  1.4907  0.6038 -0.4739
10556TIP3    H253160   4.236   5.245   1.420 -0.3758  1.3236  1.9219
10557TIP3   OH253161   5.355   4.702  10.942  0.3340  0.6620 -0.3385
10557TIP3    H153162   5.396   4.785  10.917  0.5290  0.6144 -0.1765
10557TIP3    H253163   5.361   4.648  10.864  1.3679  0.3475 -0.0503
10558TIP3   OH253164   0.912   0.158  14.652  0.4278  0.2524  0.4222
10558TIP3    H153165   0.903   0.092  14.721 -0.6058  0.4601  0.5037
10558TIP3    H253166   0.823   0.169  14.619  0.8563  0.4534 -0.6711
10559TIP3   OH253167   4.475   3.711  16.000 -0.2440 -0.2600 -0.1888
10559TIP3    H153168   4.505   3.658  16.075  0.6845 -0.5222 -0.7341
10559TIP3    H253169   4.408   3.658  15.958 -0.4541 -0.3039  0.1982
10560TIP3   OH253170   2.515   6.144  17.165  0.4030 -0.1723 -0.1515
10560TIP3    H153171   2.465   6.086  17.107  0.4379  0.9680 -1.3254
10560TIP3    H253172   2.594   6.094  17.186 -0.7465 -1.5779  0.9058
10561TIP3   OH253173   4.605   6.605   0.330  0.5342 -0.5100  0.4017
10561TIP3    H153174   4.693   6.643   0.319 -1.1313  3.1841 -1.0003
10561TIP3    H253175   4.584   6.620   0.423  0.6512  0.3100  0.3004
10562TIP3   OH253176   1.306   5.955   6.611 -0.0294  0.4453 -0.4684
10562TIP3    H153177   1.400   5.939   6.606  0.4197  0.9820  4.3361
10562TIP3    H253178   1.298   6.040   6.656 -2.8210  0.4571 -0.8874
10563TIP3   OH253179   1.220   4.789   1.059  0.1479  1.2089  0.1930
10563TIP3    H153180   1.266   4.714   1.095 -0.6815  0.9291  0.6908
10563TIP3    H253181   1.285   4.834   1.005  0.7437  0.3254  0.1634
10564TIP3   OH253182   6.053   2.047  16.802  0.6413 -0.1549 -0.1432
10564TIP3    H153183   6.044   2.127  16.855 -1.3794 -2.3430  2.9814
10564TIP3    H253184   5.967   2.036  16.762  1.6143  0.4605 -2.4685
10565TIP3   OH253185   5.610   3.264  12.796 -0.0142  0.1919  0.4809
10565TIP3    H153186   5.530   3.213  12.807 -0.4140  0.9574  1.2044
10565TIP3    H253187   5.638   3.285  12.885  0.2006  1.1318  0.2000
10566TIP3   OH253188   1.505   0.217   3.899  0.0919 -0.0249  0.1125
10566TIP3    H153189   1.531   0.177   3.816  2.1302 -0.3628  0.8752
10566TIP3    H253190   1.541   0.159   3.966  0.0938  1.2472  1.2374
10567TIP3   OH253191   6.644   0.314  11.196  0.5358 -0.7337 -0.2436
10567TIP3    H153192   6.683   0.363  11.268 -0.0175  0.3720 -0.6923
10567TIP3    H253193   6.704   0.328  11.122  1.5210 -2.5003  0.1792
10568TIP3   OH253194   1.937   3.752  13.536  0.1640  0.3023 -0.0744
10568TIP3    H153195   1.919   3.661  13.560  0.3254  0.8179  2.0840
10568TIP3    H253196   1.997   3.783  13.603  0.0332  2.0414 -0.7415
10569TIP3   OH253197   4.934   4.483  11.170 -0.4559  0.4319 -0.0303
10569TIP3    H153198   4.846   4.454  11.146 -1.0902 -0.1131  2.8001
10569TIP3    H253199   4.947   4.563  11.119 -2.1513 -0.0577 -1.2823
10570TIP3   OH253200   4.959   5.196   5.947 -0.5637  0.5871  0.3641
10570TIP3    H153201   4.876   5.190   5.994 -0.1903 -0.5001  0.9007
10570TIP3    H253202   4.974   5.289   5.937 -0.9011  0.8310  1.9645
10571TIP3   OH253203   3.730   2.510   0.353 -1.0487  0.1170 -0.3998
10571TIP3    H153204   3.795   2.460   0.303  0.4449  1.6064  0.0022
10571TIP3    H253205   3.717   2.590   0.301 -2.5328 -0.1557 -0.4530
10572TIP3   OH253206   0.063   5.612  11.461 -0.3281  0.1698 -0.7134
10572TIP3    H153207   0.153   5.624  11.432 -0.7838  0.8032 -1.8834
10572TIP3    H253208   0.017   5.691  11.432 -1.0921  0.2252  0.5802
10573TIP3   OH253209   5.610   1.429   0.555 -0.0439 -0.2066  0.3374
10573TIP3    H153210   5.539   1.480   0.594 -0.9316 -0.4042 -0.9870
10573TIP3    H253211   5.617   1.351   0.611 -0.6484 -0.0280  0.6638
10574TIP3   OH253212   6.350   3.839   3.252 -0.0663  0.0568  1.0577
10574TIP3    H153213   6.443   3.816   3.260  0.3230  1.3625  0.4928
10574TIP3    H253214   6.306   3.785   3.317  0.9608 -1.3502  0.6063
10575TIP3   OH253215   2.029   2.304   5.910 -0.2059 -0.6657 -0.1314
10575TIP3    H153216   2.023   2.399   5.901  0.8172 -0.7533 -2.0123
10575TIP3    H253217   2.122   2.287   5.923 -0.0756 -1.5698 -2.1161
10576TIP3   OH253218   6.252   4.991  14.224  0.1376  0.5819  0.3021
10576TIP3    H153219   6.292   4.906  14.206 -0.6167  0.1502  0.6685
10576TIP3    H253220   6.183   4.973  14.288  0.7181  1.6376  1.2514
10577TIP3   OH253221   5.428   4.814  11.407  0.1448 -0.2838  0.4446
10577TIP3    H153222   5.521   4.792  11.398 -0.2644 -1.5229 -0.9650
10577TIP3    H253223   5.428   4.901  11.447  1.8989 -0.5253  1.0247
10578TIP3   OH253224   2.996   5.183   4.570 -0.1983  0.2708 -0.2478
10578TIP3    H153225   2.973   5.128   4.496 -1.9845  1.9719 -0.9889
10578TIP3    H253226   3.015   5.269   4.532  1.5238  0.4684  0.9932
10579TIP3   OH253227   3.947   4.697  11.805  0.3937  0.7145  0.7468
10579TIP3    H153228   3.963   4.766  11.741 -0.1957 -2.0184 -2.4856
10579TIP3    H253229   3.856   4.712  11.833  0.6308  1.9017  0.9125
10580TIP3   OH253230   0.834   4.807  15.735  0.5322  0.5540  0.3847
10580TIP3    H153231   0.868   4.725  15.698  1.9868  1.0432  0.5775
10580TIP3    H253232   0.839   4.870  15.663 -1.6247  0.2247 -0.0850
10581TIP3   OH253233   3.360   0.859  16.422  0.0194 -0.4062 -0.1661
10581TIP3    H153234   3.313   0.901  16.494 -1.6772 -1.2392 -0.7404
10581TIP3    H253235   3.377   0.929  16.359 -1.6104 -0.3139 -0.5228
10582TIP3   OH253236   4.569   0.058  15.048  0.8062  0.0296  0.2711
10582TIP3    H153237   4.481   0.020  15.041  0.3443  1.0850  0.3359
10582TIP3    H253238   4.589   0.056  15.142  1.0012 -0.5287  0.2212
10583TIP3   OH253239   5.131   3.060   2.358  0.2619 -0.4268  0.0031
10583TIP3    H153240   5.139   3.108   2.441 -0.5235  0.0780 -0.2116
10583TIP3    H253241   5.058   3.102   2.313 -0.0227 -1.4171 -0.4672
10584TIP3   OH253242   5.535   0.614   0.055  0.0970 -0.6389 -0.5251
10584TIP3    H153243   5.447   0.595   0.024 -0.5200  1.1679  0.0752
10584TIP3    H253244   5.583   0.532   0.042 -1.6043 -1.5793 -1.0399
10585TIP3   OH253245   5.886   6.610   6.691 -0.4066  0.1990  0.4847
10585TIP3    H153246   5.806   6.638   6.735 -1.7942  0.3519 -2.0035
10585TIP3    H253247   5.859   6.535   6.638  0.9865  0.4617 -0.6266
10586TIP3   OH253248   1.357   4.849  15.233  0.0153  0.2480  0.7358
10586TIP3    H153249   1.416   4.918  15.262 -1.3787  0.5353  3.0381
10586TIP3    H253250   1.381   4.773  15.286  1.2286 -0.9334 -1.4573
10587TIP3   OH253251   1.995   4.482   5.360  0.3707 -0.1363  0.1819
10587TIP3    H153252   1.985   4.405   5.304  0.4363 -0.9515  1.2628
10587TIP3    H253253   2.046   4.544   5.308  1.0872 -1.1779 -0.3696
10588TIP3   OH253254   2.631   5.502  13.414  0.9454  0.0084  0.3867
10588TIP3    H153255   2.545   5.494  13.372  0.1671  2.5451  1.3729
10588TIP3    H253256   2.690   5.529  13.344 -0.3024  4.0378  0.7763
10589TIP3   OH253257   4.787   6.730   0.967  0.3069 -0.3732  0.3250
10589TIP3    H153258   4.734   6.652   0.948  1.1936 -0.9602  0.2057
10589TIP3    H253259   4.859   6.697   1.022  1.3940  0.1172 -0.7707
10590TIP3   OH253260   0.787   1.210   2.331 -0.6129  0.0328  0.6832
10590TIP3    H153261   0.712   1.265   2.311  0.2487  0.8350 -0.4354
10590TIP3    H253262   0.862   1.269   2.326  0.2655 -1.0980  0.0671
10591TIP3   OH253263   5.849   5.843  14.841 -0.0845  0.1119 -0.0576
10591TIP3    H153264   5.826   5.936  14.838  0.3193  0.1959 -0.7563
10591TIP3    H253265   5.854   5.822  14.934  2.3551  1.4273  0.1551
10592TIP3   OH253266   5.836   4.636   0.483  0.1915  0.2341  0.0376
10592TIP3    H153267   5.789   4.662   0.563  1.6894  2.8454  0.1192
10592TIP3    H253268   5.774   4.580   0.436 -0.9280 -0.8728  2.7317
10593TIP3   OH253269   0.045   0.206   4.083 -0.3223  0.3010  0.1593
10593TIP3    H153270   0.077   0.270   4.019 -2.4281 -0.3649 -1.6020
10593TIP3    H253271   0.048   0.122   4.036 -0.1504 -0.4819  1.5557
10594TIP3   OH253272   5.954   3.648   1.024 -0.4562 -0.5019  0.4999
10594TIP3    H153273   5.877   3.597   1.051  0.6034 -1.9010  0.9179
10594TIP3    H253274   5.961   3.716   1.091 -1.0559 -0.6483  0.7219
10595TIP3   OH253275   0.930   2.374   3.786 -0.2209 -0.4414  0.5866
10595TIP3    H153276   1.009   2.427   3.793  1.2064 -2.5936  1.3090
10595TIP3    H253277   0.953   2.291   3.828 -3.5954 -0.3191  2.8676
10596TIP3   OH253278   2.915   0.483  14.858 -0.4920 -0.2840  0.1671
10596TIP3    H153279   3.006   0.455  14.859 -1.0718 -2.2391  1.6067
10596TIP3    H253280   2.914   0.564  14.908  0.1190 -1.5061  2.2403
10597TIP3   OH253281   4.078   5.520  12.079  0.1698 -0.8211  0.0797
10597TIP3    H153282   4.165   5.560  12.078  0.4049 -1.1070  3.0586
10597TIP3    H253283   4.018   5.594  12.086  0.4101 -0.7660  1.8489
10598TIP3   OH253284   3.439   5.133   0.465  0.4958 -0.2159 -0.0077
10598TIP3    H153285   3.451   5.038   0.468 -0.3779 -0.2840  1.2888
10598TIP3    H253286   3.460   5.156   0.374  0.2805 -1.6934 -0.4462
10599TIP3   OH253287   3.454   6.340  14.524  0.1654  0.7218 -0.4875
10599TIP3    H153288   3.441   6.406  14.592 -1.1113  2.6762 -2.5737
10599TIP3    H253289   3.404   6.372  14.449 -3.5597 -4.4001 -0.4385
10600TIP3   OH253290   3.915   3.376  15.867  0.1784  0.4542  0.1592
10600TIP3    H153291   3.896   3.317  15.940 -0.0628 -0.4204 -0.6061
10600TIP3    H253292   4.009   3.365  15.852  0.0891  0.0717 -0.1401
10601TIP3   OH253293   0.380   4.586  11.203  0.1356 -0.5489  0.0220
10601TIP3    H153294   0.328   4.657  11.242 -0.2237 -2.2737  2.8703
10601TIP3    H253295   0.321   4.545  11.139 -1.3781 -1.2299  1.7993
10602TIP3   OH253296   5.629   4.021   4.633 -0.2524 -0.6580 -0.4776
10602TIP3    H153297   5.709   4.017   4.582 -0.2870  2.7370 -0.9426
10602TIP3    H253298   5.655   4.063   4.715 -1.3079 -0.7206 -0.1037
10603TIP3   OH253299   0.992   6.411  11.970  0.0617 -0.1704  0.3704
10603TIP3    H153300   0.899   6.402  11.953 -0.1140 -1.6453  2.0344
10603TIP3    H253301   1.006   6.368  12.054  2.1062  0.7456  0.5391
10604TIP3   OH253302   5.907   0.561  16.125  0.0469  0.4730  0.4965
10604TIP3    H153303   5.980   0.502  16.107  0.8378  1.2198  1.2492
10604TIP3    H253304   5.892   0.553  16.219 -0.6140  0.5837  0.3996
10605TIP3   OH253305   0.650   4.224   4.782 -0.0645  0.1323  0.5434
10605TIP3    H153306   0.718   4.249   4.845  1.5985  0.8614 -1.5019
10605TIP3    H253307   0.689   4.152   4.732 -1.2868 -0.2956  0.1961
10606TIP3   OH253308   6.391   2.271  11.256  0.2062 -0.0931 -0.1571
10606TIP3    H153309   6.380   2.296  11.164  1.7512 -3.3702 -1.3136
10606TIP3    H253310   6.302   2.262  11.289 -0.3655  1.9624 -1.0437
10607TIP3   OH253311   0.248   2.397   4.766 -0.5896  0.0398 -0.3485
10607TIP3    H153312   0.280   2.438   4.686 -1.7559 -0.2690 -0.9991
10607TIP3    H253313   0.325   2.386   4.821  0.1203  0.8356 -1.1783
10608TIP3   OH253314   3.915   3.676  15.033  0.3142  0.0638  0.1881
10608TIP3    H153315   3.834   3.727  15.039 -0.8971 -1.9208  1.4631
10608TIP3    H253316   3.976   3.721  15.092  0.1619  1.5834 -0.7970
10609TIP3   OH253317   0.139   4.689   1.174 -0.2030  0.1529  0.6576
10609TIP3    H153318   0.231   4.700   1.196  0.5018 -2.0409 -1.0532
10609TIP3    H253319   0.128   4.733   1.090 -1.1749  2.0415  1.7442
10610TIP3   OH253320   5.589   0.446  15.609  0.2555  0.1764  0.1660
10610TIP3    H153321   5.675   0.467  15.645 -0.5837  2.3807  0.9757
10610TIP3    H253322   5.547   0.391  15.676  1.1728 -1.2503 -0.4168
10611TIP3   OH253323   2.688   1.113   5.162 -0.1810  0.1223  0.4975
10611TIP3    H153324   2.616   1.076   5.213  0.1308 -0.2955  0.6354
10611TIP3    H253325   2.662   1.099   5.071  0.4086 -1.3957  0.5374
10612TIP3   OH253326   4.446   5.292   1.219  0.1252  0.0375 -0.3150
10612TIP3    H153327   4.415   5.219   1.164  1.8301  0.1217 -1.4120
10612TIP3    H253328   4.382   5.362   1.202 -0.3203 -0.4988 -0.9018
10613TIP3   OH253329   1.871   4.057   0.677 -0.4520 -0.4080  0.2030
10613TIP3    H153330   1.783   4.020   0.671 -0.2621 -0.8304  0.0066
10613TIP3    H253331   1.916   4.026   0.598 -0.1646 -0.1038  0.2476
10614TIP3   OH253332   2.954   1.308   1.366  0.5076 -0.4571 -0.1076
10614TIP3    H153333   2.871   1.280   1.404  0.5336 -3.1739 -2.0027
10614TIP3    H253334   2.931   1.383   1.311 -0.4109 -0.1775  0.6387
10615TIP3   OH253335   5.151   2.332  11.050 -0.2342  0.0479 -0.9693
10615TIP3    H153336   5.121   2.381  11.127  0.7824  0.5587 -0.8890
10615TIP3    H253337   5.071   2.295  11.012 -0.6693 -0.8471  0.7699
10616TIP3   OH253338   5.090   1.927  16.685  0.1634 -0.0393 -0.4224
10616TIP3    H153339   5.102   1.951  16.777  0.8867 -3.2145  0.3904
10616TIP3    H253340   5.022   1.987  16.653  0.2182  1.4123  2.0508
10617TIP3   OH253341   5.038   6.088  14.018  0.0919  0.3005  0.3216
10617TIP3    H153342   4.983   6.158  13.984  1.0331  0.5560 -0.7161
10617TIP3    H253343   4.996   6.008  13.986 -0.4204  0.4325  0.6560
10618TIP3   OH253344   2.175   4.470  15.259 -0.3250 -0.1336 -0.5739
10618TIP3    H153345   2.263   4.442  15.236  0.8680  2.5538  0.5392
10618TIP3    H253346   2.181   4.493  15.352 -1.6159  2.2477 -1.0587
10619TIP3   OH253347   2.440   5.785  11.149 -0.2708  0.0198 -0.4126
10619TIP3    H153348   2.454   5.764  11.057 -0.9527  1.4462 -0.8554
10619TIP3    H253349   2.516   5.839  11.173 -1.8427  2.6977 -1.1698
10620TIP3   OH253350   6.458   5.702   0.155  0.0552 -0.8134  0.1496
10620TIP3    H153351   6.452   5.676   0.247  0.3762 -0.3647  0.3003
10620TIP3    H253352   6.447   5.797   0.155 -0.3838 -0.8573 -0.3250
10621TIP3   OH253353   2.580   6.748   2.238  0.0367  0.2206 -0.0538
10621TIP3    H153354   2.550   6.710   2.155  0.4179  0.4910 -0.3152
10621TIP3    H253355   2.592   6.841   2.219 -0.8672  0.4706  0.5804
10622TIP3   OH253356   1.513   1.796  13.173 -0.1459 -0.4591 -0.0367
10622TIP3    H153357   1.573   1.871  13.177 -0.3583 -0.2592 -0.5710
10622TIP3    H253358   1.469   1.797  13.258 -0.4149  0.2442 -0.1786
10623TIP3   OH253359   0.183   0.109  12.777  0.4850  0.1364  0.6885
10623TIP3    H153360   0.224   0.088  12.693  3.2079  0.5187  1.8451
10623TIP3    H253361   0.114   0.044  12.787  2.1679 -1.8842 -0.4376
10624TIP3   OH253362   4.348   1.816  13.190 -0.1148 -0.2982  0.1931
10624TIP3    H153363   4.348   1.829  13.285  0.5726  1.0024  0.0323
10624TIP3    H253364   4.439   1.794  13.169  0.3167  1.9247 -0.4538
10625TIP3   OH253365   1.071   1.767  12.472 -0.2869 -0.1314 -0.3486
10625TIP3    H153366   1.004   1.782  12.406 -0.9687 -2.4312 -0.1969
10625TIP3    H253367   1.152   1.759  12.423 -0.2483  1.5401 -0.6100
10626TIP3   OH253368   5.431   1.912  11.970  0.1633  0.5369  0.8845
10626TIP3    H153369   5.500   1.910  11.904  0.8333  2.1544  1.5135
10626TIP3    H253370   5.428   1.822  12.004 -0.8480 -0.5866 -1.9485
10627TIP3   OH253371   3.052   1.874   1.835  0.7871 -0.3794  0.0276
10627TIP3    H153372   3.115   1.897   1.903 -0.6288 -1.1432  1.6365
10627TIP3    H253373   3.035   1.781   1.849 -1.6013  0.0867  0.3664
10628TIP3   OH253374   6.594   6.219   3.734  0.4350 -0.3966 -0.0262
10628TIP3    H153375   6.560   6.292   3.784  0.9231  1.3561 -2.1903
10628TIP3    H253376   6.683   6.244   3.712  1.0122 -2.1761  0.2083
10629TIP3   OH253377   0.918   1.475  11.394  0.8087  0.6776 -0.5299
10629TIP3    H153378   0.898   1.525  11.315 -2.7917  0.2830  0.0354
10629TIP3    H253379   0.852   1.503  11.457  2.5147 -0.3467  1.7840
10630TIP3   OH253380   4.610   3.597  14.567  0.1637  0.1983  0.1524
10630TIP3    H153381   4.568   3.678  14.597 -0.0675  0.1426 -0.0203
10630TIP3    H253382   4.664   3.569  14.641 -0.7784 -0.1957  0.6989
10631TIP3   OH253383   0.836   2.898  13.474  0.4099  0.2196 -0.0967
10631TIP3    H153384   0.927   2.895  13.445 -0.1842 -2.6720 -1.9105
10631TIP3    H253385   0.786   2.916  13.394 -0.7113  0.4006  0.6260
10632TIP3   OH253386   5.747   2.352  15.241  0.0774 -0.3690 -0.3889
10632TIP3    H153387   5.688   2.281  15.218  0.9450 -1.0663 -0.5182
10632TIP3    H253388   5.825   2.336  15.187  0.1379  0.8868 -0.6865
10633TIP3   OH253389   2.898   3.893  16.025 -0.1365 -0.0918 -0.2841
10633TIP3    H153390   2.972   3.943  15.992  1.7588 -1.5637  1.6540
10633TIP3    H253391   2.852   3.953  16.083 -0.8190  0.9989 -1.9059
10634TIP3   OH253392   4.017   3.654   5.994  0.1520  0.2866 -0.2801
10634TIP3    H153393   4.057   3.578   6.036 -0.8625 -0.4755 -0.6726
10634TIP3    H253394   4.011   3.720   6.063 -1.5527 -0.9759  0.7998
10635TIP3   OH253395   0.772   3.181   3.436  0.6427  0.1232  0.6647
10635TIP3    H153396   0.714   3.127   3.490  0.2633  1.1528  1.3093
10635TIP3    H253397   0.822   3.233   3.499  2.5146 -0.9563  0.1346
10636TIP3   OH253398   1.334   5.240  17.278  0.0389 -0.0244 -0.0252
10636TIP3    H153399   1.311   5.161  17.230 -0.4376  1.4362 -2.2812
10636TIP3    H253400   1.264   5.250  17.342 -1.9280  0.5396 -2.1787
10637TIP3   OH253401   4.684   2.297   4.280  0.2291  0.6799 -0.1116
10637TIP3    H153402   4.770   2.336   4.297  0.1803  0.8798 -0.3139
10637TIP3    H253403   4.639   2.361   4.225  0.3861  0.0444 -0.9928
10638TIP3   OH253404   6.140   5.667  15.157  0.0895  0.0385 -0.1739
10638TIP3    H153405   6.115   5.625  15.075  0.7220  0.3157 -0.5090
10638TIP3    H253406   6.182   5.749  15.130 -2.7984  1.8188  0.5098
10639TIP3   OH253407   3.762   0.423  15.852  0.1320 -0.3095 -0.3535
10639TIP3    H153408   3.827   0.370  15.805 -0.5304 -1.1860 -0.2987
10639TIP3    H253409   3.678   0.385  15.827 -0.3514  0.7646 -0.3504
10640TIP3   OH253410   1.590   0.761  17.118 -0.0758 -0.8749  0.0928
10640TIP3    H153411   1.617   0.724  17.034  0.7034 -0.4039  0.1302
10640TIP3    H253412   1.536   0.693  17.158  0.5754 -1.5974 -0.2501
10641TIP3   OH253413   1.190   6.680   2.611 -0.1527  0.5739 -0.6341
10641TIP3    H153414   1.268   6.651   2.564 -0.8205 -0.4178 -1.1463
10641TIP3    H253415   1.122   6.685   2.544 -1.2120 -1.2158  0.2730
10642TIP3   OH253416   5.259   0.547   4.412  0.4770  0.3475  0.3991
10642TIP3    H153417   5.233   0.476   4.353  1.9499  0.5388 -0.5180
10642TIP3    H253418   5.307   0.608   4.356  0.1461  1.5455  1.4014
10643TIP3   OH253419   3.634   4.343  15.374  0.1490 -0.3298  0.1230
10643TIP3    H153420   3.650   4.249  15.369  1.5685 -0.1353  0.6396
10643TIP3    H253421   3.541   4.351  15.396 -0.2394 -1.5790 -1.0275
10644TIP3   OH253422   2.852   1.472  15.150 -0.2019 -0.4544 -0.2143
10644TIP3    H153423   2.947   1.473  15.161 -0.1842  0.6668 -0.3625
10644TIP3    H253424   2.830   1.561  15.122 -1.4142 -0.4347  0.7441
10645TIP3   OH253425   5.432   3.389  12.569 -0.2933 -0.1076  0.5330
10645TIP3    H153426   5.397   3.300  12.557 -0.6774  0.3677 -2.0416
10645TIP3    H253427   5.491   3.380  12.644 -2.1273 -2.0067  1.8230
10646TIP3   OH253428   2.663   3.499   1.242  0.5199  0.0318  0.3654
10646TIP3    H153429   2.691   3.527   1.329 -2.2131  0.2314  1.2214
10646TIP3    H253430   2.665   3.403   1.246 -0.2116  0.0334  0.8702
10647TIP3   OH253431   2.894   4.337   6.252  0.2477 -0.6212 -0.4290
10647TIP3    H153432   2.928   4.420   6.217 -2.9738 -0.3038 -3.0864
10647TIP3    H253433   2.915   4.273   6.184  0.4059 -1.4997  0.4432
10648TIP3   OH253434   3.969   6.442   6.002 -0.1511  0.3280  0.4295
10648TIP3    H153435   4.024   6.397   5.937  1.4348  2.4042  0.2743
10648TIP3    H253436   3.937   6.520   5.955  1.4759  2.1574  2.2499
10649TIP3   OH253437   0.035   5.908  16.266  0.1882 -0.0474 -0.0310
10649TIP3    H153438   0.032   5.813  16.264  0.7370 -0.0423 -1.0081
10649TIP3    H253439   0.087   5.929  16.344 -0.3440 -0.5295  0.4595
10650TIP3   OH253440   6.682   5.629  12.004 -0.7250  0.7045 -0.4292
10650TIP3    H153441   6.684   5.617  12.099 -0.4679 -0.6052 -0.5914
10650TIP3    H253442   6.627   5.707  11.991 -0.0324  1.4177  0.8318
10651TIP3   OH253443   4.360   4.081  16.384 -0.5485  0.1681  0.1018
10651TIP3    H153444   4.426   4.036  16.330 -2.6077 -2.5462 -0.2552
10651TIP3    H253445   4.380   4.054  16.473 -0.5713  0.1627  0.1046
10652TIP3   OH253446   2.459   0.575   0.892 -0.1835 -0.4335 -0.6063
10652TIP3    H153447   2.497   0.640   0.833  1.4264 -0.1159  0.7379
10652TIP3    H253448   2.403   0.625   0.951 -0.2184 -0.4818 -0.5985
10653TIP3   OH253449   3.461   2.595  13.002  0.0693 -0.2848  0.4067
10653TIP3    H153450   3.554   2.579  13.015  0.4230 -0.2843 -1.8364
10653TIP3    H253451   3.446   2.576  12.909 -2.2294 -0.5914  0.7987
10654TIP3   OH253452   4.386   0.705  15.727 -0.0703  0.2516 -0.5206
10654TIP3    H153453   4.464   0.691  15.781  0.2114 -0.4860 -1.1057
10654TIP3    H253454   4.406   0.784  15.676 -1.2042  2.2480  1.9663
10655TIP3   OH253455   2.599   1.657   1.980  0.0877  0.3953 -0.3121
10655TIP3    H153456   2.533   1.644   2.048  0.3978  0.1337 -0.0591
10655TIP3    H253457   2.616   1.569   1.946  0.5374  0.4199 -0.1548
10656TIP3   OH253458   6.507   3.030  14.915  0.3269  0.1352 -0.1375
10656TIP3    H153459   6.428   3.006  14.964  2.8191 -3.8029  2.2507
10656TIP3    H253460   6.503   2.976  14.836 -0.1224  1.1196 -0.7953
10657TIP3   OH253461   6.203   6.553  14.235  0.0963  0.1293  0.0335
10657TIP3    H153462   6.291   6.583  14.212 -0.2738  0.3979 -1.0361
10657TIP3    H253463   6.197   6.569  14.329  0.8578  0.9739 -0.0539
10658TIP3   OH253464   2.075   2.291  16.708  0.3611  0.8452 -0.8496
10658TIP3    H153465   2.033   2.241  16.778  1.4497  0.5942 -0.3662
10658TIP3    H253466   2.034   2.260  16.628  0.2809 -0.0676 -0.4589
10659TIP3   OH253467   1.997   2.341  12.514  0.1749 -0.2679 -0.1886
10659TIP3    H153468   2.078   2.379  12.480 -0.0161  0.8610  0.5731
10659TIP3    H253469   1.977   2.394  12.592 -1.1575 -0.6919 -0.2322
10660TIP3   OH253470   1.687   5.315  14.977 -0.4611 -0.6055  0.0142
10660TIP3    H153471   1.732   5.395  14.949 -0.7532 -1.2389 -2.3002
10660TIP3    H253472   1.642   5.341  15.057 -0.0497  1.3873 -0.3649
10661TIP3   OH253473   1.255   3.166  12.561  0.0839  0.7027 -0.3115
10661TIP3    H153474   1.175   3.136  12.518  1.2780 -0.9588 -1.4512
10661TIP3    H253475   1.225   3.215  12.637 -2.0130 -0.3942 -0.4013
10662TIP3   OH253476   0.825   4.882  14.970 -0.8436 -0.0044 -0.1331
10662TIP3    H153477   0.888   4.863  14.901 -0.4299 -0.7774  0.4559
10662TIP3    H253478   0.805   4.975  14.960  0.5070  0.2751 -0.2252
10663TIP3   OH253479   0.564   0.310  11.752 -0.1763  0.1835 -0.8047
10663TIP3    H153480   0.568   0.215  11.758  0.3508  0.1313 -1.9040
10663TIP3    H253481   0.545   0.328  11.660 -1.0379  1.1256 -0.4543
10664TIP3   OH253482   4.666   1.297   4.124 -0.2114 -0.5818  0.3437
10664TIP3    H153483   4.688   1.324   4.213  3.1289  1.7170 -1.0726
10664TIP3    H253484   4.690   1.204   4.121  2.2924 -0.0125  1.1003
10665TIP3   OH253485   0.941   0.608  15.924  0.2516 -0.3636 -0.8118
10665TIP3    H153486   0.918   0.532  15.872  0.8800 -1.2116  0.1221
10665TIP3    H253487   0.868   0.669  15.913  0.0954 -0.7969 -2.1460
10666TIP3   OH253488   1.906   0.584   4.273  0.3496 -0.2067  0.1321
10666TIP3    H153489   1.817   0.573   4.239  0.2583 -0.6712  0.5106
10666TIP3    H253490   1.961   0.589   4.195  0.2451 -2.1634 -0.0990
10667TIP3   OH253491   4.684   0.919  12.660 -0.6757  0.6936  0.3488
10667TIP3    H153492   4.664   1.004  12.697  1.7384  0.7771  1.5049
10667TIP3    H253493   4.748   0.936  12.591 -2.4767  0.1312 -1.5319
10668TIP3   OH253494   2.431   0.313  13.487  0.5039 -0.1596 -0.0904
10668TIP3    H153495   2.351   0.327  13.538  0.4143  0.4664 -0.3967
10668TIP3    H253496   2.410   0.348  13.400  1.0198 -0.2433 -0.2509
10669TIP3   OH253497   3.200   5.832   5.360 -0.2747  0.1820 -0.2854
10669TIP3    H153498   3.154   5.842   5.276 -0.0893  0.0272 -0.4069
10669TIP3    H253499   3.204   5.921   5.395  0.3845  0.3778 -0.8377
10670TIP3   OH253500   4.014   4.245   3.012 -0.1363  0.2537  0.1627
10670TIP3    H153501   4.089   4.206   2.968 -0.7534 -1.2273  0.3897
10670TIP3    H253502   3.964   4.170   3.046 -1.2180  1.2478  0.8243
10671TIP3   OH253503   2.835   1.428   2.881  0.0915 -0.3207  0.0396
10671TIP3    H153504   2.767   1.395   2.823  0.3492 -0.8807  0.0535
10671TIP3    H253505   2.915   1.424   2.830  0.4525 -1.5431  0.6729
10672TIP3   OH253506   0.724   4.680  16.632  0.2010  0.6722  0.3454
10672TIP3    H153507   0.658   4.662  16.699  0.1637 -0.2987  0.0500
10672TIP3    H253508   0.760   4.766  16.656 -0.4441  0.7347  1.0919
10673TIP3   OH253509   5.753   3.809  16.899 -0.1974 -0.2285 -0.1563
10673TIP3    H153510   5.669   3.827  16.941 -0.1650 -0.3163 -0.0544
10673TIP3    H253511   5.816   3.862  16.949 -0.2197 -0.0173 -0.3520
10674TIP3   OH253512   2.224   5.016  14.395 -0.0716 -0.9048 -0.7802
10674TIP3    H153513   2.248   4.929  14.427  1.0228  0.0894  1.2177
10674TIP3    H253514   2.168   5.053  14.464  0.8461  0.6034 -0.8124
10675TIP3   OH253515   3.686   0.163   5.523 -0.0111  0.2011 -0.5110
10675TIP3    H153516   3.603   0.201   5.552 -0.2002 -0.6886  0.1212
10675TIP3    H253517   3.725   0.125   5.602  1.2138  1.0002 -0.7159
10676TIP3   OH253518   6.512   1.495  15.396  0.2222 -0.0232  0.1089
10676TIP3    H153519   6.507   1.505  15.491  1.6838 -0.9929  0.3200
10676TIP3    H253520   6.495   1.582  15.361  0.5765  0.5381  1.3031
10677TIP3   OH253521   4.067   4.448  13.112 -0.2569 -0.0581  0.2813
10677TIP3    H153522   3.986   4.402  13.087  0.2621 -0.7197 -0.2059
10677TIP3    H253523   4.045   4.541  13.106 -0.9863 -0.2360  0.1700
10678TIP3   OH253524   6.083   6.387   5.043 -0.2067 -0.6239  0.8225
10678TIP3    H153525   6.104   6.313   4.985  1.5854  0.3233  0.2225
10678TIP3    H253526   6.065   6.459   4.983 -4.1918 -1.0957  1.3562
10679TIP3   OH253527   5.631   5.608   2.697 -0.3382 -0.4097  0.1447
10679TIP3    H153528   5.674   5.551   2.761  4.2411  2.6688  0.0432
10679TIP3    H253529   5.634   5.559   2.615  1.9395 -0.8337  0.4371
10680TIP3   OH253530   2.672   2.259   5.627  0.3664  0.4707  0.1619
10680TIP3    H153531   2.586   2.236   5.592  0.5096 -1.5443  1.0161
10680TIP3    H253532   2.704   2.329   5.570 -2.2325  1.9351  0.4159
10681TIP3   OH253533   4.438   0.225   4.850 -0.3695 -0.4149 -0.1846
10681TIP3    H153534   4.441   0.147   4.795 -0.1664  0.0129 -0.7865
10681TIP3    H253535   4.361   0.212   4.905 -0.6907 -0.7597 -0.7028
10682TIP3   OH253536   1.317   0.977   3.866  0.1557  0.1868  0.7938
10682TIP3    H153537   1.408   0.959   3.842  0.0423  0.5931  0.0633
10682TIP3    H253538   1.298   0.914   3.936  1.2064  0.5505  1.4213
10683TIP3   OH253539   3.867   1.842  12.540 -0.5823 -0.6559  0.8829
10683TIP3    H153540   3.895   1.901  12.610 -0.7775  0.2948  0.1701
10683TIP3    H253541   3.849   1.900  12.466 -1.3317 -1.5604  0.3502
10684TIP3   OH253542   1.615   0.802   2.264 -0.0206 -0.0540  0.5680
10684TIP3    H153543   1.536   0.754   2.289 -0.6442  0.1401 -1.0028
10684TIP3    H253544   1.687   0.752   2.303 -0.6854 -2.0806 -0.7542
10685TIP3   OH253545   2.376   3.758  11.283  0.2580 -0.1604  0.3639
10685TIP3    H153546   2.400   3.667  11.265 -0.5294 -0.4685  0.8547
10685TIP3    H253547   2.367   3.798  11.197 -0.1980 -0.7646  0.1260
10686TIP3   OH253548   5.187   0.583  11.088 -0.0116 -0.4168 -0.4334
10686TIP3    H153549   5.156   0.539  11.010 -0.1255 -0.5311 -0.3230
10686TIP3    H253550   5.282   0.567  11.089 -0.2555 -1.9542  0.4136
10687TIP3   OH253551   2.313   6.434   2.841 -0.3153 -0.4908 -0.3072
10687TIP3    H153552   2.258   6.472   2.773 -0.1268 -0.1843 -0.2906
10687TIP3    H253553   2.315   6.499   2.911 -1.1914 -1.1696  0.3526
10688TIP3   OH253554   0.610   1.567  12.823  0.0101  0.6954 -0.0617
10688TIP3    H153555   0.601   1.476  12.853  0.8704  0.5236 -0.3084
10688TIP3    H253556   0.592   1.562  12.729 -0.3922  0.8580  0.0041
10689TIP3   OH253557   1.651   4.060   2.944  0.1352  0.4865  0.3237
10689TIP3    H153558   1.585   4.015   2.996  0.3104 -0.9043 -0.6338
10689TIP3    H253559   1.694   3.990   2.894 -1.2926  1.9915 -3.1293
10690TIP3   OH253560   6.734   2.757   2.173 -0.5926  0.4343 -0.0211
10690TIP3    H153561   6.673   2.826   2.147 -0.0098  0.0401 -2.5715
10690TIP3    H253562   6.790   2.798   2.239 -1.1566  1.9499 -0.4612
10691TIP3   OH253563   0.506   5.569   5.728 -0.6802 -0.3811 -0.6447
10691TIP3    H153564   0.484   5.659   5.702 -1.0081 -0.5480 -0.9550
10691TIP3    H253565   0.421   5.528   5.745 -0.4355 -0.0986  1.3217
10692TIP3   OH253566   0.046   0.934   5.976  0.1616 -0.1932  0.0039
10692TIP3    H153567   0.041   1.019   6.019  1.8326 -0.8460  1.5892
10692TIP3    H253568  -0.042   0.918   5.942  0.1605  2.7151 -1.4555
10693TIP3   OH253569   5.321   3.877  11.680 -1.1066  0.4690  0.4040
10693TIP3    H153570   5.246   3.819  11.667 -0.7328 -0.3868  1.8528
10693TIP3    H253571   5.362   3.845  11.761  0.0977  1.6984  0.3044
10694TIP3   OH253572   1.124   0.888  11.825 -0.0612  0.3207 -0.6684
10694TIP3    H153573   1.123   0.794  11.811  0.0537  0.0745  0.8331
10694TIP3    H253574   1.032   0.910  11.845 -0.1270  0.5638 -1.2291
10695TIP3   OH253575   6.811   4.787  12.036 -0.1273 -0.0518 -0.4835
10695TIP3    H153576   6.883   4.759  11.981  0.8278 -0.1045  0.7723
10695TIP3    H253577   6.844   4.778  12.126 -1.5492  0.2940  0.0909
10696TIP3   OH253578   3.806   4.351   0.143 -0.8720 -0.1228 -0.4919
10696TIP3    H153579   3.788   4.422   0.205  0.5755 -0.2544  0.1178
10696TIP3    H253580   3.745   4.282   0.167  0.5270 -0.6767  1.6915
10697TIP3   OH253581   5.840   2.511  12.898  0.3932  0.4808  0.2736
10697TIP3    H153582   5.779   2.500  12.825  1.8226 -2.6195 -0.5485
10697TIP3    H253583   5.787   2.497  12.976 -0.2502 -0.7808 -0.3794
10698TIP3   OH253584   2.161   5.958  11.755  0.1656 -0.0293 -0.1066
10698TIP3    H153585   2.130   5.872  11.728  1.9404 -0.6331 -0.3354
10698TIP3    H253586   2.094   5.990  11.815  0.6966 -2.7098  2.0325
10699TIP3   OH253587   2.561   5.792  10.899 -0.6658 -0.1448 -0.0952
10699TIP3    H153588   2.642   5.762  10.858 -0.5272 -1.6053  1.2059
10699TIP3    H253589   2.568   5.888  10.898  0.3380 -0.2227 -1.4238
10700TIP3   OH253590   2.437   6.041  12.957  0.2347  0.4488  0.0895
10700TIP3    H153591   2.424   5.962  12.906  0.3100  0.7152 -0.3502
10700TIP3    H253592   2.492   6.097  12.902  0.2656  0.7671  0.4329
10701TIP3   OH253593   3.583   5.946   3.982  0.8875 -0.1111  0.3561
10701TIP3    H153594   3.653   5.997   3.939  1.7289 -0.9240  0.7439
10701TIP3    H253595   3.548   5.891   3.912  0.0520  0.9042 -0.0387
10702TIP3   OH253596   6.814   5.638   4.442  0.2991 -0.2537 -0.0108
10702TIP3    H153597   6.748   5.706   4.454 -0.0667 -0.1417 -2.4773
10702TIP3    H253598   6.898   5.685   4.445  0.0402  0.3316 -1.8563
10703TIP3   OH253599   6.518   4.589   2.064  0.5192  0.5283  0.3961
10703TIP3    H153600   6.431   4.575   2.028  0.0879  2.0851  0.8191
10703TIP3    H253601   6.578   4.564   1.993 -0.2841  1.2600 -0.5457
10704TIP3   OH253602   4.338   5.814   4.164  0.0937 -0.0542  0.2802
10704TIP3    H153603   4.339   5.879   4.235  1.6809 -1.1315  1.2581
10704TIP3    H253604   4.402   5.846   4.101 -1.7422  1.2212 -1.0136
10705TIP3   OH253605   6.750   6.185   5.234  0.3643  0.4119 -0.1765
10705TIP3    H153606   6.727   6.123   5.164  1.2135  0.5451 -0.5865
10705TIP3    H253607   6.805   6.250   5.190  3.2097 -1.0110  1.1577
10706TIP3   OH253608   6.688   3.965  15.794 -0.1109 -0.2216 -0.7972
10706TIP3    H153609   6.752   4.005  15.852  1.4980 -1.6463 -1.5386
10706TIP3    H253610   6.609   4.019  15.803  0.7223  0.6879  1.2412
10707TIP3   OH253611   4.227   2.679   5.246  0.0020  0.2116 -0.1837
10707TIP3    H153612   4.181   2.611   5.294 -1.1258  0.1588 -1.3345
10707TIP3    H253613   4.160   2.721   5.192  1.1093  0.7523 -1.1654
10708TIP3   OH253614   0.185   5.393  13.691  0.0336  0.1747  0.1436
10708TIP3    H153615   0.095   5.381  13.721  0.0818 -1.3286 -0.3057
10708TIP3    H253616   0.238   5.336  13.747  0.5388  0.0012 -0.4939
10709TIP3   OH253617   4.011   5.311  11.251 -0.5015 -0.3575 -0.0094
10709TIP3    H153618   3.957   5.328  11.328  0.7365 -0.9990  1.0236
10709TIP3    H253619   3.953   5.262  11.192 -1.6296  0.6224  0.2664
10710TIP3   OH253620   5.818   4.054   2.570  0.5462  0.2711 -0.2343
10710TIP3    H153621   5.902   4.080   2.535 -0.9766  3.1114 -1.9194
10710TIP3    H253622   5.804   4.112   2.645 -0.4085  0.6027 -0.6588
10711TIP3   OH253623   0.306   6.582  15.997  0.0327 -0.0275  0.2345
10711TIP3    H153624   0.361   6.505  16.007  0.6262  0.4770  0.9595
10711TIP3    H253625   0.221   6.556  16.033  0.0962 -0.4849  0.0537
10712TIP3   OH253626   6.456   1.866   3.959  0.2932 -0.3830 -0.0644
10712TIP3    H153627   6.373   1.906   3.931  1.6508  1.8149 -1.1821
10712TIP3    H253628   6.473   1.903   4.045 -0.4507 -1.7461  0.6775
10713TIP3   OH253629   3.195   2.237  13.858  0.5281 -0.3789 -0.4147
10713TIP3    H153630   3.194   2.199  13.770 -0.5089 -2.1626  0.3512
10713TIP3    H253631   3.129   2.307  13.854 -0.0281 -0.9155 -0.8721
10714TIP3   OH253632   2.345   6.537  12.168 -0.3576 -0.0044  0.3079
10714TIP3    H153633   2.305   6.477  12.231 -0.8569  0.2197  0.2040
10714TIP3    H253634   2.422   6.490  12.137 -0.3613 -0.3073  0.7438
10715TIP3   OH253635   1.538   1.527  17.281  0.0773 -0.0543 -0.6779
10715TIP3    H153636   1.564   1.587  17.352 -2.3384  1.1956 -0.8175
10715TIP3    H253637   1.585   1.446  17.301  2.1972  1.3698  0.3918
10716TIP3   OH253638   2.530   4.555  13.573 -0.6132  0.1361  0.3143
10716TIP3    H153639   2.479   4.617  13.521  0.5088  0.5820 -0.2603
10716TIP3    H253640   2.475   4.538  13.650 -2.1514 -0.3156 -0.8746
10717TIP3   OH253641   6.291   1.549   6.607  0.4999  0.2130  0.0753
10717TIP3    H153642   6.348   1.517   6.537  0.6874  0.0945  0.2779
10717TIP3    H253643   6.208   1.505   6.592  0.3923  0.5623 -0.3582
10718TIP3   OH253644   1.418   0.128   0.788  0.2412 -0.1203  0.4239
10718TIP3    H153645   1.382   0.048   0.824 -0.2698  0.2254  0.6865
10718TIP3    H253646   1.465   0.169   0.861  0.7421 -0.3226  0.2148
10719TIP3   OH253647   4.120   4.772  12.184  0.6377  0.0792 -0.2546
10719TIP3    H153648   4.164   4.717  12.119 -0.8862 -0.2584 -1.0048
10719TIP3    H253649   4.087   4.847  12.134 -1.3875 -0.6540 -0.0566
10720TIP3   OH253650   2.611   2.224   0.257 -0.1131  0.4830 -0.5896
10720TIP3    H153651   2.606   2.163   0.331 -0.1127  1.7029  0.4499
10720TIP3    H253652   2.609   2.311   0.298  0.3596  1.1803 -2.0014
10721TIP3   OH253653   5.536   3.199   6.174 -0.3630 -0.1435 -0.2754
10721TIP3    H153654   5.596   3.255   6.222  0.4656 -0.7458 -0.5887
10721TIP3    H253655   5.528   3.120   6.229 -0.9257 -0.0381 -0.1999
10722TIP3   OH253656   2.456   2.240  11.392  0.2000  0.5797  0.6686
10722TIP3    H153657   2.391   2.177  11.421 -0.7287  0.5565 -1.4097
10722TIP3    H253658   2.540   2.199  11.412 -0.3752 -1.5011 -0.9792
10723TIP3   OH253659   0.029   0.653   2.414  0.4438 -0.0471  0.2886
10723TIP3    H153660   0.121   0.675   2.399  0.5788 -1.2076 -0.6050
10723TIP3    H253661   0.028   0.616   2.503  0.8697 -0.2266  0.2203
10724TIP3   OH253662   0.465   5.459  16.396 -0.1593 -0.1914 -0.6318
10724TIP3    H153663   0.558   5.469  16.373  0.1605  1.5644  1.2526
10724TIP3    H253664   0.452   5.520  16.469 -2.7387 -0.6282 -0.6849
10725TIP3   OH253665   2.065   5.770   3.025 -0.6353 -0.4261  0.1781
10725TIP3    H153666   2.157   5.770   2.997  0.7909  1.3982  4.3724
10725TIP3    H253667   2.020   5.824   2.960  1.8128  0.8369 -0.5434
10726TIP3   OH253668   0.508   1.489   3.159 -0.0965  0.1172 -0.1405
10726TIP3    H153669   0.550   1.510   3.075 -0.8263  1.4846 -0.1837
10726TIP3    H253670   0.416   1.510   3.144 -0.0091  1.6851  1.4279
10727TIP3   OH253671   5.967   2.910   5.315  0.7681 -0.5260 -0.0386
10727TIP3    H153672   5.936   2.871   5.397 -1.6410 -0.1903 -0.7547
10727TIP3    H253673   5.986   2.835   5.259  0.0293 -0.7353 -0.0182
10728TIP3   OH253674   3.411   1.319   0.035  0.2096 -0.0863  0.4674
10728TIP3    H153675   3.490   1.284   0.076 -0.4532 -0.1548  1.7010
10728TIP3    H253676   3.347   1.325   0.106  0.1297  3.1227  0.2315
10729TIP3   OH253677   6.013   4.350   6.801 -0.1270  0.1064 -0.0171
10729TIP3    H153678   6.006   4.256   6.784  0.9923  0.0718 -0.3701
10729TIP3    H253679   5.926   4.377   6.829 -0.0722 -1.3291  1.5929
10730TIP3   OH253680   1.144   5.842   5.098 -0.8237  0.1682  0.3247
10730TIP3    H153681   1.172   5.754   5.122  0.6837  0.4404 -0.4073
10730TIP3    H253682   1.069   5.828   5.040  0.4757 -0.7011 -1.1898
10731TIP3   OH253683   2.416   0.756  13.117 -0.0797  0.6726 -0.3798
10731TIP3    H153684   2.436   0.783  13.207 -0.3166  0.0561 -0.1394
10731TIP3    H253685   2.453   0.826  13.063 -0.6186  1.4443  0.2245
10732TIP3   OH253686   0.302   4.898   0.027  0.0770  0.0333  0.1105
10732TIP3    H153687   0.209   4.909   0.006  0.5847  2.6027 -1.0577
10732TIP3    H253688   0.316   4.955   0.103  0.7138 -0.2687  0.2232
10733TIP3   OH253689   0.981   0.884  12.600  0.0910  0.0912  0.1226
10733TIP3    H153690   0.964   0.806  12.547  0.1349 -0.2646  0.6305
10733TIP3    H253691   1.074   0.877  12.623  0.1955  0.5023 -0.1723
10734TIP3   OH253692   4.557   4.880   5.544 -0.1693  0.0157  0.0019
10734TIP3    H153693   4.576   4.973   5.542 -1.4054  0.2539 -1.2435
10734TIP3    H253694   4.639   4.839   5.572  0.8352  1.3443 -0.9679
10735TIP3   OH253695   5.162   3.067   0.409  0.0696 -0.3922  0.2044
10735TIP3    H153696   5.075   3.103   0.391  0.2648 -0.9799 -2.1061
10735TIP3    H253697   5.145   2.981   0.446 -0.3448  0.3300  1.7228
10736TIP3   OH253698   5.177   2.863  15.321 -0.3641  0.1882 -0.2072
10736TIP3    H153699   5.138   2.884  15.237  1.0668  3.9284 -0.0222
10736TIP3    H253700   5.155   2.936  15.378  1.5995 -0.5961  1.6663
10737TIP3   OH253701   5.000   1.225   2.352  0.1528  1.0952  0.2525
10737TIP3    H153702   4.983   1.320   2.352 -0.8259  0.9242  0.2045
10737TIP3    H253703   4.975   1.197   2.264  0.5321  0.7996  0.2371
10738TIP3   OH253704   2.967   4.038  13.486  0.0318  0.0050  0.4178
10738TIP3    H153705   2.964   3.953  13.441 -1.2797  0.1718  0.1620
10738TIP3    H253706   3.026   4.023  13.560 -1.2634 -1.5510  1.1865
10739TIP3   OH253707   0.987   5.944  10.505 -0.1822 -0.7761 -0.1267
10739TIP3    H153708   1.057   5.879  10.517  0.6354  0.2147  0.5050
10739TIP3    H253709   0.986   5.994  10.586 -0.0902  0.6944 -1.0028
10740TIP3   OH253710   2.396   6.066  14.360 -0.1136 -0.2623 -0.1912
10740TIP3    H153711   2.397   5.974  14.333  0.2500 -0.4969  0.6204
10740TIP3    H253712   2.310   6.098  14.334  0.0105 -0.6495 -1.0860
10741TIP3   OH253713   0.664   2.311  15.362 -0.5028 -0.0297 -0.2369
10741TIP3    H153714   0.648   2.319  15.268  1.4165 -6.5941 -1.4095
10741TIP3    H253715   0.739   2.368  15.379  1.1299 -1.0890 -3.4045
10742TIP3   OH253716   1.648   0.447  13.570  0.0371 -0.2937  0.0054
10742TIP3    H153717   1.645   0.383  13.641  0.6607 -0.2276  0.0951
10742TIP3    H253718   1.717   0.415  13.511  0.7636  0.5916  0.3537
10743TIP3   OH253719   3.956   0.038  12.710 -0.1778  0.3175 -0.4076
10743TIP3    H153720   4.019   0.005  12.774 -0.4396 -1.7963 -1.2231
10743TIP3    H253721   3.871   0.011  12.744 -0.5333  1.7118 -0.1703
10744TIP3   OH253722   1.079   0.283  11.195 -0.4731  0.1140 -1.1386
10744TIP3    H153723   1.068   0.375  11.172  4.3865  1.3258  0.7715
10744TIP3    H253724   1.123   0.245  11.119  0.8785  0.2958 -0.4651
10745TIP3   OH253725   1.045   4.532  13.264  0.2738 -0.6273  0.3010
10745TIP3    H153726   0.969   4.584  13.290  0.8365  1.3115 -1.7346
10745TIP3    H253727   1.012   4.443  13.256 -1.4107 -0.0797  0.9814
10746TIP3   OH253728   5.200   2.817  11.739  0.2534 -0.1938 -0.2219
10746TIP3    H153729   5.257   2.893  11.728  0.9899 -0.7054  0.0206
10746TIP3    H253730   5.167   2.798  11.651 -2.0907  2.0594  0.1232
10747TIP3   OH253731   0.094   3.266   0.443 -0.3293  0.0715  0.7071
10747TIP3    H153732   0.135   3.233   0.523 -0.7698 -0.6325  0.6509
10747TIP3    H253733   0.134   3.214   0.373 -2.0278 -1.3172  0.7468
10748TIP3   OH253734   1.574   0.583  13.257 -0.8710  0.1945  1.1858
10748TIP3    H153735   1.656   0.624  13.285  0.2375  0.7256 -2.6277
10748TIP3    H253736   1.601   0.507  13.206 -2.6792  0.8988 -0.9005
10749TIP3   OH253737   4.860   6.518  12.176 -0.3496  0.7883  0.4221
10749TIP3    H153738   4.806   6.595  12.191 -0.7087  0.7276 -0.5448
10749TIP3    H253739   4.852   6.467  12.256 -0.6187  1.4513  0.8161
10750TIP3   OH253740   0.656   0.768  12.251  0.4386 -0.6550  0.1785
10750TIP3    H153741   0.693   0.797  12.168 -0.1420  1.9954  0.7871
10750TIP3    H253742   0.647   0.849  12.303 -0.8987 -1.9991  2.1229
10751TIP3   OH253743   2.699   3.441  14.136 -0.0179  0.7687 -1.0326
10751TIP3    H153744   2.692   3.425  14.042 -1.3867 -0.9225 -0.6629
10751TIP3    H253745   2.791   3.424  14.157 -0.1363 -0.8150 -1.7258
10752TIP3   OH253746   4.374   2.847   5.391  0.1338 -0.4782 -0.2099
10752TIP3    H153747   4.449   2.857   5.333  1.5309 -1.1976  1.4598
10752TIP3    H253748   4.318   2.783   5.347  1.2277 -1.0920 -0.7227
10753TIP3   OH253749   6.307   4.827   2.630 -0.2883  0.0286  0.0753
10753TIP3    H153750   6.391   4.819   2.676 -0.7409  0.1627  0.9466
10753TIP3    H253751   6.247   4.772   2.681 -0.5154 -0.7825 -1.0676
10754TIP3   OH253752   2.107   2.474  15.593 -0.6579  0.3471  0.3705
10754TIP3    H153753   2.192   2.460  15.549  0.1524  0.7192  1.7951
10754TIP3    H253754   2.045   2.422  15.541  0.0503  1.7430 -1.9331
10755TIP3   OH253755   3.726   6.593   1.956  0.2258 -0.1898  0.0704
10755TIP3    H153756   3.769   6.602   2.041 -1.9695  1.6876  1.0576
10755TIP3    H253757   3.720   6.683   1.924 -0.4575 -0.7218 -1.2954
10756TIP3   OH253758   0.632   2.622   3.215  0.4064 -0.1227 -0.3884
10756TIP3    H153759   0.651   2.706   3.173  0.6931  0.1199  0.2149
10756TIP3    H253760   0.557   2.640   3.272  0.8337 -0.1305  0.1802
10757TIP3   OH253761   5.585   0.499   1.076  0.2186  0.0197  0.4900
10757TIP3    H153762   5.618   0.409   1.078 -0.0052 -0.1312 -1.6643
10757TIP3    H253763   5.664   0.553   1.074  0.3529 -0.1977 -0.1889
10758TIP3   OH253764   1.664   1.880   5.231  0.0420 -0.2688  0.2561
10758TIP3    H153765   1.646   1.886   5.138  0.5853 -1.9304  0.0140
10758TIP3    H253766   1.661   1.970   5.263  0.7001  0.4032 -1.5248
10759TIP3   OH253767   2.403   5.857   4.366 -0.2796  0.4074  0.0183
10759TIP3    H153768   2.498   5.858   4.353  0.1159  3.1019  2.4386
10759TIP3    H253769   2.372   5.937   4.324 -1.4834 -0.4170 -0.6912
10760TIP3   OH253770   2.580   2.633  10.678  0.1249 -0.4200  0.4867
10760TIP3    H153771   2.539   2.703  10.628  0.6752  0.1611  0.8501
10760TIP3    H253772   2.519   2.560  10.672 -0.0502 -0.1850 -0.6100
10761TIP3   OH253773   4.344   5.808   3.261  0.1462  0.0356  0.3866
10761TIP3    H153774   4.383   5.888   3.227  0.0511 -2.2618 -5.6023
10761TIP3    H253775   4.419   5.755   3.289  0.4783  0.5084  0.3956
10762TIP3   OH253776   3.439   1.777  13.332 -0.3973 -0.5564  0.4686
10762TIP3    H153777   3.498   1.782  13.257 -1.9010  1.0172 -0.6600
10762TIP3    H253778   3.406   1.687  13.331 -0.0018 -0.6911 -0.4477
10763TIP3   OH253779   6.717   1.524  12.274 -0.0021  0.8483 -0.4249
10763TIP3    H153780   6.776   1.508  12.201 -0.5848  1.0353 -0.9399
10763TIP3    H253781   6.770   1.572  12.338  0.5241  0.6239 -0.6970
10764TIP3   OH253782   2.114   0.383   4.355  1.0085  0.4975  0.3126
10764TIP3    H153783   2.167   0.438   4.298  1.3237 -0.2022 -0.0705
10764TIP3    H253784   2.040   0.439   4.380  1.2286  1.0336 -0.2230
10765TIP3   OH253785   4.433   1.564  12.119 -0.1569 -0.2001  0.0062
10765TIP3    H153786   4.372   1.630  12.153  0.4317  0.9192 -1.0366
10765TIP3    H253787   4.506   1.615  12.085  0.9078 -1.4819  0.3322
10766TIP3   OH253788   5.010   6.194  11.483 -0.4032 -0.0338 -0.3817
10766TIP3    H153789   5.102   6.186  11.457 -0.3076  0.3029 -0.1633
10766TIP3    H253790   5.013   6.239  11.568 -0.8285  1.3702 -1.0793
10767TIP3   OH253791   4.043   1.444   2.637  0.7624  0.4026  0.0804
10767TIP3    H153792   3.997   1.484   2.711 -1.3665  0.4651 -1.2531
10767TIP3    H253793   4.122   1.496   2.627  0.5731  1.0221  1.6852
10768TIP3   OH253794   6.743   6.448   4.799 -0.3386 -0.3528  0.4296
10768TIP3    H153795   6.827   6.442   4.754 -0.3747 -1.2742  0.4708
10768TIP3    H253796   6.686   6.494   4.737  1.1251  3.5637  1.8040
10769TIP3   OH253797   4.986   5.875   2.458  0.1484 -0.0633  0.3113
10769TIP3    H153798   4.949   5.798   2.415  1.1091 -0.2113 -0.2755
10769TIP3    H253799   4.969   5.947   2.396  1.3434 -0.2387 -0.2423
10770TIP3   OH253800   0.629   2.032  14.645  0.4839  0.5877 -0.3067
10770TIP3    H153801   0.575   2.110  14.633 -0.9568 -0.1950  0.9434
10770TIP3    H253802   0.684   2.029  14.567 -0.7675  1.8151 -1.2609
10771TIP3   OH253803   3.217   1.617  11.540 -0.0653 -0.0428 -0.2702
10771TIP3    H153804   3.296   1.624  11.594 -0.4503 -1.3107  0.4862
10771TIP3    H253805   3.148   1.657  11.593 -0.7028 -2.3988  0.7747
10772TIP3   OH253806   6.474   3.418  16.671  0.2149  0.5915 -0.2156
10772TIP3    H153807   6.528   3.341  16.653  0.2285  0.5961 -0.1956
10772TIP3    H253808   6.457   3.456  16.584  2.1584  1.8959 -0.0559
10773TIP3   OH253809   3.396   4.488   3.700  0.0379  0.4365 -0.3888
10773TIP3    H153810   3.327   4.547   3.729 -0.7334  0.0298 -1.3680
10773TIP3    H253811   3.354   4.402   3.697  0.9783 -0.0654  0.4095
10774TIP3   OH253812   2.475   0.571  16.355  0.1537  0.3421 -0.5755
10774TIP3    H153813   2.514   0.634  16.294  1.4322  0.1879  0.0694
10774TIP3    H253814   2.439   0.502  16.298  1.0030  0.3909 -1.1759
10775TIP3   OH253815   2.547   3.879   0.857  0.0839  1.1559  0.3374
10775TIP3    H153816   2.589   3.854   0.775  0.2993  2.3894  0.0732
10775TIP3    H253817   2.553   3.800   0.911  1.4632  0.8713 -0.2024
10776TIP3   OH253818   1.190   2.124   4.497 -0.7808 -0.6080 -0.7185
10776TIP3    H153819   1.100   2.150   4.511 -0.9595 -1.2455 -0.6562
10776TIP3    H253820   1.230   2.198   4.451 -1.5641 -0.6889 -1.5319
10777TIP3   OH253821   5.260   4.264   6.182 -0.0311  0.1083 -0.3303
10777TIP3    H153822   5.321   4.330   6.150  0.6263 -0.9289 -1.2790
10777TIP3    H253823   5.262   4.273   6.277 -0.5953  2.0049 -0.4995
10778TIP3   OH253824   3.826   5.001  17.227 -0.2694 -0.5376  0.5800
10778TIP3    H153825   3.733   4.980  17.239 -0.6554  1.2501  0.9879
10778TIP3    H253826   3.867   4.918  17.205 -2.2623 -1.0744 -1.3128
10779TIP3   OH253827   3.563   3.516  13.323  0.6091  0.6467 -1.1031
10779TIP3    H153828   3.484   3.569  13.314  1.6869  1.9741 -3.1827
10779TIP3    H253829   3.587   3.525  13.416  0.2930  3.1783 -1.2271
10780TIP3   OH253830   5.846   0.457  11.984  0.3528  0.3318 -0.1585
10780TIP3    H153831   5.781   0.527  11.987  0.4955  0.4707 -0.2463
10780TIP3    H253832   5.830   0.412  11.901 -0.6193 -0.6013  0.5231
10781TIP3   OH253833   1.850   5.828  12.138 -0.0286  0.1394  0.3126
10781TIP3    H153834   1.756   5.848  12.138  0.0193  0.4160 -0.7313
10781TIP3    H253835   1.858   5.754  12.077  0.2574 -0.7965  1.4601
10782TIP3   OH253836   2.973   0.947   2.782  0.5731  0.0814 -0.0486
10782TIP3    H153837   2.955   1.024   2.728 -0.5944  0.4801  0.8983
10782TIP3    H253838   2.989   0.982   2.870 -1.2342 -0.8364  0.6674
10783TIP3   OH253839   2.780   1.644  11.398  0.8700  0.2974 -0.3640
10783TIP3    H153840   2.709   1.704  11.374  0.5978  0.6175  1.1270
10783TIP3    H253841   2.849   1.660  11.334  1.4401  3.4086  0.9380
10784TIP3   OH253842   3.063   2.474  15.341  0.2175 -0.0949 -0.1536
10784TIP3    H153843   3.153   2.499  15.320  0.7572 -0.9293  1.0738
10784TIP3    H253844   3.042   2.525  15.419 -0.2959 -0.0773 -0.3010
10785TIP3   OH253845   1.145   1.411   1.420  0.1645  0.1345 -0.5457
10785TIP3    H153846   1.080   1.397   1.352  0.7077 -2.3227 -0.5968
10785TIP3    H253847   1.095   1.434   1.498 -0.8619 -2.7568 -0.3164
10786TIP3   OH253848   0.745   1.276   4.594 -0.3662  0.3562  0.2497
10786TIP3    H153849   0.828   1.261   4.639 -1.3989  2.0431  2.7710
10786TIP3    H253850   0.733   1.371   4.595 -2.7769  0.0853  0.7574
10787TIP3   OH253851   6.212   3.296   0.227 -0.5033  0.5661 -0.0273
10787TIP3    H153852   6.228   3.390   0.220 -0.7598  0.6301  0.2185
10787TIP3    H253853   6.289   3.262   0.272 -0.6138  0.7280  0.2896
10788TIP3   OH253854   3.490   2.959  16.014 -0.0392  0.0104 -0.3022
10788TIP3    H153855   3.431   2.884  16.013  2.3280 -1.9442  0.4695
10788TIP3    H253856   3.435   3.034  15.989 -2.1332 -2.1866 -2.5210
10789TIP3   OH253857   2.807   2.312  13.658 -0.1073 -0.2829 -0.1224
10789TIP3    H153858   2.844   2.225  13.666 -0.7175 -0.4019  1.5920
10789TIP3    H253859   2.752   2.322  13.736  0.1631  1.7267 -0.1656
10790TIP3   OH253860   4.155   6.083  15.632  0.2775  0.4763  0.4740
10790TIP3    H153861   4.227   6.020  15.630 -1.7345 -1.9469 -1.9572
10790TIP3    H253862   4.188   6.160  15.586  1.4071 -0.5082 -0.3834
10791TIP3   OH253863   3.830   6.594  13.132  0.3182  0.6122 -1.0695
10791TIP3    H153864   3.925   6.585  13.128  0.4248  0.6660  0.6881
10791TIP3    H253865   3.798   6.545  13.057  1.6456 -1.1658 -0.5221
10792TIP3   OH253866   4.521   0.843   5.242 -0.1162  0.0579 -0.3590
10792TIP3    H153867   4.567   0.771   5.197  0.9637  1.2654 -1.2179
10792TIP3    H253868   4.519   0.914   5.178 -0.0110  1.2488  0.9439
10793TIP3   OH253869   2.982   1.032   1.327 -0.2579  0.1817 -0.0713
10793TIP3    H153870   2.900   0.993   1.296 -0.2575  0.2596 -0.1750
10793TIP3    H253871   2.959   1.124   1.343 -0.8910 -0.3980  2.5865
10794TIP3   OH253872   0.987   6.381  13.189  0.2635 -0.4222 -0.2417
10794TIP3    H153873   0.963   6.296  13.225  0.6301  0.1276  1.3314
10794TIP3    H253874   1.048   6.361  13.118 -0.5018 -1.5237 -0.5896
10795TIP3   OH253875   5.301   2.576  16.060 -0.1612 -0.6944 -1.3299
10795TIP3    H153876   5.283   2.500  16.005  0.0585 -2.0831  0.4760
10795TIP3    H253877   5.259   2.649  16.014  0.4788 -1.7162 -3.5990
10796TIP3   OH253878   3.262   4.988  16.722 -0.2549 -0.0462  0.0530
10796TIP3    H153879   3.202   4.923  16.684 -1.0115  0.4523  0.3873
10796TIP3    H253880   3.207   5.038  16.783  1.4501 -2.5404  3.8845
10797TIP3   OH253881   2.020   3.571  16.429 -0.3856 -0.2455 -0.0854
10797TIP3    H153882   2.081   3.644  16.436  1.2667 -1.3778 -1.9609
10797TIP3    H253883   1.941   3.608  16.392 -0.0112  0.8099  0.1705
10798TIP3   OH253884   6.232   0.383   5.218 -0.6708 -0.4934 -0.5290
10798TIP3    H153885   6.235   0.458   5.278 -1.6170 -0.3692 -0.6314
10798TIP3    H253886   6.161   0.329   5.252 -0.5357 -0.9323 -0.9463
10799TIP3   OH253887   4.926   2.456  17.027 -0.7648 -0.1960 -0.2810
10799TIP3    H153888   4.874   2.533  17.005  0.1301  0.8487  1.1641
10799TIP3    H253889   4.889   2.426  17.110  0.7799  0.4207  0.6354
10800TIP3   OH253890   1.101   6.274  14.757 -0.2931  0.1781 -0.1375
10800TIP3    H153891   1.063   6.195  14.720  0.0502  0.4495 -1.0784
10800TIP3    H253892   1.178   6.244  14.805 -0.1733 -0.0606 -0.4810
10801TIP3   OH253893   0.598   2.803   0.826  0.1258  0.2942 -0.2695
10801TIP3    H153894   0.535   2.872   0.849  3.0764  3.0400  0.0249
10801TIP3    H253895   0.617   2.759   0.909 -1.1274 -0.3192 -0.3030
10802TIP3   OH253896   4.149   0.648  12.856  0.6171 -0.2096  0.2767
10802TIP3    H153897   4.105   0.649  12.771 -1.6311 -1.3142  1.3656
10802TIP3    H253898   4.106   0.717  12.907  0.8870 -0.5557  0.9914
10803TIP3   OH253899   5.564   0.302   0.337 -0.0873  0.0568 -0.0180
10803TIP3    H153900   5.657   0.289   0.353 -0.7748 -2.8176  1.9930
10803TIP3    H253901   5.534   0.354   0.412 -0.3153  0.0710 -0.1190
10804TIP3   OH253902   3.211   0.313   3.815  0.0272 -0.1652 -0.5577
10804TIP3    H153903   3.301   0.318   3.845  0.4671 -2.1241 -1.4428
10804TIP3    H253904   3.158   0.314   3.894  0.8182  1.1780 -0.0457
10805TIP3   OH253905   6.700   4.669  13.150  0.5128 -0.1383  0.0166
10805TIP3    H153906   6.764   4.651  13.081 -0.9024 -2.3974 -0.7758
10805TIP3    H253907   6.683   4.763  13.144  0.9878 -0.1718 -2.2154
10806TIP3   OH253908   1.733   6.805   2.263  0.5259 -0.2966  0.5107
10806TIP3    H153909   1.722   6.842   2.351  0.9369  0.4261  0.2585
10806TIP3    H253910   1.786   6.727   2.277 -2.1760 -2.0417  1.3299
10807TIP3   OH253911   2.708   0.357   6.339 -0.2543  0.1340 -0.9118
10807TIP3    H153912   2.637   0.412   6.372  0.3431  1.4306 -1.7562
10807TIP3    H253913   2.692   0.271   6.379 -2.1647  0.4598 -0.9160
10808TIP3   OH253914   6.119   0.374  16.876  0.3880  0.2880  0.1086
10808TIP3    H153915   6.184   0.304  16.885  0.6234  0.6675  1.4964
10808TIP3    H253916   6.035   0.331  16.887  0.4573  0.0236 -0.3376
10809TIP3   OH253917   3.636   4.168  14.829  0.5042 -0.1123  0.4663
10809TIP3    H153918   3.652   4.211  14.913  0.6781  2.5528 -0.8640
10809TIP3    H253919   3.558   4.212  14.795  0.0515 -1.6161 -0.5017
10810TIP3   OH253920   2.046   3.971   5.936  0.0389 -0.4743 -0.0335
10810TIP3    H153921   2.085   4.038   5.992  2.3835 -1.5786 -0.2645
10810TIP3    H253922   1.953   3.971   5.958  0.7668 -0.2569  3.2211
10811TIP3   OH253923   4.359   0.875   6.557 -0.2547 -0.1391 -0.3206
10811TIP3    H153924   4.392   0.797   6.511  1.2461  0.2927  0.0064
10811TIP3    H253925   4.432   0.936   6.555 -1.4648  1.3258 -0.6837
10812TIP3   OH253926   5.006   2.416   3.620  0.1188  0.3532  0.0970
10812TIP3    H153927   5.045   2.430   3.706  1.8974  1.2348 -0.8154
10812TIP3    H253928   5.056   2.345   3.581 -1.5146 -0.9202  0.2666
10813TIP3   OH253929   4.436   2.428  15.431  0.3744 -0.4969 -0.1368
10813TIP3    H153930   4.383   2.508  15.428  1.4539  0.3073  1.4118
10813TIP3    H253931   4.379   2.360  15.397 -1.2955  0.5525  0.4974
10814TIP3   OH253932   2.992   4.821   2.601  0.5881  0.0629 -0.5021
10814TIP3    H153933   2.901   4.841   2.622  1.1467  2.7561 -0.5041
10814TIP3    H253934   3.006   4.863   2.516  1.8447 -0.3236 -0.4872
10815TIP3   OH253935   5.236   0.076   6.531  0.0121 -0.5407  0.2634
10815TIP3    H153936   5.276   0.017   6.468  2.0499  0.9186  0.1262
10815TIP3    H253937   5.223   0.158   6.483 -1.3124 -0.3829  0.8739
10816TIP3   OH253938   2.367   4.126  16.719 -0.5569 -0.4448 -0.0613
10816TIP3    H153939   2.315   4.175  16.783 -0.7519  0.9498 -1.2798
10816TIP3    H253940   2.413   4.193  16.668  2.1337 -1.6351  0.6974
10817TIP3   OH253941   6.102   1.766  14.101 -0.0185 -0.6631  0.3843
10817TIP3    H153942   6.159   1.768  14.024 -1.1640  0.5478 -0.4456
10817TIP3    H253943   6.019   1.732  14.068 -1.2216  2.0157  0.6003
10818TIP3   OH253944   2.406   2.228   3.757 -0.4091  0.0969 -0.0159
10818TIP3    H153945   2.387   2.179   3.837  1.8240 -1.2781 -0.2813
10818TIP3    H253946   2.373   2.172   3.687 -1.9120  1.0742 -0.1113
10819TIP3   OH253947   5.650   0.018   5.559  0.5217 -0.1108 -0.1458
10819TIP3    H153948   5.629   0.029   5.466  1.2785 -2.5425 -0.6569
10819TIP3    H253949   5.566   0.028   5.603 -0.0629 -0.1097 -1.2278
10820TIP3   OH253950   3.418   4.834  11.372  0.0797 -0.1995  0.0686
10820TIP3    H153951   3.504   4.842  11.414  0.8198 -2.0418 -1.0847
10820TIP3    H253952   3.422   4.894  11.298  0.5010 -0.5822 -0.2166
10821TIP3   OH253953   5.343   2.513  14.815 -0.5438 -0.6455 -0.0281
10821TIP3    H153954   5.369   2.467  14.895 -0.9057 -0.4454  0.2039
10821TIP3    H253955   5.279   2.455  14.774 -0.1198 -0.9004 -0.3415
10822TIP3   OH253956   6.697   6.145  13.127 -0.2908 -0.3880 -0.4967
10822TIP3    H153957   6.668   6.233  13.104  0.4848  0.1870  0.6129
10822TIP3    H253958   6.782   6.136  13.084 -0.7294 -0.9075 -1.2654
10823TIP3   OH253959   3.856   5.701  17.244  0.0301  0.1402  0.4230
10823TIP3    H153960   3.945   5.730  17.263  0.0641 -0.1251  0.6645
10823TIP3    H253961   3.841   5.727  17.153  1.4179 -2.4729 -0.5906
10824TIP3   OH253962   6.560   1.759   6.321 -0.3358  0.2887 -0.2790
10824TIP3    H153963   6.647   1.792   6.345  0.1769  0.1897 -1.9370
10824TIP3    H253964   6.500   1.830   6.345  0.4332  1.2203 -1.0745
10825TIP3   OH253965   0.338   6.430  13.980  0.2016  0.0258  0.1769
10825TIP3    H153966   0.429   6.401  13.969  0.2982 -0.5032  2.2212
10825TIP3    H253967   0.285   6.354  13.957  0.2096  0.6604 -2.0823
10826TIP3   OH253968   0.689   2.635  15.043  0.2759  0.0462  0.8427
10826TIP3    H153969   0.781   2.610  15.042  0.0417 -0.7919  0.1086
10826TIP3    H253970   0.671   2.656  15.135  0.2490 -3.3126  1.6530
10827TIP3   OH253971   1.368   1.876   2.962 -0.0661 -0.9456  0.6989
10827TIP3    H153972   1.399   1.881   2.872  1.4715 -1.3635  1.2011
10827TIP3    H253973   1.378   1.965   2.996  3.8067 -1.7449  1.8892
10828TIP3   OH253974   1.521   2.155  13.787 -0.3910  0.5757 -0.4861
10828TIP3    H153975   1.580   2.149  13.712 -2.3913 -0.7697 -2.0111
10828TIP3    H253976   1.474   2.071  13.787 -3.3828  2.1603 -0.2721
10829TIP3   OH253977   0.865   1.302   4.225  0.3083 -0.5155 -0.2996
10829TIP3    H153978   0.801   1.245   4.266 -0.6924  0.0790 -1.0001
10829TIP3    H253979   0.816   1.381   4.202  1.1296 -0.3143 -1.4470
10830TIP3   OH253980   4.647   1.105   0.234  0.1218 -0.1385 -0.3422
10830TIP3    H153981   4.611   1.194   0.228 -0.3461 -0.2943  0.0899
10830TIP3    H253982   4.725   1.107   0.179  0.9297  0.9408  0.7927
10831TIP3   OH253983   0.265   0.679   1.075 -0.1067  0.0138  0.1131
10831TIP3    H153984   0.236   0.741   1.008 -0.6944 -0.8347 -0.4156
10831TIP3    H253985   0.239   0.719   1.158 -0.6698  0.3722 -0.2390
10832TIP3   OH253986   1.123   3.868  10.921  0.3229 -0.1421 -0.1328
10832TIP3    H153987   1.089   3.914  10.845 -0.5697 -3.3433 -1.7373
10832TIP3    H253988   1.058   3.884  10.990  0.3150  1.4014 -0.4671
10833TIP3   OH253989   3.197   4.788   3.465 -0.1840  0.4508  0.0523
10833TIP3    H153990   3.240   4.867   3.434  1.0250  0.1716  0.9714
10833TIP3    H253991   3.104   4.806   3.456  0.1140  1.1155 -1.8632
10834TIP3   OH253992   6.319   4.544  11.159 -0.4717 -0.4083  0.0445
10834TIP3    H153993   6.241   4.593  11.133  0.4066  0.5909 -0.7782
10834TIP3    H253994   6.339   4.489  11.083  0.4044  0.3556 -0.2931
10835TIP3   OH253995   1.432   5.066   1.422  0.0836  0.2799  0.3035
10835TIP3    H153996   1.368   5.005   1.385 -0.1058  0.1515  0.8425
10835TIP3    H253997   1.475   5.105   1.345 -0.3241  0.0342 -0.0511
10836TIP3   OH253998   5.537   3.902   1.024  0.1966 -0.2509 -0.1224
10836TIP3    H153999   5.585   3.891   0.941 -0.3621  2.0431 -0.7916
10836TIP3    H254000   5.453   3.940   0.997  0.4317  1.5162  1.6016
10837TIP3   OH254001   1.621   4.755   1.296 -0.6278  0.4437  0.2542
10837TIP3    H154002   1.684   4.777   1.227 -0.9845 -0.9862 -0.5531
10837TIP3    H254003   1.668   4.773   1.378  0.0424  1.5085 -0.3469
10838TIP3   OH254004   0.496   5.588   4.198 -0.0023 -0.4008  0.3041
10838TIP3    H154005   0.504   5.659   4.261 -0.6357 -1.2937  1.3996
10838TIP3    H254006   0.569   5.530   4.219 -0.1230 -0.6216  0.1112
10839TIP3   OH254007   3.186   0.158  13.975 -0.0513 -0.0431  0.2759
10839TIP3    H154008   3.137   0.207  14.041 -0.9766  2.2409 -2.0326
10839TIP3    H254009   3.120   0.101  13.935  0.3829 -0.9871  0.8901
10840TIP3   OH254010   3.668   3.241  15.742  0.6746 -0.1309  0.5785
10840TIP3    H154011   3.718   3.218  15.821 -1.5445 -0.6088  1.9021
10840TIP3    H254012   3.626   3.324  15.764  0.2131 -0.1609 -0.1822
10841TIP3   OH254013   1.617   3.067   1.981  0.4134 -0.0156  0.2272
10841TIP3    H154014   1.676   3.023   1.919 -0.1192  0.2642 -0.4865
10841TIP3    H254015   1.530   3.054   1.943  0.1720  0.9064  0.4735
10842TIP3   OH254016   5.301   6.229   2.442 -0.5085  0.3218  0.1176
10842TIP3    H154017   5.231   6.222   2.507 -0.4433 -1.0792  0.0444
10842TIP3    H254018   5.336   6.141   2.435  0.4801  0.7739 -0.7328
10843TIP3   OH254019   5.930   4.774  16.849 -0.4005  0.3318  0.4046
10843TIP3    H154020   5.842   4.788  16.815 -0.3176  0.3470  0.1994
10843TIP3    H254021   5.924   4.801  16.941 -0.8928 -0.7255  0.6906
10844TIP3   OH254022   5.632   0.911  11.069 -0.0958 -0.1356  0.3214
10844TIP3    H154023   5.589   0.990  11.103 -2.5839 -1.0510 -0.5359
10844TIP3    H254024   5.674   0.940  10.988 -0.9389  0.3317  0.0440
10845TIP3   OH254025   0.126   6.814  11.480 -0.3252 -0.5520  0.2745
10845TIP3    H154026   0.056   6.852  11.533  1.4853  0.0790  2.2907
10845TIP3    H254027   0.086   6.800  11.394 -2.7915  0.1583  1.2552
10846TIP3   OH254028   3.373   4.088  17.228 -0.1555  0.0034  0.2348
10846TIP3    H154029   3.455   4.106  17.183 -0.3258  0.7587  0.2218
10846TIP3    H254030   3.314   4.156  17.197 -0.0348  1.0270  2.2395
10847TIP3   OH254031   4.962   1.521  15.635 -0.2396  0.0337 -0.1675
10847TIP3    H154032   4.918   1.551  15.555 -0.4292 -1.2937 -0.5700
10847TIP3    H254033   4.931   1.431  15.647  0.9957 -0.3063  0.5384
10848TIP3   OH254034   0.529   3.080  16.056  0.4108  0.2875  0.0333
10848TIP3    H154035   0.579   3.032  15.990  2.4931  1.7546  0.4973
10848TIP3    H254036   0.453   3.114  16.008 -1.0655 -3.2873 -0.3186
10849TIP3   OH254037   2.329   6.136  13.271  0.3287 -0.2579 -0.3554
10849TIP3    H154038   2.361   6.047  13.287  0.7501  0.1555  1.1902
10849TIP3    H254039   2.336   6.147  13.176  0.1726 -1.9061 -0.5743
10850TIP3   OH254040   3.504   1.345   3.288 -0.2572  0.1854  0.4004
10850TIP3    H154041   3.439   1.411   3.266 -1.1292 -0.8092 -0.0725
10850TIP3    H254042   3.484   1.271   3.230  0.2336 -0.7747  1.4237
10851TIP3   OH254043   5.020   3.711   0.978 -0.0536 -0.0143 -0.2937
10851TIP3    H154044   4.984   3.653   1.045 -1.5241 -1.2594 -2.1168
10851TIP3    H254045   4.945   3.733   0.923  1.3663 -0.0882 -2.3056
10852TIP3   OH254046   3.280   1.465   4.694 -0.4512  0.6684 -0.3069
10852TIP3    H154047   3.246   1.391   4.744  1.0635  0.1824  0.0222
10852TIP3    H254048   3.323   1.520   4.759  0.1922  0.8098 -0.8407
10853TIP3   OH254049   2.612   0.385  14.328  0.0305 -0.2349  0.0514
10853TIP3    H154050   2.648   0.456  14.275 -2.2026 -0.5108 -1.9639
10853TIP3    H254051   2.649   0.306  14.289  1.6557 -0.2345  1.5896
10854TIP3   OH254052   5.620   1.455  15.372  0.1040 -0.0094 -0.0653
10854TIP3    H154053   5.578   1.441  15.287  1.7269 -0.0554 -0.8755
10854TIP3    H254054   5.551   1.496  15.425 -1.1529 -0.6370 -1.1612
10855TIP3   OH254055   1.257   2.412  16.134  0.2330 -0.1967  0.1176
10855TIP3    H154056   1.295   2.384  16.217 -1.1342  0.0671  0.8542
10855TIP3    H254057   1.322   2.471  16.096  1.0252 -0.6010  0.8362
10856TIP3   OH254058   3.130   6.197  14.220  0.8367 -0.2751  0.5348
10856TIP3    H154059   3.147   6.104  14.234 -0.6668 -0.6047  0.2033
10856TIP3    H254060   3.040   6.201  14.189  1.7870  1.0476 -2.2107
10857TIP3   OH254061   4.291   6.384   3.753  0.1695 -0.6703  0.2864
10857TIP3    H154062   4.356   6.403   3.685  2.0088  2.8908  2.8534
10857TIP3    H254063   4.211   6.426   3.722  0.3176 -1.1526 -0.7786
10858TIP3   OH254064   5.127   2.078   1.567  0.4477  0.1445  0.1029
10858TIP3    H154065   5.173   1.998   1.538  1.8261  0.5275  1.1453
10858TIP3    H254066   5.053   2.086   1.508  0.8757 -1.3568 -0.6702
10859TIP3   OH254067   3.981   6.802   4.463  0.2435  0.8780  0.4047
10859TIP3    H154068   3.935   6.794   4.547  1.0006 -0.4018  0.7198
10859TIP3    H254069   3.912   6.800   4.397 -0.3069  1.2234  0.9642
10860TIP3   OH254070   5.368   0.075  16.182 -0.2686 -0.0467 -0.4328
10860TIP3    H154071   5.461   0.090  16.163 -0.0156 -1.8212 -0.6928
10860TIP3    H254072   5.322   0.130  16.119  0.6021  0.2238 -0.8478
10861TIP3   OH254073   2.907   3.875   2.356 -0.0865 -0.1654  0.6047
10861TIP3    H154074   2.914   3.828   2.439 -0.8851 -0.9005  0.2712
10861TIP3    H254075   2.951   3.818   2.293  0.1303  0.1813  0.4405
10862TIP3   OH254076   0.195   5.361  15.305 -0.5376  0.5025  0.8264
10862TIP3    H154077   0.205   5.456  15.315  1.6747  0.3408  0.5194
10862TIP3    H254078   0.143   5.350  15.226  0.8791  1.4454 -0.2651
10863TIP3   OH254079   4.835   5.924   6.046 -0.2318  0.3788  0.1624
10863TIP3    H154080   4.869   5.981   5.977  0.4184 -1.2776 -0.9414
10863TIP3    H254081   4.740   5.924   6.032 -0.2221  1.1212  0.1109
10864TIP3   OH254082   4.413   2.593  13.134  0.0389 -0.1590 -0.2032
10864TIP3    H154083   4.392   2.556  13.048  1.6450  0.5608 -0.9426
10864TIP3    H254084   4.503   2.564  13.150 -0.1375  0.0026  1.0784
10865TIP3   OH254085   2.687   6.701  10.879 -0.1138  0.3189  0.0070
10865TIP3    H154086   2.667   6.632  10.816 -2.3686  0.5660  0.4245
10865TIP3    H254087   2.683   6.657  10.964 -3.1935  1.2642  0.3992
10866TIP3   OH254088   1.306   0.029   0.490  0.4972  0.3198 -0.2777
10866TIP3    H154089   1.387   0.028   0.440  1.1373 -1.7836  0.7494
10866TIP3    H254090   1.322   0.093   0.560  1.4113 -0.3333  0.1238
10867TIP3   OH254091   2.091   5.712  17.130  0.0795 -0.2623  0.6198
10867TIP3    H154092   2.135   5.662  17.062 -2.5995  0.7777 -1.9841
10867TIP3    H254093   1.998   5.701  17.112 -0.6577  1.6184  2.9671
10868TIP3   OH254094   3.815   1.791   0.472  0.1878  0.1599  0.2720
10868TIP3    H154095   3.745   1.854   0.457 -1.5008 -1.3243  1.7254
10868TIP3    H254096   3.770   1.709   0.492  2.2351  0.0256  4.8881
10869TIP3   OH254097   3.229   1.171  14.719 -0.0276  0.1723 -0.1188
10869TIP3    H154098   3.273   1.240  14.668 -0.9956  0.0051 -1.1885
10869TIP3    H254099   3.183   1.119  14.654  0.0927 -1.0558  0.7753
10870TIP3   OH254100   3.250   4.687   0.424  0.1747 -0.2371 -0.1375
10870TIP3    H154101   3.322   4.626   0.439 -0.0027 -0.4590 -0.1887
10870TIP3    H254102   3.276   4.735   0.345  1.2546  1.1546  1.0484
10871TIP3   OH254103   4.092   3.655   5.195  0.6452 -0.1002  0.2376
10871TIP3    H154104   4.065   3.679   5.106 -0.9516 -3.3495 -0.2052
10871TIP3    H254105   4.067   3.731   5.249 -1.7516  0.3833 -1.4912
10872TIP3   OH254106   4.003   0.660  16.326  0.2898 -0.0101  0.0297
10872TIP3    H154107   3.960   0.641  16.243 -0.7070 -0.7761  0.7079
10872TIP3    H254108   3.938   0.708  16.377  0.7433  0.0943  0.5228
10873TIP3   OH254109   5.234   1.362   5.991  0.2165 -0.5888  0.4742
10873TIP3    H154110   5.196   1.282   6.027 -1.2462 -0.0663  0.1096
10873TIP3    H254111   5.207   1.431   6.051 -0.6139 -0.0041 -0.5626
10874TIP3   OH254112   4.208   0.878   4.604 -0.3787  0.4865  0.0757
10874TIP3    H154113   4.267   0.952   4.593 -0.2956  0.4645  0.3675
10874TIP3    H254114   4.234   0.838   4.687 -1.8474  1.4561  1.0339
10875TIP3   OH254115   1.268   2.171   2.688 -0.4533  0.3090  0.0171
10875TIP3    H154116   1.214   2.222   2.628 -1.3121  0.4025  0.8464
10875TIP3    H254117   1.208   2.103   2.721 -0.3297  0.9548  1.6209
10876TIP3   OH254118   1.431   2.644  17.089  0.6169 -0.3085 -0.5891
10876TIP3    H154119   1.415   2.568  17.033  1.0094 -0.9414  0.1466
10876TIP3    H254120   1.356   2.702  17.073 -0.0841 -1.2060 -0.5466
10877TIP3   OH254121   0.140   4.512  15.816 -0.0166  0.3033 -0.4732
10877TIP3    H154122   0.131   4.512  15.721 -0.4161 -1.8156 -0.4699
10877TIP3    H254123   0.089   4.587  15.846 -0.4484  0.5854 -1.8935
10878TIP3   OH254124   4.061   2.738  15.003 -0.0620 -0.1299  0.7525
10878TIP3    H154125   4.072   2.832  14.993  0.5673 -0.0479  2.0755
10878TIP3    H254126   3.981   2.718  14.955  0.2654  0.9316 -0.2689
10879TIP3   OH254127   1.480   1.292  14.806 -0.3738 -0.4825  0.7603
10879TIP3    H154128   1.407   1.299  14.867 -1.1948 -2.8587  0.1078
10879TIP3    H254129   1.454   1.345  14.731 -0.2475  0.8186  1.6339
10880TIP3   OH254130   4.679   0.660   0.970 -0.7732 -0.0999  0.0615
10880TIP3    H154131   4.688   0.588   1.032 -0.7218  0.0733  0.2546
10880TIP3    H254132   4.770   0.682   0.948 -0.8022 -0.7058 -0.7045
10881TIP3   OH254133   1.667   2.775   4.129  0.3905 -0.9603  0.5593
10881TIP3    H154134   1.664   2.686   4.092  2.3688 -1.4540  1.5130
10881TIP3    H254135   1.575   2.798   4.143 -0.2734 -1.9031 -1.8903
10882TIP3   OH254136   4.207   4.663  11.939  0.2795 -0.2706  0.7513
10882TIP3    H154137   4.274   4.611  11.895  1.1461  2.4157 -1.2209
10882TIP3    H254138   4.127   4.647  11.889  0.7612  1.0046 -0.4569
10883TIP3   OH254139   0.101   0.229  11.704  0.2925  0.0818  0.1923
10883TIP3    H154140   0.164   0.170  11.746 -0.7067 -0.1134  1.4594
10883TIP3    H254141   0.031   0.238  11.769 -0.3922  1.2716 -0.7073
10884TIP3   OH254142   0.757   2.477  11.693  0.1524 -0.6147 -0.1857
10884TIP3    H154143   0.717   2.541  11.634 -0.7755 -0.9747  0.0439
10884TIP3    H254144   0.686   2.450  11.751  0.8983 -0.7606  0.6748
10885TIP3   OH254145   5.375   6.628  11.593  0.0116 -0.2991 -0.0711
10885TIP3    H154146   5.420   6.676  11.522 -0.3989 -0.9688 -0.7941
10885TIP3    H254147   5.287   6.612  11.559 -0.1737 -0.6751  0.5789
10886TIP3   OH254148   0.984   5.590  12.679 -0.0677  0.3339 -0.0186
10886TIP3    H154149   0.911   5.618  12.734  0.6195 -1.8961  2.0994
10886TIP3    H254150   0.947   5.584  12.591 -1.8985  1.2533  0.6708
10887TIP3   OH254151   1.980   4.933   3.488 -0.3537 -0.5323 -0.1663
10887TIP3    H154152   2.035   4.913   3.413 -0.4447 -1.3142 -0.0317
10887TIP3    H254153   2.028   5.000   3.536  1.4797 -2.6458  1.0500
10888TIP3   OH254154   5.217   2.252  15.554 -0.0369  0.1236 -0.0966
10888TIP3    H154155   5.295   2.285  15.510  0.0287 -0.2846 -0.2853
10888TIP3    H254156   5.159   2.226  15.483  0.7018 -2.0191  0.0572
10889TIP3   OH254157   6.813   5.579   1.906 -0.2367  0.3972 -0.4128
10889TIP3    H154158   6.762   5.500   1.922 -1.4656  1.6543  2.1814
10889TIP3    H254159   6.888   5.571   1.965 -1.3228  2.0001  1.2188
10890TIP3   OH254160   6.523   4.848  16.276 -0.2863 -0.0052  0.0560
10890TIP3    H154161   6.479   4.927  16.244  0.7290  0.8587  0.7560
10890TIP3    H254162   6.557   4.873  16.362  1.4101 -0.6973 -0.3934
10891TIP3   OH254163   1.715   4.636   5.883 -0.2612 -0.0446  0.2203
10891TIP3    H154164   1.797   4.590   5.903  0.8007  1.7898  0.2002
10891TIP3    H254165   1.670   4.641   5.967 -0.4648 -1.2475  0.1937
10892TIP3   OH254166   6.606   5.620  11.714 -0.3164  0.4342  0.5724
10892TIP3    H154167   6.665   5.676  11.765 -1.3542  2.5028 -0.4263
10892TIP3    H254168   6.613   5.654  11.624 -0.0323 -1.8629 -0.3041
10893TIP3   OH254169   4.119   6.759  11.174  0.0305  0.3380  0.0565
10893TIP3    H154170   4.196   6.764  11.231  0.2122 -3.8846  0.3616
10893TIP3    H254171   4.152   6.784  11.088  1.9256 -1.7893  0.1014
10894TIP3   OH254172   6.372   6.763  14.834 -0.3961  0.2150 -0.1315
10894TIP3    H154173   6.447   6.739  14.890 -1.5663  1.3633  1.9918
10894TIP3    H254174   6.326   6.680  14.820 -0.2641 -0.0404  0.8940
10895TIP3   OH254175   1.006   1.468  16.146 -0.3606 -0.5899 -0.3626
10895TIP3    H154176   1.094   1.431  16.141 -1.3684 -2.9006 -2.0551
10895TIP3    H254177   0.978   1.478  16.055 -1.8815 -0.0084  0.1433
10896TIP3   OH254178   5.972   2.769   0.831 -0.1849  0.3039 -0.0040
10896TIP3    H154179   5.919   2.809   0.900 -0.4686 -0.7098  0.3589
10896TIP3    H254180   6.004   2.687   0.868 -0.8994 -0.5873 -1.3048
10897TIP3   OH254181   2.273   3.689  16.480  0.3037 -0.2550  0.0060
10897TIP3    H154182   2.364   3.699  16.507  0.3738  0.5244 -0.5026
10897TIP3    H254183   2.223   3.746  16.538  0.2119 -0.1957 -0.1311
10898TIP3   OH254184   0.375   1.046  16.180 -0.5011 -0.3498 -0.3580
10898TIP3    H154185   0.444   0.981  16.194  2.5696  2.9631  0.5391
10898TIP3    H254186   0.344   1.068  16.268  0.0154  0.9833 -0.5059
10899TIP3   OH254187   4.566   1.670   4.170 -0.3534  0.3007 -0.1125
10899TIP3    H154188   4.543   1.584   4.207  0.5222  0.0083 -0.2524
10899TIP3    H254189   4.579   1.726   4.246  1.3904 -0.2852  0.0307
10900TIP3   OH254190   1.344   3.812   4.783  0.0887 -0.5089  0.3913
10900TIP3    H154191   1.356   3.777   4.694  0.1155  2.7182 -0.9511
10900TIP3    H254192   1.420   3.869   4.797 -0.5895  0.0333  1.9850
10901TIP3   OH254193   2.451   0.023  15.680  0.4426 -0.0145  0.1726
10901TIP3    H154194   2.472  -0.043  15.613 -0.2250 -1.2856  1.1909
10901TIP3    H254195   2.522   0.015  15.744  0.3689  0.2722  0.2897
10902TIP3   OH254196   1.586   4.012   1.765  0.6784 -0.1479  0.0293
10902TIP3    H154197   1.619   4.038   1.679  1.3860  0.7390  0.5647
10902TIP3    H254198   1.491   4.019   1.757  0.5620 -2.7870 -1.5490
10903TIP3   OH254199   0.349   5.784   0.621 -0.1671  0.2798 -0.6402
10903TIP3    H154200   0.309   5.702   0.648  0.1916 -0.0640 -1.1481
10903TIP3    H254201   0.428   5.791   0.674 -0.4036  0.4888 -0.3163
10904TIP3   OH254202   1.514   6.449   3.041 -0.5135  0.4366 -0.0991
10904TIP3    H154203   1.469   6.375   3.081  1.0759  0.5599  1.9748
10904TIP3    H254204   1.475   6.526   3.083 -1.6572  0.7780 -1.7308
10905TIP3   OH254205   3.983   6.099   1.576  0.5803  0.4466 -0.1098
10905TIP3    H154206   3.893   6.110   1.545  0.5805 -1.0435 -0.7131
10905TIP3    H254207   4.032   6.168   1.532  0.0158  0.2856 -1.0116
10906TIP3   OH254208   4.492   6.765  16.615 -0.2008 -0.0869  0.1858
10906TIP3    H154209   4.494   6.669  16.609  0.8522 -0.1058  0.6552
10906TIP3    H254210   4.568   6.786  16.670  1.2054  1.1762 -2.1604
10907TIP3   OH254211   1.173   1.893  16.562  0.1055  0.1872  0.2914
10907TIP3    H154212   1.202   1.846  16.483  0.5523  0.6096  0.2042
10907TIP3    H254213   1.080   1.872  16.569 -0.3450  1.4957 -1.3146
10908TIP3   OH254214   3.272   2.429   5.200 -0.6503  0.8327  0.1177
10908TIP3    H154215   3.282   2.340   5.165  2.3647  1.5087 -0.9152
10908TIP3    H254216   3.242   2.416   5.290  0.3035 -1.2543  0.1612
10909TIP3   OH254217   6.350   0.557  11.146 -0.1960 -0.5655 -0.1839
10909TIP3    H154218   6.332   0.476  11.193 -1.5541 -0.1538  0.0340
10909TIP3    H254219   6.390   0.529  11.064 -0.4527 -1.4433 -0.0158
10910TIP3   OH254220   4.462   3.655   0.599  0.2960 -0.2766 -0.3638
10910TIP3    H154221   4.429   3.726   0.654 -2.8708  0.0381 -2.5258
10910TIP3    H254222   4.431   3.575   0.643 -1.0381 -0.0770 -0.9131
10911TIP3   OH254223   5.146   3.002   0.833  0.2023 -0.1734 -0.6900
10911TIP3    H154224   5.209   2.959   0.774  0.3105 -2.4842  1.0091
10911TIP3    H254225   5.185   3.087   0.852  0.1264  0.6595 -3.9807
10912TIP3   OH254226   4.833   0.341  15.289  0.1645  0.4965 -0.0841
10912TIP3    H154227   4.856   0.318  15.199  1.1155  1.1110 -0.0098
10912TIP3    H254228   4.889   0.286  15.343 -0.4525  0.0808  0.1322
10913TIP3   OH254229   2.607   1.423   0.541  0.0375 -0.3617  0.1451
10913TIP3    H154230   2.633   1.347   0.490  2.3561  0.7335 -0.3927
10913TIP3    H254231   2.544   1.469   0.486  0.1419 -0.8497 -0.3841
10914TIP3   OH254232   2.049   3.288   3.776  0.3896  0.0557 -0.1001
10914TIP3    H154233   2.089   3.348   3.839  0.5252  0.2853 -0.4042
10914TIP3    H254234   2.092   3.308   3.693  0.3207 -0.3544 -0.2339
10915TIP3   OH254235   1.866   1.736  10.590 -0.2669  0.1064  0.2123
10915TIP3    H154236   1.799   1.793  10.552 -0.2475 -0.6259 -0.9670
10915TIP3    H254237   1.941   1.793  10.606 -0.6517  0.6362  0.1308
10916TIP3   OH254238   6.383   5.259  16.389  0.3134  0.0307 -0.7261
10916TIP3    H154239   6.292   5.267  16.419  0.2275  0.5941 -1.1122
10916TIP3    H254240   6.376   5.215  16.304  0.3116  0.9159 -1.1935
10917TIP3   OH254241   4.178   6.138   5.043  0.3265  0.2088 -0.2239
10917TIP3    H154242   4.163   6.066   5.104 -1.6015 -0.3010 -1.2825
10917TIP3    H254243   4.141   6.109   4.960 -0.6066  2.4360 -0.6454
10918TIP3   OH254244   6.239   1.848  13.829 -0.0166  0.8374  0.1549
10918TIP3    H154245   6.274   1.897  13.754  0.2692  0.1414 -0.1703
10918TIP3    H254246   6.180   1.784  13.790  1.3241 -0.5711  0.3885
10919TIP3   OH254247   1.136   1.360   0.249  0.1246 -0.4962  0.2177
10919TIP3    H154248   1.135   1.265   0.261 -2.3393 -0.5014  0.1562
10919TIP3    H254249   1.044   1.386   0.254  0.7437  1.8554 -0.0809
10920TIP3   OH254250   6.775   6.427   1.777  0.1209  0.1860 -0.1049
10920TIP3    H154251   6.846   6.468   1.827 -1.0341  1.5027  0.5165
10920TIP3    H254252   6.819   6.382   1.705  1.5577  1.3813 -0.0161
10921TIP3   OH254253   0.225   2.223  12.646 -0.1088  0.0960  0.1545
10921TIP3    H154254   0.270   2.143  12.619 -0.2697 -0.7047  2.1494
10921TIP3    H254255   0.200   2.267  12.564  0.4695 -1.6192 -0.9461
10922TIP3   OH254256   4.187   4.196   5.599 -0.2279 -0.5706 -0.2943
10922TIP3    H154257   4.258   4.230   5.653 -0.9066  2.4448 -1.2212
10922TIP3    H254258   4.209   4.103   5.586  2.5471 -0.1266  0.9313
10923TIP3   OH254259   6.384   1.431   0.169  0.9681  0.0751 -0.4805
10923TIP3    H154260   6.453   1.378   0.209  0.1299 -0.6687 -0.0155
10923TIP3    H254261   6.419   1.520   0.171  1.6240 -0.1919  0.4031
10924TIP3   OH254262   0.996   5.480   3.941 -0.0576 -0.3005  0.0994
10924TIP3    H154263   0.931   5.550   3.933 -0.1841 -0.4599 -0.3216
10924TIP3    H254264   1.006   5.466   4.035  1.3361  1.5514  0.2447
10925TIP3   OH254265   1.177   0.582   5.241  0.7175  0.1339 -0.0984
10925TIP3    H154266   1.107   0.607   5.180  0.3670 -0.0677  0.2187
10925TIP3    H254267   1.252   0.635   5.214  0.7338 -0.3686 -1.0685
10926TIP3   OH254268   6.342   2.893  16.529 -0.2357  0.1732 -0.6303
10926TIP3    H154269   6.420   2.863  16.577  0.4714 -0.9802 -2.4562
10926TIP3    H254270   6.269   2.852  16.575  0.2089  1.3103  1.1358
10927TIP3   OH254271   1.729   1.940  13.203 -0.0658  0.4872 -0.0139
10927TIP3    H154272   1.721   2.020  13.151 -1.7024 -0.7574 -1.7516
10927TIP3    H254273   1.776   1.879  13.146 -1.6645 -0.8115  0.0218
10928TIP3   OH254274   0.978   2.033  12.532  0.6999  0.1315 -0.4516
10928TIP3    H154275   1.019   1.947  12.539 -0.5944 -0.6640 -2.3069
10928TIP3    H254276   0.933   2.046  12.615  2.5377 -0.0993  0.6107
10929TIP3   OH254277   5.244   0.991   5.390 -0.4041  0.0892  0.2196
10929TIP3    H154278   5.156   0.959   5.408  0.6019 -1.5253  2.4746
10929TIP3    H254279   5.241   1.021   5.298 -2.9137 -1.1330 -0.1206
10930TIP3   OH254280   2.425   6.321   1.197  0.4937  0.0349 -0.4310
10930TIP3    H154281   2.398   6.391   1.137  1.9995  0.7916 -0.2632
10930TIP3    H254282   2.450   6.249   1.139 -0.2850 -0.0680 -0.6370
10931TIP3   OH254283   0.392   4.875   5.416 -0.2405 -0.1587  0.4152
10931TIP3    H154284   0.416   4.862   5.508 -0.3038  1.6724  0.7214
10931TIP3    H254285   0.467   4.921   5.378 -1.5327  2.0069  0.3859
10932TIP3   OH254286   5.663   1.963   5.421 -0.0331 -0.2464 -0.1677
10932TIP3    H154287   5.715   1.977   5.341  1.5487 -2.4401  0.4236
10932TIP3    H254288   5.724   1.983   5.492 -0.9856  0.2262  0.5243
10933TIP3   OH254289   4.285   4.723   6.465  0.4907  0.0946  0.1955
10933TIP3    H154290   4.267   4.812   6.496  1.1273  0.5517 -0.7203
10933TIP3    H254291   4.247   4.666   6.532  0.6125  1.0574  1.0982
10934TIP3   OH254292   3.849   0.020   0.707 -0.5461  0.4983  0.1411
10934TIP3    H154293   3.871  -0.045   0.773 -0.5277  0.0887 -0.2656
10934TIP3    H254294   3.823  -0.031   0.630 -0.9806  0.9697 -0.0303
10935TIP3   OH254295   3.332   3.433  11.816  0.1341  0.1054  0.5443
10935TIP3    H154296   3.413   3.409  11.862 -1.1308 -0.6229  2.4780
10935TIP3    H254297   3.267   3.372  11.851 -1.4437  1.2797 -0.3226
10936TIP3   OH254298   2.398   6.255   4.774 -0.2957  0.1752 -0.3796
10936TIP3    H154299   2.352   6.282   4.853  0.3098  2.6794 -0.8514
10936TIP3    H254300   2.487   6.288   4.785 -0.0551  0.0702 -1.8808
10937TIP3   OH254301   5.173   5.841  10.492  0.1547  0.4872 -0.0295
10937TIP3    H154302   5.082   5.858  10.466  0.5512  0.4844 -1.4655
10937TIP3    H254303   5.225   5.896  10.434  1.1467 -0.6967 -0.2745
10938TIP3   OH254304   0.779   4.199   5.613  0.1324  0.2038  0.0886
10938TIP3    H154305   0.759   4.134   5.681 -1.2049  2.9396  2.4003
10938TIP3    H254306   0.695   4.219   5.573  0.6563  0.0157 -1.1535
10939TIP3   OH254307   2.518   1.804  13.355 -0.3189 -0.4618 -0.6492
10939TIP3    H154308   2.526   1.794  13.450  0.7757 -1.9286 -0.8740
10939TIP3    H254309   2.453   1.873  13.343  1.0026  1.1373  1.1926
10940TIP3   OH254310   5.086   5.067  15.916 -0.2618  0.0274  0.3676
10940TIP3    H154311   5.103   4.990  15.970 -0.5795  0.1860  0.6953
10940TIP3    H254312   5.135   5.051  15.835  0.9110  0.1702  1.0369
10941TIP3   OH254313   2.145   3.851   1.784  0.2256 -0.3915  0.3681
10941TIP3    H154314   2.071   3.790   1.786 -0.0311 -0.0322  2.2777
10941TIP3    H254315   2.106   3.936   1.803  1.1080 -0.1756  1.2028
10942TIP3   OH254316   2.561   1.316   3.646 -0.6342  0.1827 -0.4382
10942TIP3    H154317   2.564   1.369   3.566  1.6501  0.0039 -0.5032
10942TIP3    H254318   2.571   1.380   3.717  0.8894 -0.0076 -0.4654
10943TIP3   OH254319   1.467   4.921   3.088  1.1549  0.0229  0.2293
10943TIP3    H154320   1.452   4.830   3.113  0.4326 -0.0459 -0.4156
10943TIP3    H254321   1.426   4.973   3.157  1.1428 -0.1491  0.3501
10944TIP3   OH254322   5.345   1.373  11.884  0.4081  0.0937 -0.1867
10944TIP3    H154323   5.253   1.386  11.862  0.7000 -0.3469 -1.7720
10944TIP3    H254324   5.344   1.317  11.961 -0.6418 -0.9710 -0.9570
10945TIP3   OH254325   0.291   0.667   4.191 -0.3103 -0.0638  0.3658
10945TIP3    H154326   0.202   0.646   4.165 -0.1571  0.9283 -1.0357
10945TIP3    H254327   0.343   0.651   4.112  0.7612 -0.6967  1.1907
10946TIP3   OH254328   2.473   6.805  12.135 -0.3898  0.9570 -0.2820
10946TIP3    H154329   2.526   6.858  12.194 -0.7897  0.4279  0.5577
10946TIP3    H254330   2.421   6.749  12.193 -1.4954  1.1121 -1.1137
10947TIP3   OH254331   6.423   1.036   0.104  0.0777  0.0066  0.2174
10947TIP3    H154332   6.467   0.951   0.109 -3.4948 -2.0760 -1.3507
10947TIP3    H254333   6.395   1.054   0.194  0.1697 -0.9047  0.4327
10948TIP3   OH254334   0.631   6.517   4.445 -0.8125  0.1796  0.1045
10948TIP3    H154335   0.589   6.568   4.515 -0.8248  1.9184 -1.1357
10948TIP3    H254336   0.563   6.459   4.414 -1.7091  1.4911 -0.4465
10949TIP3   OH254337   6.661   1.413  15.182 -0.3381  0.2669 -0.6334
10949TIP3    H154338   6.599   1.443  15.249  0.2447 -0.4275  0.2205
10949TIP3    H254339   6.636   1.322  15.165  0.6538 -0.1284 -0.0297
10950TIP3   OH254340   5.783   3.347   1.064  0.2193  0.2676 -0.3232
10950TIP3    H154341   5.877   3.338   1.054  0.4788 -0.0348  2.1496
10950TIP3    H254342   5.749   3.343   0.975  2.3882 -1.3105 -1.1196
10951TIP3   OH254343   4.258   6.342  15.953 -0.2161  0.8025 -0.0523
10951TIP3    H154344   4.310   6.346  16.033 -0.7403 -1.5267  0.4531
10951TIP3    H254345   4.322   6.341  15.882  0.3718 -0.3503  0.4903
10952TIP3   OH254346   2.476   5.133   5.897 -0.1601  0.6282  0.3433
10952TIP3    H154347   2.393   5.086   5.888  0.3572  0.1475 -2.3793
10952TIP3    H254348   2.527   5.081   5.960 -1.7019  0.6334  1.6051
10953TIP3   OH254349   3.981   4.874  15.977 -0.6263 -0.5106  0.3442
10953TIP3    H154350   3.975   4.790  16.022 -0.1116 -0.1057  1.1717
10953TIP3    H254351   4.056   4.918  16.018  2.1759 -1.6198 -3.3080
10954TIP3   OH254352   3.567   4.019  12.758  0.5806  0.2538  0.0686
10954TIP3    H154353   3.598   4.023  12.849  0.3972 -1.0928  0.2013
10954TIP3    H254354   3.495   4.082  12.755  1.2618  1.0728  0.5791
10955TIP3   OH254355   6.265   4.940   5.697 -0.1473 -0.7589 -0.1743
10955TIP3    H154356   6.261   4.853   5.736 -0.6981 -1.3947 -1.6278
10955TIP3    H254357   6.185   4.947   5.646 -0.4716  0.8961  0.5167
10956TIP3   OH254358   2.105   3.998  13.418  0.0991  0.0613 -0.0547
10956TIP3    H154359   2.182   3.956  13.455  1.3917  0.9376 -1.7271
10956TIP3    H254360   2.077   4.060  13.485  0.2170 -0.9689  0.9725
10957TIP3   OH254361   2.565   1.174   6.398  0.4349  0.2351  0.0332
10957TIP3    H154362   2.637   1.219   6.442  0.8591 -1.7629  1.4389
10957TIP3    H254363   2.607   1.100   6.352 -0.5323 -0.1284 -0.2818
10958TIP3   OH254364   1.288   2.437   2.105 -0.7771 -0.7496  0.4793
10958TIP3    H154365   1.348   2.394   2.045 -0.4511  0.3016  0.0360
10958TIP3    H254366   1.222   2.370   2.126  0.2318 -1.7277  0.5377
10959TIP3   OH254367   4.871   5.251  14.790 -0.6014  0.7376  0.0564
10959TIP3    H154368   4.783   5.237  14.823 -1.2000  1.1271 -1.3368
10959TIP3    H254369   4.859   5.267  14.696  1.1507 -1.7029 -0.6434
10960TIP3   OH254370   3.268   6.504   4.451  0.4525  0.3935 -0.1746
10960TIP3    H154371   3.305   6.590   4.432  0.6579  0.6293  1.2690
10960TIP3    H254372   3.313   6.475   4.530  0.5012 -1.1161 -0.7334
10961TIP3   OH254373   6.427   1.579   4.082  0.5361 -0.1739 -0.1484
10961TIP3    H154374   6.442   1.673   4.081  1.3211 -0.2996 -0.2877
10961TIP3    H254375   6.504   1.542   4.125  0.1063 -0.7308  0.1534
10962TIP3   OH254376   2.399   6.190  15.644 -0.2275  0.6186 -0.2430
10962TIP3    H154377   2.436   6.147  15.721 -1.4191 -0.0135 -0.0134
10962TIP3    H254378   2.312   6.217  15.671 -1.1052 -0.6199 -1.7118
10963TIP3   OH254379   5.850   5.286   5.186  0.5649 -0.5813  0.3411
10963TIP3    H154380   5.898   5.214   5.146  0.5200 -1.7875  2.3449
10963TIP3    H254381   5.758   5.262   5.175  0.5714 -1.4653  2.0755
10964TIP3   OH254382   4.734   5.433   0.034 -0.1964 -0.1135 -0.3670
10964TIP3    H154383   4.640   5.427   0.017  0.2776 -1.0003 -2.9680
10964TIP3    H254384   4.745   5.397   0.122 -2.0551 -1.9819 -0.8644
10965TIP3   OH254385   0.916   0.329  15.234 -0.4800 -0.1430 -0.2485
10965TIP3    H154386   0.977   0.346  15.305 -0.8430  3.3844 -0.6854
10965TIP3    H254387   0.922   0.406  15.178 -4.2786 -0.3594 -1.0801
10966TIP3   OH254388   5.606   1.725   1.236  0.7893 -0.3092  0.4784
10966TIP3    H154389   5.659   1.805   1.234  1.5619 -0.8382 -0.4938
10966TIP3    H254390   5.515   1.756   1.239  1.0860  0.6080  0.0886
10967TIP3   OH254391   2.649   2.163   2.911 -0.3770 -0.0047  0.1546
10967TIP3    H154392   2.564   2.193   2.943 -0.3493 -0.0873  0.3068
10967TIP3    H254393   2.685   2.238   2.864 -0.1209  0.3448  0.8929
10968TIP3   OH254394   3.228   4.074  12.784 -0.5053  0.1784 -0.5205
10968TIP3    H154395   3.139   4.097  12.756 -0.8396 -1.6345 -1.0668
10968TIP3    H254396   3.221   4.068  12.880 -0.9215  0.2824 -0.5397
10969TIP3   OH254397   4.532   0.590   3.768 -0.3459 -0.1572 -0.4560
10969TIP3    H154398   4.488   0.654   3.712 -1.5123 -1.3918 -0.9734
10969TIP3    H254399   4.588   0.540   3.709  0.8900  0.6460  0.0145
10970TIP3   OH254400   3.593   1.765  16.925 -0.2302 -0.3535 -0.2755
10970TIP3    H154401   3.681   1.788  16.894 -0.0428 -0.7477 -0.0446
10970TIP3    H254402   3.569   1.835  16.985  0.7486 -1.2589  1.1971
10971TIP3   OH254403   2.088   2.969  10.906  0.1103  0.2514 -0.3950
10971TIP3    H154404   2.009   3.000  10.861  1.8160  0.7514 -3.1791
10971TIP3    H254405   2.112   2.888  10.861  0.4014 -0.6777  1.3773
10972TIP3   OH254406   5.674   1.763  12.690 -0.0889  0.5849  0.0718
10972TIP3    H154407   5.626   1.717  12.759 -1.6253 -1.0596 -2.0396
10972TIP3    H254408   5.729   1.696  12.650  1.3239  1.6828  0.1170
10973TIP3   OH254409   0.687   1.355   2.866 -0.6843 -0.4266  0.1940
10973TIP3    H154410   0.594   1.373   2.880 -0.5829  0.8407 -0.6877
10973TIP3    H254411   0.696   1.261   2.882 -2.2209 -0.6628 -0.2768
10974TIP3   OH254412   4.275   2.663  11.042  0.1790 -0.0985 -0.1886
10974TIP3    H154413   4.368   2.672  11.065  0.1402 -2.0483  0.8052
10974TIP3    H254414   4.275   2.611  10.962 -0.0665 -0.2677 -0.0780
10975TIP3   OH254415   1.073   4.345  16.472 -0.4707 -0.1433  0.6626
10975TIP3    H154416   0.996   4.290  16.454 -0.0516 -1.2637  2.1709
10975TIP3    H254417   1.108   4.367  16.386 -1.2786 -1.3594  0.0073
10976TIP3   OH254418   3.866   5.314   5.714 -0.2028  0.1919 -0.9614
10976TIP3    H154419   3.900   5.387   5.663  0.3978 -0.7585 -1.9486
10976TIP3    H254420   3.775   5.339   5.734 -0.3452  0.7164 -2.2360
10977TIP3   OH254421   3.459   6.684   5.581  0.2580 -0.4627 -0.3602
10977TIP3    H154422   3.463   6.760   5.523  0.6636 -1.6481 -1.9610
10977TIP3    H254423   3.366   6.669   5.596  0.2248  1.3211  1.3283
10978TIP3   OH254424   0.352   3.506  11.753 -0.0747 -0.6951 -0.2926
10978TIP3    H154425   0.310   3.454  11.822 -2.0095 -0.2132 -1.0883
10978TIP3    H254426   0.333   3.458  11.673  0.1448 -0.0028 -0.7558
10979TIP3   OH254427   5.307   2.775  12.506  0.3670 -0.2986  0.0294
10979TIP3    H154428   5.245   2.706  12.487 -0.3997  0.5188 -0.4628
10979TIP3    H254429   5.270   2.854  12.466  1.0003  0.4969  0.9544
10980TIP3   OH254430   1.581   1.000  13.654  0.6484 -0.0801  0.1951
10980TIP3    H154431   1.575   0.907  13.634  0.5214 -0.1940  0.7643
10980TIP3    H254432   1.553   1.044  13.573  1.4835 -0.5259 -0.3385
10981TIP3   OH254433   4.828   3.342   1.706  0.1024  0.0831 -0.1448
10981TIP3    H154434   4.849   3.375   1.793  2.8137 -1.3954 -0.1925
10981TIP3    H254435   4.736   3.368   1.693 -0.9103 -1.0995  3.7958
10982TIP3   OH254436   4.990   0.253   4.418 -0.1445 -0.8241  0.3544
10982TIP3    H154437   4.941   0.324   4.378 -0.3220 -0.9611  0.3307
10982TIP3    H254438   5.061   0.297   4.466 -0.2814 -0.6310  0.3775
10983TIP3   OH254439   4.694   5.909   3.286 -0.4418 -0.1267 -0.2232
10983TIP3    H154440   4.743   5.984   3.254 -1.1383  0.1122 -0.7340
10983TIP3    H254441   4.749   5.833   3.264 -0.4959  0.1065 -1.1679
10984TIP3   OH254442   4.807   4.308  11.620 -0.1760  0.3145 -0.3241
10984TIP3    H154443   4.764   4.361  11.553  2.1934  2.5018 -0.2006
10984TIP3    H254444   4.873   4.257  11.572 -1.2081 -1.2005 -0.1794
10985TIP3   OH254445   3.450   5.865   0.116  0.0204 -0.2144 -0.6959
10985TIP3    H154446   3.467   5.943   0.064 -1.2182 -0.3766 -1.3442
10985TIP3    H254447   3.528   5.857   0.172 -0.5060  2.3452  0.4827
10986TIP3   OH254448   3.135   2.400   1.899 -0.4137  0.1879  0.7632
10986TIP3    H154449   3.136   2.453   1.820 -0.8868 -0.0664  0.5805
10986TIP3    H254450   3.191   2.325   1.879 -1.1287 -0.2539  0.3977
10987TIP3   OH254451   5.177   1.653  12.465  0.1682 -0.1814  0.0706
10987TIP3    H154452   5.207   1.569  12.499 -1.3064 -1.6650 -2.1964
10987TIP3    H254453   5.256   1.708  12.465  1.3490 -1.8325  0.7387
10988TIP3   OH254454   3.881   0.359  14.406 -0.3037 -0.3606  0.1346
10988TIP3    H154455   3.872   0.332  14.315 -2.6434 -0.1172  0.2621
10988TIP3    H254456   3.916   0.282  14.451 -0.9297 -1.0942 -0.6223
10989TIP3   OH254457   3.600   6.655  16.804 -0.2749  0.5503 -0.5595
10989TIP3    H154458   3.568   6.744  16.791 -1.1768  0.3125 -0.0239
10989TIP3    H254459   3.540   6.617  16.867  1.0994  0.0969  0.5100
10990TIP3   OH254460   5.790   0.291  15.949 -0.9101  0.6216 -0.2815
10990TIP3    H154461   5.772   0.237  15.871  1.7275  3.4836 -3.0273
10990TIP3    H254462   5.870   0.254  15.986 -1.2167  0.3168  0.0814
10991TIP3   OH254463   4.520   0.032   3.963 -0.3467 -0.4593 -0.5551
10991TIP3    H154464   4.508   0.012   4.056  0.4415 -2.1342 -0.7822
10991TIP3    H254465   4.442  -0.004   3.920 -1.3554  1.5067 -0.4040
10992TIP3   OH254466   4.380   4.951  11.923  0.2720 -0.7700  0.5770
10992TIP3    H154467   4.359   5.016  11.856  1.0450 -0.5504  0.5433
10992TIP3    H254468   4.403   4.872  11.874  0.1992 -0.8059  0.6003
10993TIP3   OH254469   0.950   4.570   6.257 -0.4739  0.0641  0.0928
10993TIP3    H154470   1.001   4.645   6.227 -0.9505  0.4243  0.1794
10993TIP3    H254471   0.859   4.600   6.257 -0.6763 -0.5236  0.0884
10994TIP3   OH254472   0.871   5.426  15.152  0.5219  0.3126  0.4056
10994TIP3    H154473   0.784   5.455  15.180  0.1126 -1.5233  1.0975
10994TIP3    H254474   0.932   5.485  15.198 -0.2826  0.0934  1.7759
10995TIP3   OH254475   4.875   4.133   3.332 -0.2261  0.2729 -0.0908
10995TIP3    H154476   4.927   4.137   3.412  0.8322 -1.8948 -0.6325
10995TIP3    H254477   4.802   4.075   3.353 -0.0718 -0.1161 -0.6107
10996TIP3   OH254478   6.118   1.192   3.182 -0.0620 -0.7520  0.3158
10996TIP3    H154479   6.171   1.271   3.193  1.2384 -1.4409 -0.7401
10996TIP3    H254480   6.182   1.121   3.174 -1.2260 -2.0066  1.8643
10997TIP3   OH254481   3.257   4.136  14.267 -0.1918 -0.4787 -0.4343
10997TIP3    H154482   3.162   4.132  14.277 -0.2652  1.4407 -0.1633
10997TIP3    H254483   3.270   4.148  14.173 -0.2394 -0.2382 -0.4105
10998TIP3   OH254484   3.504   4.812  16.793 -0.2419 -0.4771 -0.1582
10998TIP3    H154485   3.443   4.738  16.796  0.6836 -1.2345  0.3171
10998TIP3    H254486   3.471   4.873  16.858 -0.4932 -0.8997  0.1150
10999TIP3   OH254487   6.577   4.119  15.419 -0.1286  0.3253  0.0830
10999TIP3    H154488   6.632   4.040  15.414  0.9064  1.0543 -0.1732
10999TIP3    H254489   6.492   4.086  15.448 -0.2541 -1.1432 -1.8383
11000TIP3   OH254490   0.663   3.855  15.307 -0.2859  0.4103  0.6632
11000TIP3    H154491   0.634   3.835  15.396  0.3852  0.6703  0.9435
11000TIP3    H254492   0.642   3.947  15.295 -0.1888  0.4278  0.6280
11001TIP3   OH254493   1.002   6.084  10.749  0.1965 -0.3567  0.3725
11001TIP3    H154494   0.932   6.116  10.805  0.9429  2.2313 -0.0985
11001TIP3    H254495   1.083   6.107  10.795  0.7792 -2.4790  0.4692
11002TIP3   OH254496   1.590   3.272  14.615  0.2457 -0.5878  0.0886
11002TIP3    H154497   1.547   3.252  14.532  0.1234  2.2010 -0.5722
11002TIP3    H254498   1.679   3.296  14.590  1.3337 -3.3803  1.1591
11003TIP3   OH254499   3.542   4.335  13.975  0.4902 -0.3102 -0.0977
11003TIP3    H154500   3.459   4.288  13.969 -0.8550  1.9179  0.3318
11003TIP3    H254501   3.581   4.304  14.056 -0.3592 -0.7224  0.1637
11004TIP3   OH254502   4.276   2.243  15.650 -0.6098  0.1705  0.0546
11004TIP3    H154503   4.285   2.263  15.744  0.2559  0.2228 -0.0311
11004TIP3    H254504   4.195   2.286  15.624  1.3033  3.8594 -0.1752
11005TIP3   OH254505   5.563   5.506  12.189 -0.3832  0.4062  0.0775
11005TIP3    H154506   5.571   5.599  12.208  2.2321  0.1103  0.5888
11005TIP3    H254507   5.607   5.463  12.262 -3.1943 -1.3393  0.8129
11006TIP3   OH254508   4.533   2.328  11.094 -0.1673  0.5559  0.4568
11006TIP3    H154509   4.542   2.310  11.000  1.2142  1.8249  0.3211
11006TIP3    H254510   4.457   2.386  11.100 -0.2761  0.4494  0.1225
11007TIP3   OH254511   3.037   6.819  11.498  0.0049 -0.0900 -0.0145
11007TIP3    H154512   2.947   6.843  11.520  0.5424  1.0364  0.9860
11007TIP3    H254513   3.041   6.725  11.515 -1.3357 -0.3948 -1.2875
11008TIP3   OH254514   5.531   0.783  13.643  0.1014  0.0102  0.4339
11008TIP3    H154515   5.484   0.700  13.652 -0.0807  0.0224 -0.3392
11008TIP3    H254516   5.463   0.850  13.644  0.0001 -0.0234 -1.5000
11009TIP3   OH254517   4.917   3.669  12.736  0.4949 -0.2843  0.1533
11009TIP3    H154518   4.875   3.712  12.661 -2.0052 -1.0204  1.1067
11009TIP3    H254519   4.929   3.738  12.800  0.6077 -0.1091 -0.0558
11010TIP3   OH254520   2.706   5.955  14.834  0.6543  0.0493 -0.2779
11010TIP3    H154521   2.635   5.896  14.860  1.7461  0.0370  2.9309
11010TIP3    H254522   2.780   5.928  14.889  2.5005  1.4948 -1.9978
11011TIP3   OH254523   0.312   2.011  15.774 -0.2278 -0.0900  0.4979
11011TIP3    H154524   0.298   1.982  15.864  0.0090  0.1494  0.6150
11011TIP3    H254525   0.337   1.932  15.727 -0.3294 -0.2118  0.6481
11012TIP3   OH254526   2.057   5.229  13.554 -0.4748 -0.2936 -0.1469
11012TIP3    H154527   2.028   5.202  13.466 -2.8676  2.7503 -0.4086
11012TIP3    H254528   2.078   5.322  13.544  2.5565 -0.7313  1.7825
11013TIP3   OH254529   3.759   5.309   1.602  0.1535  0.6633  0.4797
11013TIP3    H154530   3.785   5.290   1.693 -0.6493  0.0689  0.5899
11013TIP3    H254531   3.664   5.299   1.602  0.3345 -1.2284 -0.8839
11014TIP3   OH254532   0.336   5.315  12.681 -0.6253  0.2051 -0.2599
11014TIP3    H154533   0.358   5.222  12.676  3.7361  0.9077  2.8302
11014TIP3    H254534   0.406   5.359  12.633 -1.9763  2.0000 -0.6501
11015TIP3   OH254535   1.981   3.566   2.931  0.1709  0.0237 -0.6636
11015TIP3    H154536   2.017   3.516   3.005 -0.7060  0.1499 -0.1490
11015TIP3    H254537   1.911   3.618   2.969 -0.2532  0.1342 -1.5813
11016TIP3   OH254538   3.875   2.262  14.514 -0.5121  0.6436 -0.2967
11016TIP3    H154539   3.854   2.350  14.481 -0.6510  0.6930 -0.0742
11016TIP3    H254540   3.906   2.215  14.437 -1.7885  0.4552 -0.7170
11017TIP3   OH254541   6.242   4.994   2.355 -0.3320  0.1347  0.2483
11017TIP3    H154542   6.319   4.962   2.403 -0.4349 -1.4521 -0.6144
11017TIP3    H254543   6.189   4.916   2.341  0.1031  0.4138 -3.2417
11018TIP3   OH254544   0.387   1.451   5.950  0.2528 -0.1682 -0.1057
11018TIP3    H154545   0.351   1.368   5.921  1.8286 -0.4486 -1.3578
11018TIP3    H254546   0.376   1.510   5.875  1.3188  0.0511 -0.1092
11019TIP3   OH254547   4.693   3.058  15.233  0.1382 -0.2139 -0.3933
11019TIP3    H154548   4.696   2.979  15.179  2.0963  1.6775 -3.1985
11019TIP3    H254549   4.610   3.100  15.211 -0.6687 -1.1613  0.7254
11020TIP3   OH254550   2.892   1.955   0.830 -0.0031  0.5176 -0.4569
11020TIP3    H154551   2.972   1.956   0.778  0.5862  0.4439  0.4300
11020TIP3    H254552   2.917   1.909   0.910 -0.6112  1.5277  0.3210
11021TIP3   OH254553   6.342   1.710   4.378 -0.1420 -0.0080 -0.3569
11021TIP3    H154554   6.287   1.702   4.456 -1.4225 -1.6648 -1.3865
11021TIP3    H254555   6.383   1.624   4.369 -0.2400  0.0763 -1.6651
11022TIP3   OH254556   6.510   2.454  13.817 -0.3435 -0.0209 -0.3618
11022TIP3    H154557   6.442   2.424  13.757 -0.8264 -0.2737  0.2991
11022TIP3    H254558   6.494   2.548  13.826  0.3339  0.1895 -1.3870
11023TIP3   OH254559   5.892   6.015   1.020  0.3601  0.3347  0.0697
11023TIP3    H154560   5.826   6.009   0.951  0.6250  2.0010 -0.3368
11023TIP3    H254561   5.916   6.107   1.023  1.2443  0.0746  1.5618
11024TIP3   OH254562   3.593   2.010  12.847 -0.4912  0.3590  0.1474
11024TIP3    H154563   3.522   1.955  12.814 -1.4663  1.5238  0.2694
11024TIP3    H254564   3.660   1.948  12.875 -0.9059 -0.7120 -1.2131
11025TIP3   OH254565   0.437   1.552   4.622 -0.0736  0.3426  0.2962
11025TIP3    H154566   0.499   1.611   4.580 -0.2869  0.1192 -0.3416
11025TIP3    H254567   0.365   1.544   4.559 -0.6253  0.3951  0.9128
11026TIP3   OH254568   4.930   6.476   6.465  0.2151  0.5747  0.1504
11026TIP3    H154569   4.949   6.562   6.502  2.1516  0.5738 -0.7853
11026TIP3    H254570   4.935   6.489   6.371 -0.6870 -0.3054 -0.0229
11027TIP3   OH254571   2.168   1.137  16.588 -0.1799  0.6125  0.1716
11027TIP3    H154572   2.111   1.113  16.661 -0.6729  1.8525  0.2014
11027TIP3    H254573   2.245   1.177  16.628  0.4647 -0.5283  0.1009
11028TIP3   OH254574   3.135   0.339  13.044 -0.4618  0.1441  0.4798
11028TIP3    H154575   3.096   0.365  12.961 -0.4343  0.3808  0.5401
11028TIP3    H254576   3.221   0.305  13.021 -0.7713 -0.5654  0.3204
11029TIP3   OH254577   1.181   1.416   2.413 -0.4836  0.3080  0.4592
11029TIP3    H154578   1.163   1.344   2.474 -1.6871  1.4609  1.4861
11029TIP3    H254579   1.126   1.397   2.337  0.7714 -0.9553 -0.1547
11030TIP3   OH254580   2.870   1.839   5.678 -0.8182 -0.0111  0.0253
11030TIP3    H154581   2.888   1.885   5.760  0.0590  0.4968 -0.4378
11030TIP3    H254582   2.855   1.909   5.614 -1.3457 -0.3966 -0.2775
11031TIP3   OH254583   3.545   2.620  13.697  0.1887  0.4207  0.0880
11031TIP3    H154584   3.562   2.596  13.606  0.3501  1.6174 -0.1981
11031TIP3    H254585   3.560   2.539  13.746 -1.8560 -0.7543 -1.1569
11032TIP3   OH254586   1.007   3.464   4.898  0.0056  0.4912  0.9303
11032TIP3    H154587   1.025   3.554   4.924 -1.6765  1.5559 -1.3460
11032TIP3    H254588   1.091   3.420   4.903  0.9203  2.2672  1.7768
11033TIP3   OH254589   5.242   5.135   0.946 -0.3875  0.1631 -0.3040
11033TIP3    H154590   5.305   5.115   0.877 -1.0683 -0.1870 -0.8182
11033TIP3    H254591   5.163   5.087   0.922 -0.9770  0.8957  0.1493
11034TIP3   OH254592   1.131   0.434   3.897  0.5174 -0.4411 -0.0048
11034TIP3    H154593   1.089   0.434   3.811  1.1097  0.5381 -0.2995
11034TIP3    H254594   1.079   0.495   3.950 -0.1567 -1.4263  0.5045
11035TIP3   OH254595   2.857   5.922   0.306  0.0521  0.4978  0.0566
11035TIP3    H154596   2.905   5.843   0.333 -2.2657 -0.1649  2.3611
11035TIP3    H254597   2.913   5.994   0.334  1.2672 -0.2718 -0.3046
11036TIP3   OH254598   0.560   6.759   3.300  0.1800  0.7333  0.4608
11036TIP3    H154599   0.482   6.806   3.268  0.6619  0.8173 -0.6141
11036TIP3    H254600   0.526   6.676   3.334 -0.3150  0.5525 -0.4710
11037TIP3   OH254601   0.741   2.305  11.295  0.2490  0.4021  0.1253
11037TIP3    H154602   0.706   2.393  11.279  0.5711  0.6192  0.5973
11037TIP3    H254603   0.778   2.310  11.383  0.0831 -0.2662  0.2350
11038TIP3   OH254604   6.345   6.814   6.540  0.3387  0.3726  0.1573
11038TIP3    H154605   6.380   6.889   6.493 -0.3482  0.8491  0.3980
11038TIP3    H254606   6.262   6.845   6.576 -1.4897 -1.4240 -2.3487
11039TIP3   OH254607   2.293   3.451  17.255  0.1236 -0.1518 -0.0550
11039TIP3    H154608   2.335   3.470  17.338 -2.7324  2.0344  0.9835
11039TIP3    H254609   2.356   3.480  17.189  1.9876 -0.9769  1.3042
11040TIP3   OH254610   1.270   1.048   1.719  0.6117 -0.3901 -0.6038
11040TIP3    H154611   1.352   1.026   1.675  0.5538  0.0090 -0.9130
11040TIP3    H254612   1.279   1.140   1.743  0.7665 -0.6835  0.5011
11041TIP3   OH254613   1.335   3.676   4.074  0.0667  0.5113 -0.8261
11041TIP3    H154614   1.309   3.697   4.164 -1.1563  0.6371 -1.1871
11041TIP3    H254615   1.274   3.727   4.019  2.0499  1.9760 -1.7420
11042TIP3   OH254616   5.802   1.172  15.896  0.8373 -0.1410 -0.5990
11042TIP3    H154617   5.737   1.214  15.840 -1.1985 -1.2488  0.8727
11042TIP3    H254618   5.843   1.244  15.944 -2.2755  0.2800  1.5567
11043TIP3   OH254619   1.668   2.304   4.200 -0.0562 -0.1338  0.7397
11043TIP3    H154620   1.760   2.277   4.195  0.2048  0.9920 -0.6815
11043TIP3    H254621   1.620   2.230   4.161  0.4205  0.1891 -0.4737
11044TIP3   OH254622   1.457   3.056  13.617 -0.4928  0.1355  0.3213
11044TIP3    H154623   1.408   2.981  13.651  0.7788 -0.0803  1.7359
11044TIP3    H254624   1.405   3.132  13.644 -1.2166 -0.1831 -0.1622
11045TIP3   OH254625   5.507   5.571  10.391 -0.6572 -0.0481  0.2369
11045TIP3    H154626   5.531   5.483  10.418  1.9285 -0.3651 -2.7450
11045TIP3    H254627   5.446   5.558  10.318 -0.5296  0.5903  0.0109
11046TIP3   OH254628   1.392   6.521  14.211 -0.3456  0.2898 -0.2449
11046TIP3    H154629   1.308   6.477  14.221 -0.0140 -0.5868 -1.2185
11046TIP3    H254630   1.387   6.595  14.271 -1.3998 -0.3487  0.4817
11047TIP3   OH254631   3.741   0.493   2.152 -0.0628  0.0182 -0.5046
11047TIP3    H154632   3.813   0.519   2.210 -0.1259 -1.2018  0.1307
11047TIP3    H254633   3.763   0.404   2.125 -0.3324  0.3669 -1.9166
11048TIP3   OH254634   5.687   2.125   0.854 -0.0958  0.2621  0.4816
11048TIP3    H154635   5.705   2.032   0.840 -0.5635  0.4876 -1.9355
11048TIP3    H254636   5.632   2.128   0.932  1.3798 -1.3140  1.6147
11049TIP3   OH254637   6.656   0.188  14.038 -0.5240  0.7631 -0.4223
11049TIP3    H154638   6.717   0.114  14.032 -2.1809 -0.6837  0.2136
11049TIP3    H254639   6.712   0.262  14.060  0.8287 -0.8565  1.8498
11050TIP3   OH254640   2.994   5.871  13.028 -0.1861  0.3289 -0.0192
11050TIP3    H154641   3.063   5.907  13.083  1.4657  1.0719 -2.4861
11050TIP3    H254642   2.963   5.945  12.976 -1.6328 -0.3723 -0.1889
11051TIP3   OH254643   4.613   6.081   3.691 -0.1956  0.5086  0.1853
11051TIP3    H154644   4.630   6.124   3.608 -3.1638  3.6969  1.0951
11051TIP3    H254645   4.680   6.115   3.751 -0.7177  1.5805  0.1621
11052TIP3   OH254646   5.336   6.368  11.979 -0.5286  0.5745  0.9284
11052TIP3    H154647   5.422   6.341  11.948 -0.4699  0.0880  1.5147
11052TIP3    H254648   5.295   6.410  11.903 -0.2864 -0.3877  0.2587
11053TIP3   OH254649   2.122   3.822  12.061 -0.1867 -1.1455 -0.1386
11053TIP3    H154650   2.118   3.822  12.156 -1.3079 -1.2833 -0.1819
11053TIP3    H254651   2.037   3.855  12.033  0.5376 -0.0275 -1.0842
11054TIP3   OH254652   1.221   1.239   3.692 -0.3048  0.6828  0.3605
11054TIP3    H154653   1.258   1.173   3.749 -0.2724  0.1983 -0.2161
11054TIP3    H254654   1.293   1.300   3.675 -0.3210  0.8391  0.8425
11055TIP3   OH254655   1.564   5.958   6.468 -0.6512  0.0577  0.0020
11055TIP3    H154656   1.633   5.966   6.403 -0.9825  1.0822 -0.2350
11055TIP3    H254657   1.591   5.885   6.524  1.0047  0.9654  0.3934
11056TIP3   OH254658   5.678   0.142   4.590  0.2903  0.5260 -0.0533
11056TIP3    H154659   5.673   0.061   4.640 -0.9206 -1.0334 -2.6206
11056TIP3    H254660   5.606   0.196   4.624  0.3478  0.0468  0.8307
11057TIP3   OH254661   0.006   0.109   0.369 -0.0153 -0.3429 -0.6629
11057TIP3    H154662   0.050   0.080   0.449 -0.9674  1.3042  0.5043
11057TIP3    H254663  -0.023   0.028   0.327 -0.0869 -1.2260  1.0241
11058TIP3   OH254664   4.867   0.433  12.839  0.0537 -0.0474 -0.0028
11058TIP3    H154665   4.774   0.422  12.823 -0.1746  0.9526  0.5759
11058TIP3    H254666   4.873   0.514  12.891  0.9442 -1.8644  2.8444
11059TIP3   OH254667   0.247   3.383   2.117  0.2538 -0.0142 -0.4949
11059TIP3    H154668   0.268   3.425   2.201  1.2074 -1.3573 -0.0536
11059TIP3    H254669   0.222   3.294   2.141  1.1586 -0.6005 -1.7036
11060TIP3   OH254670   4.877   1.590   3.390 -0.5978  0.4648 -0.4272
11060TIP3    H154671   4.796   1.548   3.419  0.4011 -0.9566  0.3295
11060TIP3    H254672   4.917   1.623   3.469  0.0772  0.2565 -0.6818
11061TIP3   OH254673   2.729   4.390   2.492  0.1076 -0.0168  0.4282
11061TIP3    H154674   2.778   4.308   2.479  2.7602  1.8589 -2.1535
11061TIP3    H254675   2.681   4.402   2.411  1.1952  1.8775  0.0367
11062TIP3   OH254676   3.616   2.784   4.156  0.8990 -0.0476 -0.2304
11062TIP3    H154677   3.582   2.695   4.163 -1.4998  0.9518  1.3692
11062TIP3    H254678   3.681   2.791   4.226 -2.5071  0.9716  2.9348
11063TIP3   OH254679   2.233   4.102  11.166  0.1415  0.3264  0.7219
11063TIP3    H154680   2.328   4.096  11.154  0.1802  1.7856  0.1381
11063TIP3    H254681   2.213   4.193  11.145 -1.6082 -0.3602 -0.6269
11064TIP3   OH254682   4.170   5.723  15.824 -0.0260  0.7277  0.2438
11064TIP3    H154683   4.237   5.655  15.817  0.2610  1.0369 -0.0381
11064TIP3    H254684   4.200   5.793  15.766 -1.1730  0.3842 -0.7950
11065TIP3   OH254685   2.449   4.608   5.535  0.3714 -0.4721  0.0197
11065TIP3    H154686   2.481   4.621   5.446  1.1132  0.4072  0.4037
11065TIP3    H254687   2.366   4.657   5.538  1.1518  0.8404  0.2817
11066TIP3   OH254688   4.763   4.575   1.909 -0.1788  0.2828  0.2181
11066TIP3    H154689   4.829   4.506   1.913 -0.4802 -0.0131  0.1880
11066TIP3    H254690   4.705   4.557   1.983 -1.6586 -0.9709 -1.1921
11067TIP3   OH254691   3.250   5.748   1.498 -0.0616  0.3671  0.1522
11067TIP3    H154692   3.318   5.745   1.566  2.8915 -1.5909 -2.7711
11067TIP3    H254693   3.212   5.836   1.507  2.7167  1.4720  1.9862
11068TIP3   OH254694   6.400   3.244   5.901 -0.4564  0.0409 -0.2337
11068TIP3    H154695   6.367   3.285   5.981 -2.0425 -1.6307 -0.0077
11068TIP3    H254696   6.370   3.302   5.831 -1.2534  0.1652  0.1980
11069TIP3   OH254697   3.245   6.363   5.608 -0.0912  0.0036  0.6028
11069TIP3    H154698   3.226   6.447   5.650  1.9059  0.7257  0.0861
11069TIP3    H254699   3.243   6.383   5.514 -0.7967 -0.8022  0.4402
11070TIP3   OH254700   1.968   2.326   6.360 -0.6700 -0.8513 -0.4879
11070TIP3    H154701   2.057   2.329   6.325 -0.7819 -0.4653 -0.7383
11070TIP3    H254702   1.947   2.232   6.364 -1.2411 -0.8512 -2.9344
11071TIP3   OH254703   1.236   6.237  16.660 -0.3734  0.4976  0.1408
11071TIP3    H154704   1.227   6.332  16.670 -2.2149  0.1644  1.9897
11071TIP3    H254705   1.196   6.201  16.739 -0.4096 -1.8546 -0.9184
11072TIP3   OH254706   4.831   3.903  16.901  0.1933  0.2008  0.0166
11072TIP3    H154707   4.851   3.988  16.940  3.2861 -1.0369  1.3357
11072TIP3    H254708   4.740   3.886  16.924 -0.4546  3.1254 -0.2521
11073TIP3   OH254709   2.413   1.508  12.373 -0.0709 -0.7632 -0.4660
11073TIP3    H154710   2.367   1.530  12.454  0.0372  0.8174 -0.8168
11073TIP3    H254711   2.391   1.417  12.356 -0.2732 -1.0349  1.2301
11074TIP3   OH254712   2.361   3.609  16.915 -0.1522  0.7033 -0.4640
11074TIP3    H154713   2.374   3.700  16.886  1.7979  0.3914 -0.6210
11074TIP3    H254714   2.266   3.597  16.911 -0.4300  2.6685 -0.6530
11075TIP3   OH254715   1.800   5.479  12.505  0.0489 -0.3126  0.5473
11075TIP3    H154716   1.825   5.555  12.558 -1.9392  1.8233 -1.4561
11075TIP3    H254717   1.878   5.459  12.454  0.3246  0.9378  0.4662
11076TIP3   OH254718   3.350   0.819  12.454  0.1506 -0.1004 -0.3258
11076TIP3    H154719   3.335   0.828  12.548  0.9813  1.4155 -0.3212
11076TIP3    H254720   3.432   0.770  12.448  1.0940  1.4494 -0.2328
11077TIP3   OH254721   6.784   5.487  15.913  0.6443 -0.3164  0.0758
11077TIP3    H154722   6.705   5.481  15.859  1.5237 -1.2776 -1.1552
11077TIP3    H254723   6.856   5.480  15.850  1.7161  0.6780  1.1647
11078TIP3   OH254724   3.255   2.030  16.844  0.1032  0.3454 -0.0096
11078TIP3    H154725   3.312   2.063  16.914  0.8606  0.3548 -0.6121
11078TIP3    H254726   3.171   2.014  16.886  0.2960  1.1822  0.7144
11079TIP3   OH254727   1.602   2.120  14.339 -0.5207  0.3821 -0.6536
11079TIP3    H154728   1.551   2.163  14.407  1.2309 -0.3126  1.1533
11079TIP3    H254729   1.576   2.028  14.344  1.9745 -0.2638  1.3478
11080TIP3   OH254730   4.356   3.782   2.547 -0.1310  0.0436 -0.2077
11080TIP3    H154731   4.408   3.859   2.567 -0.6749  0.9147 -2.0393
11080TIP3    H254732   4.265   3.810   2.558 -0.3746 -0.0023 -1.9121
11081TIP3   OH254733   0.193   4.820   5.250 -0.4514  0.1114 -0.7019
11081TIP3    H154734   0.241   4.821   5.333  1.0159 -0.5468 -1.5211
11081TIP3    H254735   0.261   4.809   5.183 -1.5546  1.1972 -2.0356
11082TIP3   OH254736   2.708   3.655  11.775  0.6608  0.1592 -0.3341
11082TIP3    H154737   2.755   3.590  11.723  0.0907 -1.1632  0.7733
11082TIP3    H254738   2.630   3.609  11.806  0.3983  1.2877  0.7213
11083TIP3   OH254739   3.938   3.047   3.672 -0.1069 -0.5252 -0.2892
11083TIP3    H154740   3.906   3.085   3.590  2.4784  0.4970 -0.9033
11083TIP3    H254741   3.878   2.976   3.692  0.0868 -1.7956 -3.9102
11084TIP3   OH254742   5.390   3.268   2.634  0.2648  0.0998  0.4608
11084TIP3    H154743   5.311   3.225   2.600 -0.3703  1.0535  0.7011
11084TIP3    H254744   5.400   3.234   2.723 -0.6835  1.0183  0.9321
11085TIP3   OH254745   2.134   4.403   5.564 -0.2803 -0.1563  0.1747
11085TIP3    H154746   2.177   4.485   5.589  0.2984  0.0058 -1.3231
11085TIP3    H254747   2.077   4.427   5.491  1.0892 -1.3672 -1.3222
11086TIP3   OH254748   3.652   1.304   4.778 -0.2476 -0.2556 -0.0390
11086TIP3    H154749   3.662   1.307   4.682  4.4949 -0.9289  0.2973
11086TIP3    H254750   3.602   1.224   4.794 -0.9087 -0.2586 -1.9439
11087TIP3   OH254751   0.072   5.444  14.400 -0.3542  0.2498 -0.0977
11087TIP3    H154752   0.083   5.425  14.307 -0.1945  2.4010 -0.5364
11087TIP3    H254753   0.156   5.418  14.439 -0.9002 -1.9266 -0.3198
11088TIP3   OH254754   6.686   6.340  11.985 -0.1028  0.0195  0.2556
11088TIP3    H154755   6.737   6.415  12.016  0.1119  0.2572 -0.6646
11088TIP3    H254756   6.738   6.264  12.009 -1.5478  0.0149  3.5480
11089TIP3   OH254757   2.888   0.794  14.015 -0.6763  0.4385 -0.0350
11089TIP3    H154758   2.846   0.843  13.945 -1.9216 -1.9133 -1.0048
11089TIP3    H254759   2.838   0.816  14.093  1.7478  4.3683  0.5344
11090TIP3   OH254760   1.912   2.005   1.861 -0.1028  0.4548  0.2386
11090TIP3    H154761   1.953   1.924   1.832 -0.0009  0.3547  0.6550
11090TIP3    H254762   1.820   1.997   1.835  0.2736  0.9592 -1.2783
11091TIP3   OH254763   5.259   1.032  16.165  0.1195  0.2724 -0.3698
11091TIP3    H154764   5.263   1.127  16.155  1.2216  0.1871 -0.8162
11091TIP3    H254765   5.312   0.999  16.093  0.6880 -0.6503  0.4642
11092TIP3   OH254766   3.399   5.601  13.730 -0.5998 -0.4597  0.5926
11092TIP3    H154767   3.342   5.525  13.712 -0.9921 -0.2801  1.0481
11092TIP3    H254768   3.341   5.664  13.772 -0.1144 -0.1731  0.8350
11093TIP3   OH254769   0.457   1.776  13.418 -0.2773  0.5104  0.0761
11093TIP3    H154770   0.478   1.769  13.511  2.0777  3.1154 -0.2279
11093TIP3    H254771   0.368   1.811  13.417  0.0920  1.5321  1.3587
11094TIP3   OH254772   0.299   6.615   0.388  0.3422 -0.0383 -0.0386
11094TIP3    H154773   0.369   6.666   0.429  1.1964 -1.0949 -0.1426
11094TIP3    H254774   0.336   6.527   0.380 -0.1595 -0.0849 -2.1553
11095TIP3   OH254775   3.630   5.642   2.986 -0.2294  0.5967  0.0360
11095TIP3    H154776   3.560   5.693   3.026  1.1653  3.0609 -0.5506
11095TIP3    H254777   3.705   5.702   2.983  1.0341 -0.9926 -2.0637
11096TIP3   OH254778   3.413   0.057   5.361  0.1159 -0.4151 -0.1276
11096TIP3    H154779   3.483   0.066   5.297 -1.0910 -1.1966 -1.5874
11096TIP3    H254780   3.335   0.036   5.309 -0.4436 -3.3452  1.7700
11097TIP3   OH254781   4.053   0.140   5.744 -0.1672  0.4857  0.5520
11097TIP3    H154782   4.031   0.233   5.733 -1.4676  0.2715  1.2567
11097TIP3    H254783   3.993   0.109   5.812  0.7983 -0.6835  0.8836
11098TIP3   OH254784   3.196   1.393   2.350  0.3696 -0.4018  0.1392
11098TIP3    H154785   3.211   1.488   2.354  0.7369 -0.4956  1.2860
11098TIP3    H254786   3.257   1.362   2.284 -1.4296  0.4606 -2.0143
11099TIP3   OH254787   1.755   5.638   0.361  0.2380  0.3606 -0.2547
11099TIP3    H154788   1.699   5.583   0.415  1.0949  1.0612  1.3572
11099TIP3    H254789   1.719   5.628   0.272 -0.7475 -1.3291  0.3070
11100TIP3   OH254790   0.345   0.549   3.457 -0.1624 -0.0384  0.0127
11100TIP3    H154791   0.346   0.643   3.472 -1.1786 -0.2153  1.3387
11100TIP3    H254792   0.337   0.539   3.362 -0.6855  1.2175 -0.0859
11101TIP3   OH254793   3.627   2.113   3.851 -0.0358 -0.3046  0.0139
11101TIP3    H154794   3.673   2.133   3.770 -0.1459  0.3571  0.1107
11101TIP3    H254795   3.687   2.057   3.900  0.9926  1.1395  0.4465
11102TIP3   OH254796   1.493   5.079  15.228  0.7159 -0.2979 -0.1657
11102TIP3    H154797   1.425   5.146  15.239 -0.1042 -1.3146  1.0760
11102TIP3    H254798   1.524   5.091  15.138  1.4561  2.5486  0.4094
11103TIP3   OH254799   5.400   6.762  10.894  0.0293  0.2422 -0.3704
11103TIP3    H154800   5.337   6.823  10.931 -0.8218 -1.6924  1.5372
11103TIP3    H254801   5.347   6.698  10.846  0.6222 -0.6517  0.1397
11104TIP3   OH254802   4.537   5.813  15.063 -0.7690 -0.1383  0.4329
11104TIP3    H154803   4.531   5.746  14.995  0.7833 -0.5813  0.7123
11104TIP3    H254804   4.517   5.895  15.018 -0.9118 -0.5746 -0.3047
11105TIP3   OH254805   3.386   3.613  11.011  0.0797 -0.2177 -0.0259
11105TIP3    H154806   3.455   3.574  10.956  1.8226  1.3239  1.0341
11105TIP3    H254807   3.356   3.689  10.962  0.2459  0.0251  0.2507
11106TIP3   OH254808   1.190   6.583  13.366  0.1378  0.0945  0.4266
11106TIP3    H154809   1.213   6.676  13.359 -0.8261  0.3705  0.8354
11106TIP3    H254810   1.102   6.577  13.328  0.1333 -0.6153  0.5523
11107TIP3   OH254811   3.710   0.909  16.068  0.2333  0.2786  0.2648
11107TIP3    H154812   3.634   0.861  16.102  1.3024 -1.2780  0.5333
11107TIP3    H254813   3.695   0.914  15.974 -1.2284  1.8807  0.5509
11108TIP3   OH254814   5.627   3.421   0.744  0.0345 -0.2078  0.8351
11108TIP3    H154815   5.660   3.487   0.682  2.5335  0.0212  2.3407
11108TIP3    H254816   5.632   3.339   0.696 -0.8771  0.3456 -0.2505
11109TIP3   OH254817   5.289   6.223  11.434  0.2851  0.1664 -0.0650
11109TIP3    H154818   5.299   6.187  11.345 -0.6475  0.3043 -0.2302
11109TIP3    H254819   5.376   6.257  11.455  0.2841  0.9855 -1.3049
11110TIP3   OH254820   2.663   6.426   0.256 -0.2053  0.6893 -0.4064
11110TIP3    H154821   2.633   6.465   0.338  0.4705 -2.4539  1.4029
11110TIP3    H254822   2.609   6.348   0.245  2.8039 -1.4366 -0.5165
11111TIP3   OH254823   3.864   2.673   3.576  0.0167  0.1187 -0.0587
11111TIP3    H154824   3.928   2.685   3.506  1.1522 -1.0792  0.7505
11111TIP3    H254825   3.834   2.583   3.566 -0.0511  0.0410  0.7832
11112TIP3   OH254826   0.977   2.856   3.007 -0.2082 -0.3657 -0.3130
11112TIP3    H154827   1.033   2.779   3.016 -1.0128 -0.9994 -0.7287
11112TIP3    H254828   0.970   2.890   3.096 -2.0160 -2.3106  0.3188
11113TIP3   OH254829   1.218   5.200   2.281 -0.3029 -0.0404 -0.2019
11113TIP3    H154830   1.127   5.173   2.289 -0.3303  0.0995 -0.0292
11113TIP3    H254831   1.264   5.123   2.249 -0.4973 -0.0854 -0.3746
11114TIP3   OH254832   1.816   4.955   5.277  0.3314  0.0221 -0.0935
11114TIP3    H154833   1.861   4.887   5.226  1.0642  0.1623  0.3624
11114TIP3    H254834   1.877   4.976   5.347  0.0490  1.0724 -0.1641
11115TIP3   OH254835   4.268   5.205  13.303  0.7533 -0.6324  0.1100
11115TIP3    H154836   4.174   5.214  13.319  1.1479 -0.4297  2.6089
11115TIP3    H254837   4.274   5.172  13.214 -1.6845 -0.5347 -0.1406
11116TIP3   OH254838   4.344   5.019  16.101 -0.5090 -0.8884  0.2173
11116TIP3    H154839   4.385   4.933  16.101 -2.4877 -1.8711  1.2659
11116TIP3    H254840   4.309   5.028  16.012  0.9949 -0.5067 -0.3491
11117TIP3   OH254841   5.368   3.311   1.644  1.1572  0.0977  0.1711
11117TIP3    H154842   5.394   3.320   1.552  1.1090 -0.3410  0.1155
11117TIP3    H254843   5.373   3.401   1.678  1.8919  0.1560 -0.0653
11118TIP3   OH254844   5.725   6.790  16.094  1.0830  0.3835 -0.2173
11118TIP3    H154845   5.796   6.850  16.116  0.8172  0.4354  0.5201
11118TIP3    H254846   5.676   6.780  16.176  0.5660 -0.0842 -0.5788
11119TIP3   OH254847   3.270   0.480   3.399 -0.3073 -0.0430  0.3249
11119TIP3    H154848   3.330   0.478   3.473 -2.9568 -0.4612  2.5471
11119TIP3    H254849   3.264   0.573   3.376 -0.4783  0.2442  1.4988
11120TIP3   OH254850   4.311   3.716   5.457 -0.0984  0.6031 -0.5858
11120TIP3    H154851   4.309   3.637   5.403 -0.9132  0.1208  0.1234
11120TIP3    H254852   4.326   3.787   5.396  0.5005 -0.0908 -1.2577
11121TIP3   OH254853   6.611   1.514  14.261 -0.8858 -0.0417 -0.2729
11121TIP3    H154854   6.658   1.479  14.185 -1.9586 -0.4182 -0.7811
11121TIP3    H254855   6.621   1.609  14.255 -1.6185 -0.0242 -1.3317
11122TIP3   OH254856   1.631   1.753   6.286  0.6454  0.6468 -0.3887
11122TIP3    H154857   1.618   1.674   6.235 -1.0227  1.0493 -0.6073
11122TIP3    H254858   1.710   1.793   6.250 -0.6719  1.0969 -2.8821
11123TIP3   OH254859   3.354   3.411  12.877 -0.1318 -0.0074 -0.0635
11123TIP3    H154860   3.449   3.417  12.869 -0.1137  0.5738  0.5747
11123TIP3    H254861   3.330   3.482  12.936 -0.7370 -1.4954  1.5254
11124TIP3   OH254862   1.357   3.886   0.559 -0.2457 -0.1806 -0.3953
11124TIP3    H154863   1.319   3.955   0.614  2.6833  2.1313 -1.1572
11124TIP3    H254864   1.400   3.827   0.621 -1.8240 -0.7588  0.1760
11125TIP3   OH254865   6.031   6.586   4.884 -0.5527  0.1175  0.1026
11125TIP3    H154866   6.035   6.533   4.805 -0.4695  0.0929  0.1229
11125TIP3    H254867   6.056   6.674   4.856 -0.6304  0.1322  0.0803
11126TIP3   OH254868   0.482   1.108   0.001 -0.3689 -0.5611 -0.4822
11126TIP3    H154869   0.405   1.148   0.041  0.0692  0.2232 -0.4211
11126TIP3    H254870   0.510   1.041   0.064 -0.8857 -0.7250 -0.4223
11127TIP3   OH254871   4.067   3.977  11.486  0.2069  0.2475  0.2757
11127TIP3    H154872   4.149   3.945  11.449 -0.0322 -1.1305  0.8913
11127TIP3    H254873   4.010   3.990  11.411  0.4507 -0.3594 -0.0134
11128TIP3   OH254874   0.061   3.974  16.861 -0.5197  0.0802  0.6068
11128TIP3    H154875   0.077   4.047  16.801 -0.1908 -0.5395 -0.0722
11128TIP3    H254876  -0.026   3.943  16.838 -1.2164  1.1153  1.8157
11129TIP3   OH254877   5.972   0.164  11.221 -0.0733  0.2610  0.0584
11129TIP3    H154878   5.877   0.174  11.219 -0.0133  1.5252  2.0359
11129TIP3    H254879   5.987   0.086  11.273  0.0005  1.2481  1.5571
11130TIP3   OH254880   0.308   5.552   4.546  0.0144  0.6095  0.1671
11130TIP3    H154881   0.295   5.497   4.468  0.0482  1.2474 -0.2935
11130TIP3    H254882   0.276   5.498   4.619 -0.6762  0.2727 -0.3700
11131TIP3   OH254883   1.369   2.838   4.470 -0.2192 -0.0315  0.0173
11131TIP3    H154884   1.404   2.911   4.419  0.4845 -0.4675 -0.1164
11131TIP3    H254885   1.413   2.844   4.554 -1.8414  1.0699  0.8301
11132TIP3   OH254886   2.107   1.354  15.947 -0.4039  0.2357 -0.4851
11132TIP3    H154887   2.033   1.405  15.915 -0.1437  0.4737 -0.7061
11132TIP3    H254888   2.122   1.387  16.036 -1.2725 -0.5860 -0.0116
11133TIP3   OH254889   0.071   2.847  13.130 -0.3916 -0.0842 -0.0170
11133TIP3    H154890   0.002   2.912  13.134  0.6215  1.0410 -0.4927
11133TIP3    H254891   0.061   2.807  13.044 -1.7072 -1.3626  0.7033
11134TIP3   OH254892   0.247   1.413   3.369  0.2083 -0.1569 -0.2570
11134TIP3    H154893   0.209   1.397   3.455  1.6068 -3.2754 -0.1640
11134TIP3    H254894   0.339   1.389   3.378  0.2533 -1.1287 -2.7692
11135TIP3   OH254895   0.851   5.959  16.061  0.0813 -0.4717 -0.2374
11135TIP3    H154896   0.925   5.942  16.004  0.4867  0.2982  0.0580
11135TIP3    H254897   0.886   5.944  16.150 -0.6788 -2.1851 -0.2016
11136TIP3   OH254898   0.288   5.246  15.714 -0.2384  0.4168  0.4835
11136TIP3    H154899   0.285   5.282  15.802 -0.2592  2.3943 -0.3191
11136TIP3    H254900   0.221   5.293  15.665 -0.1233 -0.5470 -0.6507
11137TIP3   OH254901   0.125   5.135   2.312  0.0609 -0.3125 -0.2382
11137TIP3    H154902   0.208   5.140   2.265  0.6838 -2.1791  0.6134
11137TIP3    H254903   0.126   5.211   2.370  0.7946  0.1463 -0.8424
11138TIP3   OH254904   5.686   4.535  13.308 -0.4920  0.4688  0.7702
11138TIP3    H154905   5.772   4.575  13.321 -0.2292 -0.8434  3.2664
11138TIP3    H254906   5.656   4.513  13.396 -1.0786 -3.8712 -0.4010
11139TIP3   OH254907   4.236   2.459   6.656  0.4260  0.4782  0.6045
11139TIP3    H154908   4.171   2.472   6.725 -0.0758 -1.4832  0.5334
11139TIP3    H254909   4.218   2.371   6.622 -0.2616  1.9587 -3.0189
11140TIP3   OH254910   0.603   0.639   0.035  0.3125 -0.1467 -0.2497
11140TIP3    H154911   0.589   0.712  -0.025  2.1131  0.3465 -0.1163
11140TIP3    H254912   0.600   0.561  -0.020  2.1174  0.3103 -1.0547
11141TIP3   OH254913   5.586   4.962   0.040 -0.9139  0.1010  0.1262
11141TIP3    H154914   5.617   4.895  -0.021 -0.1837 -0.3428  0.9520
11141TIP3    H254915   5.538   4.912   0.107  0.7909  0.1993  1.4872
11142TIP3   OH254916   3.378   1.062   5.834  0.3997  0.1500  0.6247
11142TIP3    H154917   3.469   1.068   5.863  0.2304  0.9171  0.9963
11142TIP3    H254918   3.377   1.108   5.750 -0.1558  2.2993  1.7906
11143TIP3   OH254919   4.666   4.122  12.822  0.0723 -0.0937 -0.1239
11143TIP3    H154920   4.657   4.192  12.888  2.1050  2.6006 -2.5572
11143TIP3    H254921   4.717   4.055  12.866 -1.9468 -0.1232  2.3048
11144TIP3   OH254922   3.380   3.350  14.769 -0.1502  0.4281  0.7904
11144TIP3    H154923   3.339   3.312  14.691 -1.3790  1.1908  1.0685
11144TIP3    H254924   3.339   3.435  14.779  2.2734  1.6853  0.4442
11145TIP3   OH254925   1.869   1.462   3.505 -0.1541 -0.8482  0.4377
11145TIP3    H154926   1.825   1.454   3.420  0.7519 -1.0967 -0.0078
11145TIP3    H254927   1.959   1.435   3.488  1.4572  4.0989  0.2589
11146TIP3   OH254928   5.263   5.274  13.283  0.3885  0.1265  0.1843
11146TIP3    H154929   5.275   5.212  13.356 -0.4236  0.2332  0.4211
11146TIP3    H254930   5.276   5.360  13.323  2.7499  0.0643 -0.4124
11147TIP3   OH254931   5.021   0.472   0.887 -0.3668 -0.1652  0.4599
11147TIP3    H154932   4.994   0.556   0.851 -0.5219  0.5940  2.2638
11147TIP3    H254933   5.116   0.481   0.899  0.3707 -1.8656 -3.3978
11148TIP3   OH254934   1.741   4.719  14.590 -0.4994  0.6312 -0.0132
11148TIP3    H154935   1.745   4.693  14.683 -0.9763  1.6340  0.2873
11148TIP3    H254936   1.685   4.796  14.589 -3.4388 -1.4655 -1.6193
11149TIP3   OH254937   4.378   1.929  13.902 -0.1728  0.1861  0.7312
11149TIP3    H154938   4.374   2.025  13.904  0.7342  0.2984 -1.2619
11149TIP3    H254939   4.376   1.903  13.994 -0.1482  2.1381  1.3112
11150TIP3   OH254940   1.513   6.407  16.737 -0.1668 -0.4061 -0.0135
11150TIP3    H154941   1.529   6.314  16.753 -0.8755 -0.4504  0.4423
11150TIP3    H254942   1.601   6.444  16.727  0.0686 -1.5639 -2.8113
11151TIP3   OH254943   0.260   1.662   5.206  0.0707  0.6030  0.3433
11151TIP3    H154944   0.334   1.602   5.204  1.0931  1.8335  0.5334
11151TIP3    H254945   0.291   1.737   5.258 -1.0422  1.4674 -0.2183
11152TIP3   OH254946   1.852   1.857   1.256 -0.2920 -0.0843 -0.9495
11152TIP3    H154947   1.831   1.902   1.338  1.8629 -0.9637  0.1196
11152TIP3    H254948   1.777   1.801   1.240 -1.3801  1.1699 -0.3611
11153TIP3   OH254949   5.773   3.263  12.575  0.0677  0.2653  0.5850
11153TIP3    H154950   5.728   3.252  12.659 -0.3929  1.8715  0.5540
11153TIP3    H254951   5.740   3.191  12.521 -2.3518  1.3153  0.6151
11154TIP3   OH254952   2.995   4.238   4.436  0.0572 -0.4540 -0.4789
11154TIP3    H154953   2.968   4.166   4.379  0.3071 -1.1712  0.2941
11154TIP3    H254954   3.083   4.262   4.405  0.2269 -0.8972 -0.3382
11155TIP3   OH254955   5.169   2.774   0.046  0.1968  0.2798  0.0913
11155TIP3    H154956   5.166   2.818  -0.039  0.5017 -2.0152 -1.1229
11155TIP3    H254957   5.250   2.807   0.086  0.1320  1.2602 -0.5503
11156TIP3   OH254958   3.572   1.923   2.898  0.1744 -0.0269 -0.5496
11156TIP3    H154959   3.482   1.942   2.924 -0.2951 -2.0329 -0.6077
11156TIP3    H254960   3.587   1.979   2.821 -1.1835  0.0057 -0.8054
11157TIP3   OH254961   0.411   3.049   5.640  0.1593  0.3763  0.0978
11157TIP3    H154962   0.327   3.061   5.685  0.7503  0.5520  1.1583
11157TIP3    H254963   0.417   2.955   5.625 -0.9495  0.5278 -1.3942
11158TIP3   OH254964   4.653   3.671  16.265  0.0484 -0.3595  0.0131
11158TIP3    H154965   4.706   3.657  16.343  1.4837  0.2074 -0.8523
11158TIP3    H254966   4.641   3.583  16.228 -0.4598 -0.6038  0.7369
11159TIP3   OH254967   4.954   1.805  14.562  0.0457 -0.9365 -0.0770
11159TIP3    H154968   5.021   1.742  14.538 -0.0322 -1.0380 -0.0324
11159TIP3    H254969   4.880   1.784  14.505 -0.8613 -2.4694  1.5771
11160TIP3   OH254970   1.650   6.595  12.981 -0.0266 -0.6349  0.2764
11160TIP3    H154971   1.588   6.568  13.049 -1.0882 -2.8915 -1.5268
11160TIP3    H254972   1.689   6.514  12.950  0.3440  0.3394 -1.9160
11161TIP3   OH254973   1.636   5.292   0.119 -0.4648  0.1473  0.5849
11161TIP3    H154974   1.544   5.313   0.138 -0.5402  0.2126  0.1557
11161TIP3    H254975   1.635   5.264   0.028  0.2188  1.7822  0.0618
11162TIP3   OH254976   2.631   3.115   0.177  0.6201 -0.5132 -0.4082
11162TIP3    H154977   2.556   3.105   0.235  0.0645 -3.8715 -1.5528
11162TIP3    H254978   2.694   3.165   0.227 -1.8163  1.1404  1.1250
11163TIP3   OH254979   2.249   3.786   4.236 -0.2108  0.3774  0.3338
11163TIP3    H154980   2.278   3.708   4.284 -1.2213  1.2194  2.3699
11163TIP3    H254981   2.328   3.840   4.229  0.1704 -0.1934  0.1543
11164TIP3   OH254982   2.713   2.877  13.631  0.2821 -0.1651 -0.6914
11164TIP3    H154983   2.717   2.782  13.641  0.7805 -0.1270 -0.5077
11164TIP3    H254984   2.772   2.896  13.559 -0.0966 -0.0285 -0.9655
11165TIP3   OH254985   5.734   6.764  13.274  0.2439  0.0637 -0.0783
11165TIP3    H154986   5.674   6.690  13.287 -0.0941  0.8131  2.9959
11165TIP3    H254987   5.800   6.731  13.213 -2.3390 -1.3161 -2.2296
11166TIP3   OH254988   1.118   6.633  12.046 -0.1236  0.3801  0.1626
11166TIP3    H154989   1.082   6.670  12.127 -0.6529  0.8557 -0.2823
11166TIP3    H254990   1.072   6.550  12.035  0.0610  0.2439  0.4348
11167TIP3   OH254991   3.361   6.201   0.032 -0.2342 -0.4790  0.4553
11167TIP3    H154992   3.446   6.234   0.002 -1.0159 -1.2479 -2.8248
11167TIP3    H254993   3.313   6.279   0.058  1.1686  0.0364  1.5688
11168TIP3   OH254994   5.533   4.684  14.594  0.0138  0.3138  0.8077
11168TIP3    H154995   5.530   4.748  14.523 -0.3490  1.0870  1.5030
11168TIP3    H254996   5.570   4.605  14.555 -1.4733  0.2843 -0.5889
11169TIP3   OH254997   3.921   4.430  12.256  0.1677  0.1871 -1.0008
11169TIP3    H154998   3.873   4.429  12.173 -2.7221 -2.4701  0.6187
11169TIP3    H254999   3.931   4.338  12.280 -0.2445  0.8994  2.2235
11170TIP3   OH255000   1.649   4.646   6.197  0.1527 -0.5314 -0.1384
11170TIP3    H155001   1.601   4.665   6.277 -2.8127 -1.4713 -1.6326
11170TIP3    H255002   1.608   4.567   6.162  1.7513 -0.4722 -2.2869
11171TIP3   OH255003   2.836   0.651   2.949  0.1384 -0.3711  0.0726
11171TIP3    H155004   2.772   0.708   2.907  0.4416 -0.0017  0.1063
11171TIP3    H255005   2.786   0.602   3.014  0.3172  1.8094  1.9488
11172TIP3   OH255006   0.818   2.990  16.525 -0.1720  0.4572  0.1015
11172TIP3    H155007   0.767   3.052  16.472 -1.2656  0.4752  1.1643
11172TIP3    H255008   0.787   2.904  16.499  0.2791  0.4089 -0.2854
11173TIP3   OH255009   3.390   3.213   3.407 -0.2816  0.0714  0.2206
11173TIP3    H155010   3.483   3.194   3.409 -0.0768  1.1268  1.8290
11173TIP3    H255011   3.349   3.134   3.443  0.1351  0.3435  1.3075
11174TIP3   OH255012   0.593   2.663  11.940 -0.3343 -0.3787  0.9252
11174TIP3    H155013   0.540   2.667  12.019 -0.1662  0.4807  0.9921
11174TIP3    H255014   0.571   2.578  11.900 -0.4017 -0.8248  1.9008
11175TIP3   OH255015   1.660   1.024  11.861  0.0888 -0.1874  0.1520
11175TIP3    H155016   1.655   0.939  11.904  0.8805 -0.7248 -0.8059
11175TIP3    H255017   1.656   1.087  11.933 -1.7751 -0.9747  0.7887
11176TIP3   OH255018   2.934   0.759   2.325  0.0822 -0.0855  0.2398
11176TIP3    H155019   3.008   0.817   2.305 -0.7222  1.5566  1.8263
11176TIP3    H255020   2.925   0.704   2.248  1.7292  1.0196 -0.7783
11177TIP3   OH255021   5.392   1.305   1.458 -0.6944  0.2734  0.2883
11177TIP3    H155022   5.391   1.390   1.413  2.5448 -0.1850 -0.8069
11177TIP3    H255023   5.466   1.313   1.519 -0.8676 -1.4879  0.7300
11178TIP3   OH255024   3.874   4.486   3.050 -0.4988  0.6348  0.2125
11178TIP3    H155025   3.866   4.506   2.956  1.0289  0.0491 -0.0472
11178TIP3    H255026   3.916   4.401   3.053 -0.7046  0.5668  1.4480
11179TIP3   OH255027   0.616   2.470   1.957 -0.3476 -0.6021 -0.0305
11179TIP3    H155028   0.573   2.551   1.930 -0.0877 -0.5143 -0.1863
11179TIP3    H255029   0.626   2.479   2.051  0.6986  0.0495 -0.1943
11180TIP3   OH255030   0.950   3.132   4.642 -0.1627 -0.0119 -0.2486
11180TIP3    H155031   0.942   3.227   4.650 -0.5241  0.0144 -0.8895
11180TIP3    H255032   0.919   3.098   4.726  2.0112  0.5305  0.7992
11181TIP3   OH255033   6.036   1.926  15.523 -0.1329 -0.7460 -0.0602
11181TIP3    H155034   6.039   1.958  15.433 -0.0856 -1.7574 -0.4180
11181TIP3    H255035   5.942   1.918  15.542 -0.1498 -0.1996  0.1061
11182TIP3   OH255036   4.171   5.593  16.921  0.3954 -0.4471 -0.0523
11182TIP3    H155037   4.219   5.618  17.000 -0.0496  0.8064 -0.1784
11182TIP3    H255038   4.239   5.567  16.859  1.0945  3.3640 -0.9644
11183TIP3   OH255039   4.590   4.521  10.437 -0.5641 -0.4530  0.3075
11183TIP3    H155040   4.545   4.520  10.522  0.0612  2.2782  0.7218
11183TIP3    H255041   4.520   4.532  10.373 -0.8293  0.0362  0.6740
11184TIP3   OH255042   6.810   2.910  13.941  0.2240  0.8976  0.0372
11184TIP3    H155043   6.715   2.916  13.926  0.0650  0.2563  0.7729
11184TIP3    H255044   6.842   2.857  13.868 -0.2149 -0.1956  0.6179
11185TIP3   OH255045   0.199   6.458   6.478 -0.1745 -0.2384  0.1731
11185TIP3    H155046   0.133   6.404   6.522 -2.0994  1.4321 -0.5786
11185TIP3    H255047   0.226   6.521   6.544  1.8436 -1.8533  0.9526
11186TIP3   OH255048   4.672   5.690  15.941  0.3183 -0.3038 -0.4047
11186TIP3    H155049   4.667   5.762  15.878 -1.7853 -0.8417 -0.8705
11186TIP3    H255050   4.623   5.720  16.017  1.2914 -0.4002  0.2791
11187TIP3   OH255051   0.554   4.299   2.594 -0.4607 -0.0561  1.4498
11187TIP3    H155052   0.556   4.214   2.551 -0.2732  0.0311  1.2839
11187TIP3    H255053   0.461   4.320   2.601 -0.4934 -0.0875  1.1178
11188TIP3   OH255054   5.477   4.865   5.522  0.3706  0.4847 -0.3364
11188TIP3    H155055   5.393   4.820   5.529  1.3605 -1.5457 -1.1046
11188TIP3    H255056   5.501   4.885   5.612 -0.9385  1.1319 -0.1123
11189TIP3   OH255057   5.257   3.325   0.013  0.3243  0.5433  0.3626
11189TIP3    H155058   5.329   3.387   0.002  0.9012 -0.1796  0.1115
11189TIP3    H255059   5.227   3.307  -0.076  1.0472 -0.6037  0.3538
11190TIP3   OH255060   5.489   4.639   0.579  0.4929 -0.3291 -0.1247
11190TIP3    H155061   5.490   4.545   0.567 -1.2224 -0.1966 -1.4219
11190TIP3    H255062   5.399   4.659   0.605  0.7838  0.9839 -0.0860
11191TIP3   OH255063   5.074   1.698   3.598  0.4629  0.0434 -0.7818
11191TIP3    H155064   5.076   1.612   3.639 -2.0051  0.0935 -0.5086
11191TIP3    H255065   5.102   1.759   3.667 -2.3890 -0.0215  0.5083
11192TIP3   OH255066   0.707   1.322   0.575 -0.1411  0.1213 -0.3279
11192TIP3    H155067   0.676   1.362   0.656 -0.4768  0.5529 -0.6642
11192TIP3    H255068   0.627   1.292   0.531  0.1547 -1.3656  0.1540
11193TIP3   OH255069   2.038   3.122   3.504  0.2596 -0.1977 -0.6725
11193TIP3    H155070   1.981   3.084   3.437  0.4872  0.4044 -1.2106
11193TIP3    H255071   2.022   3.068   3.582 -1.3431  0.2081 -0.6952
11194TIP3   OH255072   2.506   6.129   1.007  0.2077  0.1139  0.1762
11194TIP3    H155073   2.513   6.037   0.982 -0.1238  0.0636  0.2627
11194TIP3    H255074   2.444   6.167   0.945 -1.0716 -0.1505  1.2646
11195TIP3   OH255075   0.650   5.529  11.733  0.0019 -0.5964 -0.1136
11195TIP3    H155076   0.555   5.529  11.746 -0.0956 -0.7980 -0.8073
11195TIP3    H255077   0.666   5.600  11.671  0.2262 -0.9923 -0.5147
11196TIP3   OH255078   2.481   4.127   0.464  0.0609  0.0305  0.3667
11196TIP3    H155079   2.574   4.148   0.459 -0.1933  1.0159 -0.3475
11196TIP3    H255080   2.440   4.180   0.395 -0.9627 -0.7392  0.3718
11197TIP3   OH255081   0.995   2.443   0.820 -0.1191 -0.0254 -0.1106
11197TIP3    H155082   1.037   2.381   0.761 -0.5078  0.1096 -0.5311
11197TIP3    H255083   1.052   2.445   0.897 -0.9719 -2.1363  0.6128
11198TIP3   OH255084   1.312   3.896   3.646 -0.1812  0.0884 -0.2929
11198TIP3    H155085   1.315   3.858   3.735  0.8416  0.0478 -0.3401
11198TIP3    H255086   1.383   3.960   3.645 -0.6189  0.5670 -0.8777
11199TIP3   OH255087   4.910   4.224   3.588  0.5783  0.4671  0.7424
11199TIP3    H155088   4.818   4.252   3.580  1.6228  5.0832  3.1434
11199TIP3    H255089   4.909   4.160   3.659 -0.9379 -0.6634 -0.2479
11200TIP3   OH255090   6.786   2.357   3.988 -0.3315  0.7550  0.5138
11200TIP3    H155091   6.818   2.267   3.984 -3.9881 -0.6177  0.2898
11200TIP3    H255092   6.768   2.372   4.081  0.3588  1.2899  0.5620
11201TIP3   OH255093   4.171   3.343  15.773 -0.1304 -1.0905 -0.4202
11201TIP3    H155094   4.221   3.425  15.772 -0.0358 -1.1520 -0.6933
11201TIP3    H255095   4.225   3.283  15.826 -2.2818  0.3409  3.6172
11202TIP3   OH255096   1.715   0.385  13.860  0.8891 -0.0362  0.0362
11202TIP3    H155097   1.744   0.417  13.775  0.1080 -1.6900 -0.8518
11202TIP3    H255098   1.669   0.460  13.899  0.9531  0.6141 -1.1182
11203TIP3   OH255099   1.417   3.636  11.334  0.0284 -0.2013 -0.2259
11203TIP3    H155100   1.370   3.556  11.359  2.5391 -1.8911 -0.6525
11203TIP3    H255101   1.423   3.631  11.239  0.6288  0.2355 -0.2119
11204TIP3   OH255102   5.980   5.884  11.030  0.0166  0.5175 -0.1348
11204TIP3    H155103   5.975   5.788  11.022 -0.8754  0.4900  0.6737
11204TIP3    H255104   5.890   5.914  11.016 -0.3727  0.9632  2.9828
11205TIP3   OH255105   4.428   0.290  12.937 -0.7381 -0.4109  0.1018
11205TIP3    H155106   4.502   0.260  12.991 -1.0052 -1.0517  0.1156
11205TIP3    H255107   4.446   0.383  12.921  0.3946 -0.7040 -0.4123
11206TIP3   OH255108   1.883   0.327  17.070  0.2359 -0.0534  0.4166
11206TIP3    H155109   1.826   0.354  17.142 -3.0273 -0.8151 -1.7714
11206TIP3    H255110   1.913   0.240  17.096 -1.4636 -0.6097  0.5964
11207TIP3   OH255111   0.809   3.864  11.594  0.1624  0.2763  0.5444
11207TIP3    H155112   0.894   3.894  11.626  0.4626 -0.3937  0.3792
11207TIP3    H255113   0.830   3.798  11.529 -0.4782  0.4896  0.1161
11208TIP3   OH255114   4.031   1.282   5.271 -0.4104  0.4572  0.0203
11208TIP3    H155115   3.988   1.364   5.295 -3.0578 -1.6491  2.8474
11208TIP3    H255116   4.069   1.250   5.353  1.5398 -0.6204 -1.2720
11209TIP3   OH255117   3.255   5.167   4.744  0.0452  0.1944  0.3253
11209TIP3    H155118   3.172   5.120   4.732  0.8107 -1.1185  0.0711
11209TIP3    H255119   3.279   5.197   4.657  0.8020 -1.0876  0.0891
11210TIP3   OH255120   0.362   3.891  12.012  0.5064 -0.4547  0.4295
11210TIP3    H155121   0.271   3.868  11.992 -0.2427  1.6701  1.2553
11210TIP3    H255122   0.362   3.910  12.106  1.9965 -1.2603  0.6077
11211TIP3   OH255123   4.343   3.535  14.718 -0.2971  0.5518  0.0082
11211TIP3    H155124   4.253   3.513  14.692 -0.7732  1.3551  0.9331
11211TIP3    H255125   4.387   3.555  14.636 -0.8878 -0.1040 -0.4813
11212TIP3   OH255126   3.158   2.251  13.380 -0.3780  0.0727  0.1478
11212TIP3    H155127   3.091   2.311  13.413  0.8923  0.7004  1.6445
11212TIP3    H255128   3.206   2.223  13.458  1.7528  0.4468 -0.9853
11213TIP3   OH255129   0.662   0.053  11.238  0.2235 -0.5375 -0.3470
11213TIP3    H155130   0.612  -0.013  11.189  0.6884 -1.0962 -0.0802
11213TIP3    H255131   0.704   0.106  11.171 -1.6976  0.7185 -0.6055
11214TIP3   OH255132   1.830   0.694   2.438  0.4177  0.4853  0.7387
11214TIP3    H155133   1.815   0.600   2.427 -1.0609  0.5479  2.0501
11214TIP3    H255134   1.923   0.706   2.417 -0.0886 -0.7478 -2.4621
11215TIP3   OH255135   6.183   3.377  13.907 -0.5202  0.4042  0.2785
11215TIP3    H155136   6.140   3.460  13.888  0.2242  0.6430 -0.4022
11215TIP3    H255137   6.193   3.375  14.002  0.8139  1.7720  0.1721
11216TIP3   OH255138   0.431   4.878  11.624  0.1723  0.0264 -0.2480
11216TIP3    H155139   0.336   4.869  11.615 -0.0729  0.4472  1.7137
11216TIP3    H255140   0.467   4.807  11.572 -1.2270 -0.1735 -0.9577
11217TIP3   OH255141   6.074   4.109   2.533  0.5371 -0.5312 -0.0304
11217TIP3    H155142   6.146   4.109   2.470  1.7530  0.7370  1.3356
11217TIP3    H255143   6.078   4.023   2.575  1.9504 -0.0745  0.8068
11218TIP3   OH255144   6.754   2.629   1.139  0.4409 -0.1376 -0.0364
11218TIP3    H155145   6.749   2.546   1.092 -1.0379  0.5614 -1.1577
11218TIP3    H255146   6.690   2.622   1.209  1.4312 -0.5264  0.8437
11219TIP3   OH255147   6.028   3.847   0.090 -0.1482  0.5526  0.2277
11219TIP3    H155148   5.967   3.839   0.164 -0.3204  0.2388  0.0527
11219TIP3    H255149   6.041   3.757   0.060  1.0149  0.5361  0.7561
11220TIP3   OH255150   0.451   1.316  10.539 -0.2364  0.5143  0.3687
11220TIP3    H155151   0.405   1.319  10.623 -0.0961  1.3024  0.4153
11220TIP3    H255152   0.392   1.267  10.482 -0.9833  1.2355  0.5191
11221TIP3   OH255153   5.798   6.818   2.636 -0.0991  0.4814  0.2650
11221TIP3    H155154   5.820   6.810   2.728 -1.7891  1.2082  0.7496
11221TIP3    H255155   5.749   6.900   2.630 -1.5575 -0.4513 -0.9699
11222TIP3   OH255156   4.977   3.176   3.930 -0.5648  0.1964  0.4853
11222TIP3    H155157   4.959   3.189   4.023 -0.8613 -1.5143  0.6822
11222TIP3    H255158   5.058   3.125   3.928 -1.6450 -1.5273 -0.1346
11223TIP3   OH255159   5.923   6.778   1.877  0.3001  0.0815  0.1437
11223TIP3    H155160   5.859   6.720   1.835  1.1818 -0.4560 -0.4866
11223TIP3    H255161   5.999   6.722   1.894  0.7750  0.8125  0.4751
11224TIP3   OH255162   2.009   5.525   1.243 -0.3688 -0.1976  0.3971
11224TIP3    H155163   2.103   5.519   1.263 -0.5575 -0.7975  1.1121
11224TIP3    H255164   2.006   5.564   1.156  0.5792 -1.0915 -0.0513
11225TIP3   OH255165   1.999   6.209   3.522  0.3046 -0.8866  0.2246
11225TIP3    H155166   1.999   6.152   3.445 -0.4146 -0.7755  0.1402
11225TIP3    H255167   1.975   6.295   3.488 -1.2510 -1.0960  0.7525
11226TIP3   OH255168   2.687   3.800  13.112 -0.0863  0.2475  0.0480
11226TIP3    H155169   2.611   3.793  13.054 -0.5978  0.0084  0.7521
11226TIP3    H255170   2.683   3.890  13.145 -0.7537 -0.1367  1.0324
11227TIP3   OH255171   3.191   1.781  12.935  0.2267  0.2786  0.0917
11227TIP3    H155172   3.219   1.712  12.995  1.5487  1.0467  0.3678
11227TIP3    H255173   3.125   1.739  12.880 -0.1705 -0.7507  1.3255
11228TIP3   OH255174   4.811   4.107   2.213  0.0176  0.5038  0.0551
11228TIP3    H155175   4.897   4.143   2.232  0.4831 -0.5920  0.0607
11228TIP3    H255176   4.801   4.035   2.275  0.1486 -0.9695 -1.5840
11229TIP3   OH255177   3.947   4.450   5.591 -0.3058 -0.8699  0.7028
11229TIP3    H155178   3.961   4.474   5.683  0.5834 -0.4323  0.4629
11229TIP3    H255179   3.857   4.477   5.572  0.6365  2.2171  0.4646
11230TIP3   OH255180   5.688   3.870   4.130  0.6130  0.1838  0.8961
11230TIP3    H155181   5.684   3.795   4.189 -0.2289  1.2801  2.2444
11230TIP3    H255182   5.672   3.946   4.186  1.6102  1.3949 -0.4241
11231TIP3   OH255183   4.517   0.017   0.772 -0.2055  0.5457 -0.1487
11231TIP3    H155184   4.558  -0.028   0.698 -0.0314 -0.2157  0.3991
11231TIP3    H255185   4.540   0.109   0.761 -2.8052  0.9357 -2.7775
11232TIP3   OH255186   2.120   2.138  15.573  0.4766 -0.3964 -0.1021
11232TIP3    H155187   2.111   2.109  15.664 -0.0798 -1.7116 -0.5659
11232TIP3    H255188   2.056   2.209  15.564 -0.3780 -1.1243  0.1792
11233TIP3   OH255189   5.247   3.359   3.692  0.6338 -0.3365 -0.5391
11233TIP3    H155190   5.260   3.380   3.784 -1.4974 -1.2420  0.0034
11233TIP3    H255191   5.152   3.366   3.679  1.0242  1.2671 -3.0432
11234TIP3   OH255192   5.926   3.342  11.966 -0.6827 -0.0605 -0.4756
11234TIP3    H155193   5.917   3.429  12.006 -0.0876 -0.0804 -0.2962
11234TIP3    H255194   5.874   3.284  12.022 -0.8173  0.1210 -0.4122
11235TIP3   OH255195   6.707   4.098  13.487 -0.4700  0.4049 -0.5963
11235TIP3    H155196   6.779   4.037  13.470 -0.3536  0.8572 -1.7827
11235TIP3    H255197   6.711   4.114  13.581  0.2203 -0.5173 -0.4611
11236TIP3   OH255198   4.000   3.091  11.650  0.5838 -0.2650  0.0417
11236TIP3    H155199   4.027   3.047  11.730  1.2206  2.3241  1.3109
11236TIP3    H255200   3.907   3.112  11.663  0.7707  0.4452  0.2416
11237TIP3   OH255201   3.197   6.709   2.674 -0.2502  0.1532  0.2496
11237TIP3    H155202   3.250   6.697   2.595 -0.5689 -1.1735  0.2276
11237TIP3    H255203   3.110   6.732   2.641 -0.4080 -0.4994  0.2197
11238TIP3   OH255204   2.864   5.878   3.531  0.5421 -0.2595 -0.5823
11238TIP3    H155205   2.880   5.786   3.552 -0.6878 -0.3122  0.1812
11238TIP3    H255206   2.815   5.874   3.448  0.1601 -0.3035 -0.3530
11239TIP3   OH255207   5.354   3.911   4.263  0.3487 -0.9473 -0.9798
11239TIP3    H155208   5.371   3.868   4.347  0.2531  0.1275 -0.4039
11239TIP3    H255209   5.431   3.965   4.247 -0.6412  0.6649 -0.4239
11240TIP3   OH255210   5.232   4.299   3.257  0.0332  0.7804  0.1334
11240TIP3    H155211   5.236   4.382   3.210 -1.2535  0.7237 -0.0798
11240TIP3    H255212   5.194   4.238   3.193 -1.0555  0.5313  1.0215
11241TIP3   OH255213   0.166   6.525   5.497  0.1675  0.0077 -0.1765
11241TIP3    H155214   0.231   6.488   5.439 -0.0048  1.8778 -1.6170
11241TIP3    H255215   0.213   6.544   5.578  1.0727 -0.0550 -0.6848
11242TIP3   OH255216   1.172   5.878   2.895  0.2942  0.2503  0.4618
11242TIP3    H155217   1.250   5.826   2.909 -0.1833 -0.7671 -0.5927
11242TIP3    H255218   1.104   5.834   2.945  0.0818  0.3532  0.2647
11243TIP3   OH255219   4.439   0.675   6.359 -0.3593 -0.7444  0.2302
11243TIP3    H155220   4.524   0.704   6.324 -0.8533  1.2547  0.5918
11243TIP3    H255221   4.441   0.580   6.351  1.0566 -0.5858 -1.7427
11244TIP3   OH255222   3.696   6.425   5.082 -0.0810 -0.1879  0.0384
11244TIP3    H155223   3.691   6.488   5.154  0.3835 -1.5190  1.2466
11244TIP3    H255224   3.784   6.388   5.088 -0.5425 -1.3721 -0.3123
11245TIP3   OH255225   1.756   2.274   1.850  0.0650  0.3905 -0.3730
11245TIP3    H155226   1.771   2.226   1.769 -2.4742 -1.2026  0.0166
11245TIP3    H255227   1.693   2.342   1.827 -3.3816 -2.2083  0.8277
11246TIP3   OH255228   4.560   3.486  16.796 -0.1907 -0.3911  0.2156
11246TIP3    H155229   4.638   3.434  16.778 -0.4791 -0.8017  0.1573
11246TIP3    H255230   4.557   3.493  16.892 -0.3751 -0.8269  0.2439
11247TIP3   OH255231   6.250   3.201  13.577  0.0840  0.5683  0.3295
11247TIP3    H155232   6.161   3.188  13.610  0.3530 -0.6970  0.5994
11247TIP3    H255233   6.255   3.144  13.500  0.1580  1.8472 -0.6235
11248TIP3   OH255234   0.899   1.066   3.098 -0.2107 -0.5687 -0.7425
11248TIP3    H155235   0.903   1.003   3.170  1.6476 -0.3069 -0.5866
11248TIP3    H255236   0.810   1.058   3.064 -1.0241 -0.9287  1.3801
11249TIP3   OH255237   0.319   1.161  12.050 -0.2527 -0.3861 -0.1500
11249TIP3    H155238   0.414   1.149  12.042 -0.3189 -0.6063 -0.5988
11249TIP3    H255239   0.309   1.255  12.068  0.0727 -0.4356  0.3088
11250TIP3   OH255240   1.035   2.178   4.179  0.0431  0.2446  0.1388
11250TIP3    H155241   1.086   2.115   4.128  0.8462  0.9154  0.1100
11250TIP3    H255242   1.099   2.244   4.208 -0.2771 -0.3833  2.4391
11251TIP3   OH255243   5.490   6.236   1.730 -0.2677 -0.4163  0.8821
11251TIP3    H155244   5.533   6.152   1.716 -2.1137 -1.0895 -0.9724
11251TIP3    H255245   5.471   6.238   1.823 -0.4315 -2.1682  0.9021
11252TIP3   OH255246   2.422   4.412   4.400  0.0104 -0.0508 -0.1060
11252TIP3    H155247   2.354   4.348   4.422 -0.5494  0.8134  0.6990
11252TIP3    H255248   2.397   4.491   4.447  0.6536  0.7937 -1.1642
11253TIP3   OH255249   3.350   1.123  11.505  0.0674  0.4889  0.1619
11253TIP3    H155250   3.411   1.196  11.514  0.4757  0.1846 -0.0863
11253TIP3    H255251   3.318   1.105  11.593  0.0708  0.8785  0.2391
11254TIP3   OH255252   2.223   2.404   6.289 -0.2554  0.9006  0.6118
11254TIP3    H155253   2.305   2.404   6.339  0.5138  0.7644 -0.6456
11254TIP3    H255254   2.249   2.417   6.198 -1.4769 -1.0537 -0.0567
11255TIP3   OH255255   1.181   3.434   6.117 -0.2322  0.5954 -0.0258
11255TIP3    H155256   1.179   3.442   6.212 -0.8242  0.1112  0.0014
11255TIP3    H255257   1.275   3.437   6.095 -0.0321 -0.5266  0.6759
11256TIP3   OH255258   3.410   0.944   4.617  0.4017  0.0669 -0.0443
11256TIP3    H155259   3.431   0.969   4.527  0.3880  1.0223  0.2117
11256TIP3    H255260   3.453   0.859   4.630  0.5081 -0.0088 -0.9048
11257TIP3   OH255261   0.170   0.529  12.925  0.0962  0.3861 -0.3890
11257TIP3    H155262   0.135   0.450  12.967  0.6974 -0.8273 -2.0759
11257TIP3    H255263   0.097   0.563  12.873  0.4690 -0.3196 -1.3860
11258TIP3   OH255264   4.380   3.884  17.136  0.5623  0.5410 -0.2384
11258TIP3    H155265   4.352   3.929  17.215  1.0484  2.7120 -1.2424
11258TIP3    H255266   4.299   3.855  17.094  0.2995 -0.5175  0.9642
11259TIP3   OH255267   1.725   4.801  15.213 -0.5082  0.0017 -0.1098
11259TIP3    H155268   1.746   4.870  15.150 -0.1806  0.4187  0.4514
11259TIP3    H255269   1.778   4.822  15.290 -0.3010 -0.9562  0.0128
11260TIP3   OH255270   4.886   6.647   2.769 -0.3417  0.0589 -0.3064
11260TIP3    H155271   4.817   6.676   2.828 -0.2116 -0.8038  0.2785
11260TIP3    H255272   4.875   6.700   2.690 -2.0820 -0.5412 -0.4790
11261TIP3   OH255273   0.180   3.738  15.056 -0.1914  0.0403 -0.0114
11261TIP3    H155274   0.255   3.757  15.112 -0.1133  0.1603 -0.1571
11261TIP3    H255275   0.107   3.786  15.097  0.3155  1.8776 -1.2075
11262TIP3   OH255276   1.142   5.987  17.232  0.0684  0.4530  0.2377
11262TIP3    H155277   1.120   5.895  17.224  1.3226  0.4171 -3.5319
11262TIP3    H255278   1.173   5.996  17.323 -1.9711 -2.3308  1.2795
11263TIP3   OH255279   1.808   6.151  15.085  0.3493  0.6125 -0.7673
11263TIP3    H155280   1.904   6.150  15.083  0.3539 -0.0034 -0.3765
11263TIP3    H255281   1.785   6.094  15.158 -0.3424 -0.5930 -1.8922
11264TIP3   OH255282   1.136   2.631  11.208 -0.3398  0.0560  0.1422
11264TIP3    H155283   1.099   2.551  11.169 -1.3153  1.2564 -1.4695
11264TIP3    H255284   1.091   2.702  11.162  0.4111  1.5333  1.6733
11265TIP3   OH255285   2.364   5.991   4.020  0.3195 -0.0606  0.3235
11265TIP3    H155286   2.432   5.958   3.962 -2.1056 -1.1419 -2.0086
11265TIP3    H255287   2.412   6.037   4.089  3.3264  0.4969 -2.0266
11266TIP3   OH255288   3.664   0.759   4.949 -0.2676 -0.6864  0.0026
11266TIP3    H155289   3.615   0.809   5.014 -0.2706 -0.6189 -0.0513
11266TIP3    H255290   3.754   0.759   4.982  0.4563  2.3660 -1.7411
11267TIP3   OH255291   5.107   1.967  15.983 -0.0891 -0.2177  0.4620
11267TIP3    H155292   5.052   1.916  15.924  1.2534 -0.8111 -0.3228
11267TIP3    H255293   5.101   2.057  15.950 -2.2813  0.1007  1.7113
11268TIP3   OH255294   4.911   6.718   5.266  0.6742  0.1554 -0.7496
11268TIP3    H155295   4.897   6.714   5.361 -0.2120  0.2189 -0.8717
11268TIP3    H255296   4.990   6.666   5.251  3.0588  3.1977  0.4758
11269TIP3   OH255297   2.046   4.343  14.328 -0.1970 -0.1388  0.0399
11269TIP3    H155298   2.027   4.437  14.334 -1.5214 -0.4089  0.2596
11269TIP3    H255299   2.036   4.311  14.417 -1.7307 -0.8379 -0.3607
11270TIP3   OH255300   0.582   6.813  14.859  0.2502 -0.5616  0.2259
11270TIP3    H155301   0.542   6.726  14.847 -0.6078 -0.3087  1.1515
11270TIP3    H255302   0.508   6.869  14.885  1.2700 -0.1802  2.4239
11271TIP3   OH255303   2.017   0.476   0.227  0.0937  0.0700 -0.0741
11271TIP3    H155304   2.036   0.555   0.277 -0.9282  0.4277 -0.2433
11271TIP3    H255305   1.922   0.476   0.216  0.0280 -1.4098  0.3146
11272TIP3   OH255306   0.835   6.237  14.015  0.0310 -0.2807 -0.2669
11272TIP3    H155307   0.911   6.205  13.967  1.4694  1.1829  0.9865
11272TIP3    H255308   0.812   6.320  13.973 -0.5779 -0.4723 -0.3259
11273TIP3   OH255309   0.607   4.111   1.932  0.0581 -0.4445 -0.0150
11273TIP3    H155310   0.640   4.162   2.006 -0.1633  0.9096 -0.8138
11273TIP3    H255311   0.682   4.101   1.874 -0.0613 -0.4525 -0.1697
11274TIP3   OH255312   1.265   0.311  16.046 -0.3301 -0.0926 -0.4095
11274TIP3    H155313   1.310   0.373  15.990  0.0819 -0.1233 -0.1174
11274TIP3    H255314   1.256   0.232  15.992  1.1351 -0.5284 -0.0383
11275TIP3   OH255315   6.300   2.050   2.410  0.4666 -0.4156 -0.2672
11275TIP3    H155316   6.300   2.124   2.350  0.7508 -0.2382 -0.0491
11275TIP3    H255317   6.385   2.008   2.398 -0.2209 -1.5179 -1.3789
11276TIP3   OH255318   4.054   0.520   6.194  0.8637 -0.2461  0.0470
11276TIP3    H155319   4.126   0.563   6.239  0.6601 -0.5760  0.7007
11276TIP3    H255320   4.025   0.451   6.254  0.0240 -0.1339 -0.2125
11277TIP3   OH255321   6.270   0.119  12.164 -0.4009 -0.3675 -0.5962
11277TIP3    H155322   6.294   0.186  12.227 -0.4286 -0.8474 -0.0736
11277TIP3    H255323   6.175   0.124  12.158 -0.2902  0.7091 -1.7551
11278TIP3   OH255324   4.555   2.226   5.158  0.0997 -0.4156  0.4850
11278TIP3    H155325   4.493   2.297   5.142  0.0695 -0.5348  0.0624
11278TIP3    H255326   4.573   2.190   5.071  3.4858  1.8810  0.1624
11279TIP3   OH255327   5.358   6.641  10.458  0.2229 -0.6256  0.6570
11279TIP3    H155328   5.351   6.557  10.503  0.4941 -1.5363 -0.9545
11279TIP3    H255329   5.313   6.627  10.374  1.5823  0.3751 -0.2596
11280TIP3   OH255330   2.069   2.796  13.071  0.1416  0.3248  0.0721
11280TIP3    H155331   2.014   2.859  13.118  1.7142  1.2406  0.7032
11280TIP3    H255332   2.098   2.843  12.993  1.7393  0.5885  0.8024
11281TIP3   OH255333   6.609   0.083   3.942  0.2684 -0.7197 -0.7911
11281TIP3    H155334   6.556   0.160   3.924 -0.9345 -1.6984 -1.5283
11281TIP3    H255335   6.683   0.090   3.883  0.8198  0.4933  0.0161
11282TIP3   OH255336   2.611   1.358  12.799  0.0841 -0.1163  0.2092
11282TIP3    H155337   2.617   1.415  12.723  0.7756  0.1848  0.4865
11282TIP3    H255338   2.609   1.269  12.762 -0.3381  0.0560 -0.1878
11283TIP3   OH255339   0.262   1.544  16.480  0.1356 -0.1576  0.1974
11283TIP3    H155340   0.314   1.469  16.506  0.2442 -0.4639 -0.9004
11283TIP3    H255341   0.187   1.507  16.434 -0.6818  0.3214  1.1067
11284TIP3   OH255342   3.617   2.648   2.317 -0.3409 -0.0187  0.1370
11284TIP3    H155343   3.648   2.710   2.382 -2.1101  0.8479  0.1655
11284TIP3    H255344   3.544   2.692   2.273  2.0938  0.2579 -3.8568
11285TIP3   OH255345   0.380   1.090   1.159 -0.3363 -0.0342 -0.2749
11285TIP3    H155346   0.377   1.020   1.095  1.7635 -0.2600 -0.1409
11285TIP3    H255347   0.400   1.169   1.108  2.0910 -0.3348  0.1500
11286TIP3   OH255348   3.909   1.417   0.538  0.2399  0.0459 -0.4436
11286TIP3    H155349   3.832   1.475   0.547 -0.2614 -0.6457 -0.2395
11286TIP3    H255350   3.872   1.329   0.540  1.0700 -0.2915 -0.1370
11287TIP3   OH255351   0.951   0.996   2.035  0.2634  0.2947 -0.4295
11287TIP3    H155352   0.980   0.964   1.949 -0.1144  1.9474 -1.1780
11287TIP3    H255353   1.012   1.067   2.055 -0.0281  0.3056  0.3989
11288TIP3   OH255354   2.538   4.078   2.150  0.3874  0.5079  0.4273
11288TIP3    H155355   2.529   4.148   2.085  2.1549  0.2335 -0.1419
11288TIP3    H255356   2.448   4.053   2.171 -0.2378  1.9772 -0.4173
11289TIP3   OH255357   6.303   1.454  12.403  0.2356 -0.3219  0.5406
11289TIP3    H155358   6.360   1.422  12.473  1.3782  0.0523 -0.2200
11289TIP3    H255359   6.301   1.549  12.415  2.6230  0.0448 -1.5489
11290TIP3   OH255360   2.612   2.236   1.829  0.7745  0.2637 -0.2673
11290TIP3    H155361   2.588   2.292   1.903 -0.3942 -0.1545 -0.3292
11290TIP3    H255362   2.704   2.213   1.846  0.9013  1.2019  0.3879
11291TIP3   OH255363   3.839   1.550  10.954  0.3540 -0.4123  0.2528
11291TIP3    H155364   3.764   1.587  10.906  0.3011 -2.9183 -1.7593
11291TIP3    H255365   3.915   1.577  10.903  0.6587  0.3766  1.1203
11292TIP3   OH255366   0.659   6.644   1.036  0.8383  0.0173 -0.0779
11292TIP3    H155367   0.638   6.561   1.079 -1.7721  0.8621  0.3591
11292TIP3    H255368   0.622   6.636   0.948  3.5941 -0.5649 -1.2408
11293TIP3   OH255369   5.525   2.366  10.760  0.3356  0.0202  0.1994
11293TIP3    H155370   5.592   2.397  10.699 -0.7429  0.3865 -0.8123
11293TIP3    H255371   5.494   2.446  10.803  0.6927 -0.1715  0.8140
11294TIP3   OH255372   3.588   3.487   4.561  0.4124 -0.1492  0.1311
11294TIP3    H155373   3.562   3.397   4.539  0.2381 -0.1816  0.4621
11294TIP3    H255374   3.557   3.540   4.488  0.1510 -0.3007  0.1312
11295TIP3   OH255375   3.527   0.202   3.622  0.3309  0.1739 -0.1961
11295TIP3    H155376   3.442   0.174   3.656  0.1454 -1.5283 -1.9707
11295TIP3    H255377   3.533   0.295   3.645 -1.4619  0.0044  1.0206
11296TIP3   OH255378   1.405   5.840   1.354 -0.2978  0.8031 -0.4395
11296TIP3    H155379   1.428   5.783   1.427  0.8758 -0.1194 -1.4990
11296TIP3    H255380   1.477   5.903   1.348  0.6769 -0.4241 -2.0896
11297TIP3   OH255381   5.216   4.720   2.211  0.1028  0.4112  0.1705
11297TIP3    H155382   5.305   4.755   2.200  0.3000  0.2770  1.2738
11297TIP3    H255383   5.229   4.640   2.263 -0.6582  0.3337  0.2365
11298TIP3   OH255384   3.327   3.326   4.576  0.0952 -0.2026  0.2485
11298TIP3    H155385   3.249   3.381   4.565 -0.0510 -0.1464  1.4722
11298TIP3    H255386   3.327   3.269   4.499 -1.3625 -0.4487  0.4080
11299TIP3   OH255387   3.660   5.599  14.004  0.0797  0.7215 -0.1480
11299TIP3    H155388   3.581   5.652  14.017  0.3150  1.4754 -1.7475
11299TIP3    H255389   3.707   5.643  13.933  0.6900 -1.1499 -0.9251
11300TIP3   OH255390   3.972   2.092  16.049  0.1326 -0.0820 -0.3327
11300TIP3    H155391   3.993   2.000  16.069  2.0954  0.1064 -1.4270
11300TIP3    H255392   3.992   2.101  15.956 -1.7293  1.0259 -0.6587
11301TIP3   OH255393   1.817   6.552   2.197  0.1214  0.7361 -0.2663
11301TIP3    H155394   1.776   6.478   2.241  0.4387  1.6414  1.6181
11301TIP3    H255395   1.896   6.515   2.156 -0.0859 -0.0949  0.0727
11302TIP3   OH255396   1.416   3.590  15.606  0.1619  0.1015  0.2506
11302TIP3    H155397   1.393   3.683  15.611  1.5499  0.5343 -0.9772
11302TIP3    H255398   1.333   3.545  15.591 -0.0331  1.5343 -3.2257
11303TIP3   OH255399   6.808   1.548   2.211  0.1069  0.4892 -0.1455
11303TIP3    H155400   6.767   1.585   2.133  0.2231  0.3159 -0.2873
11303TIP3    H255401   6.772   1.460   2.218  0.1725  0.4692 -0.0598
11304TIP3   OH255402   2.207   3.644   1.415 -0.2033  0.2195  0.3534
11304TIP3    H155403   2.178   3.728   1.451 -0.6282  0.1793  0.1185
11304TIP3    H255404   2.265   3.667   1.343 -1.3503  0.3390 -0.5533
11305TIP3   OH255405   2.119   1.971  12.180  0.1270  0.0120  0.1919
11305TIP3    H155406   2.028   1.970  12.151  0.1382  0.3776  0.1430
11305TIP3    H255407   2.135   2.062  12.205  0.0934 -0.3030  1.4027
11306TIP3   OH255408   3.792   0.152   3.667 -0.3231  0.2110  0.2191
11306TIP3    H155409   3.702   0.160   3.633 -0.7947 -2.0776  0.8699
11306TIP3    H255410   3.815   0.240   3.695 -2.5656  0.7229  0.5132
11307TIP3   OH255411   2.804   0.121  15.618  0.6103 -0.5212  0.6069
11307TIP3    H155412   2.881   0.176  15.631  0.5295 -0.5060  1.0367
11307TIP3    H255413   2.839   0.034  15.602  0.7681 -0.1515 -1.1236
11308TIP3   OH255414   4.636   6.294  14.244  0.0090  0.4284 -0.3253
11308TIP3    H155415   4.604   6.204  14.257 -0.7557  0.6222 -0.9133
11308TIP3    H255416   4.723   6.293  14.285  0.2130 -0.7182 -0.7608
11309TIP3   OH255417   2.915   3.782  12.269 -0.2274 -0.2126 -0.8850
11309TIP3    H155418   2.903   3.693  12.303  0.8416 -1.3652 -3.3869
11309TIP3    H255419   3.010   3.791  12.261 -0.2655  1.6566  0.5760
11310TIP3   OH255420   3.842   3.018  12.422  0.2455  0.5211 -0.1710
11310TIP3    H155421   3.832   3.088  12.486 -0.9801 -0.3010  0.5559
11310TIP3    H255422   3.933   2.990  12.431  0.2194  0.7593  0.8593
11311TIP3   OH255423   5.977   5.894   4.992  0.6143 -0.7406  0.4725
11311TIP3    H155424   5.976   5.895   5.088  0.4034  1.5540  0.4763
11311TIP3    H255425   6.044   5.958   4.968 -1.3839  0.9467 -0.8778
11312TIP3   OH255426   5.172   0.568   5.883 -0.3917 -0.2601  0.0048
11312TIP3    H155427   5.214   0.529   5.960  0.3011  1.8359  0.7126
11312TIP3    H255428   5.145   0.493   5.831  0.2661 -1.7103  1.6799
11313TIP3   OH255429   2.318   0.331   5.629  0.3609  0.0610 -0.2703
11313TIP3    H155430   2.247   0.288   5.581  0.6361 -1.5061  0.7133
11313TIP3    H255431   2.398   0.294   5.593  0.5832 -0.6964  0.9837
11314TIP3   OH255432   6.185   6.369   3.408  0.0987 -0.5169  0.0585
11314TIP3    H155433   6.165   6.348   3.499  2.6483  0.1329  0.8003
11314TIP3    H255434   6.203   6.463   3.408 -1.3897 -0.1895 -1.4361
11315TIP3   OH255435   1.786   3.695   4.789  0.7648  0.1774  0.3389
11315TIP3    H155436   1.785   3.769   4.728 -1.1910 -0.4200 -0.4015
11315TIP3    H255437   1.755   3.732   4.872  2.4910  0.7798  0.7336
11316TIP3   OH255438   6.171   5.616  16.299  0.2113  0.2998 -0.2921
11316TIP3    H155439   6.147   5.535  16.254 -1.2207  0.6941 -0.2745
11316TIP3    H255440   6.088   5.650  16.332  0.6109  2.4722 -1.4781
11317TIP3   OH255441   4.667   2.121  11.227 -0.3956 -0.5803 -0.6408
11317TIP3    H155442   4.626   2.187  11.171 -1.4567  1.0498  1.9528
11317TIP3    H255443   4.594   2.077  11.270  0.4270  0.3001  1.7331
11318TIP3   OH255444   4.260   1.743  12.241 -0.0500 -0.7065 -0.1460
11318TIP3    H155445   4.261   1.745  12.337  0.6653  0.5288 -0.1672
11318TIP3    H255446   4.172   1.774  12.218 -0.1186 -0.7080  0.1055
11319TIP3   OH255447   2.570   2.576  15.449 -0.1574  0.3039  0.0946
11319TIP3    H155448   2.635   2.525  15.402 -0.2529 -0.2759  0.5916
11319TIP3    H255449   2.574   2.544  15.539 -0.5807  0.8049  0.2964
11320TIP3   OH255450   1.932   2.950   0.291  0.1199  0.2970  0.3038
11320TIP3    H155451   1.899   2.871   0.333 -1.8227  1.3528  0.8239
11320TIP3    H255452   1.906   2.942   0.200  1.9271 -0.7154 -0.1330
11321TIP3   OH255453   2.295   6.519   5.668  0.1175  0.0027  0.6578
11321TIP3    H155454   2.253   6.449   5.718  0.7352 -2.0274 -1.6084
11321TIP3    H255455   2.257   6.600   5.705 -1.1397 -1.5060  2.8225
11322TIP3   OH255456   2.245   3.219   6.471  0.3515  0.4134 -0.3550
11322TIP3    H155457   2.201   3.303   6.483  0.7836  0.6251 -0.2520
11322TIP3    H255458   2.238   3.201   6.378  1.1622  1.0651 -0.5513
11323TIP3   OH255459   5.618   4.714   4.473 -0.2519 -0.3319  0.2092
11323TIP3    H155460   5.679   4.675   4.537  0.3866  0.3720  0.0337
11323TIP3    H255461   5.576   4.638   4.433  0.6942 -0.8448  0.1556
11324TIP3   OH255462   4.105   0.071  13.419  0.1026 -0.6326  0.5989
11324TIP3    H155463   4.018   0.040  13.396  0.2428 -1.5819  1.2985
11324TIP3    H255464   4.150  -0.007  13.452  1.4029 -0.2644 -0.3019
11325TIP3   OH255465   6.463   1.580   2.324 -0.0942 -0.2620 -0.1360
11325TIP3    H155466   6.388   1.530   2.356  0.7616 -2.4474 -1.4017
11325TIP3    H255467   6.526   1.577   2.397 -0.7609  0.5605  0.4806
11326TIP3   OH255468   3.324   2.646  11.831  0.0029 -0.3994  0.1467
11326TIP3    H155469   3.419   2.657  11.820 -0.0226 -1.6255 -1.5198
11326TIP3    H255470   3.313   2.628  11.925  1.3406  0.4141  0.4771
11327TIP3   OH255471   3.762   1.794   1.460  0.0378 -0.5622  0.2878
11327TIP3    H155472   3.696   1.813   1.393  0.7845 -1.0170 -0.5788
11327TIP3    H255473   3.810   1.876   1.470 -0.0924 -0.4858  0.3003
11328TIP3   OH255474   4.268   5.503   4.296 -0.0466  0.1017  0.1558
11328TIP3    H155475   4.349   5.554   4.303  0.1048 -0.1336  0.1565
11328TIP3    H255476   4.293   5.426   4.245 -0.4797  0.4463 -0.5705
11329TIP3   OH255477   0.096   5.179   4.676  0.1920 -0.0171  0.1132
11329TIP3    H155478   0.119   5.152   4.587  4.0982  1.1328  0.6616
11329TIP3    H255479   0.060   5.100   4.716  2.5460 -1.8315 -1.1714
11330TIP3   OH255480   0.922   2.720  11.412 -0.3348 -0.2905  0.1974
11330TIP3    H155481   0.830   2.718  11.438 -0.4357 -1.4407 -0.2210
11330TIP3    H255482   0.919   2.719  11.316  0.0492  3.1902  0.0733
11331TIP3   OH255483   2.285   5.061  17.009  0.3404 -0.3503 -0.0628
11331TIP3    H155484   2.221   4.995  16.983  0.2385 -0.0347 -0.6310
11331TIP3    H255485   2.235   5.142  17.016  0.7608  0.0057 -1.0208
11332TIP3   OH255486   4.360   3.017   3.279 -0.7377 -0.1484 -0.4371
11332TIP3    H155487   4.361   2.984   3.369 -0.7766  1.5345  0.2113
11332TIP3    H255488   4.451   3.042   3.262 -1.3677  3.2590  0.6303
11333TIP3   OH255489   1.142   4.600   2.620 -0.7096  0.0021  0.4988
11333TIP3    H155490   1.220   4.549   2.642 -0.5446  0.6968  1.6069
11333TIP3    H255491   1.088   4.595   2.699 -1.4767  0.0877 -0.0206
11334TIP3   OH255492   3.565   6.091  15.375 -0.0066  0.4498 -0.0406
11334TIP3    H155493   3.573   6.027  15.446  1.3857 -1.3499 -1.7502
11334TIP3    H255494   3.490   6.060  15.324  1.0742 -0.2052 -1.2413
11335TIP3   OH255495   2.465   4.441  17.190  0.2915  0.3013 -0.0970
11335TIP3    H155496   2.544   4.493  17.170  1.8729 -1.4335  1.4068
11335TIP3    H255497   2.461   4.442  17.286 -0.4171 -1.2331 -0.1019
11336TIP3   OH255498   5.358   0.094  11.467  0.5959  0.0076  0.1929
11336TIP3    H155499   5.356   0.051  11.382 -1.4959 -1.9000  1.1436
11336TIP3    H255500   5.291   0.163  11.461  0.2912 -0.2713  0.3453
11337TIP3   OH255501   3.653   1.166  14.223  0.2393 -0.1470 -0.5226
11337TIP3    H155502   3.629   1.073  14.227 -1.8091  0.2391 -2.3603
11337TIP3    H255503   3.583   1.211  14.270  0.6148  0.5568 -0.6242
11338TIP3   OH255504   2.765   4.831   0.599 -0.4084 -0.4530  0.0369
11338TIP3    H155505   2.704   4.770   0.639  1.0633 -1.2605  1.0838
11338TIP3    H255506   2.829   4.776   0.554  1.4963  0.2360  1.8116
11339TIP3   OH255507   4.347   6.363  11.300 -0.6912  0.1607 -0.1968
11339TIP3    H155508   4.380   6.332  11.384 -0.5672  0.5497 -0.0993
11339TIP3    H255509   4.418   6.347  11.238 -0.6516  0.1970 -0.1603
11340TIP3   OH255510   6.349   4.867  10.865 -0.7103 -0.5424  0.3363
11340TIP3    H155511   6.258   4.889  10.845 -1.0345 -0.2543  2.0488
11340TIP3    H255512   6.360   4.779  10.830 -1.4466 -0.3192 -0.4772
11341TIP3   OH255513   0.535   3.645  17.103  0.1883 -0.5094 -0.6510
11341TIP3    H155514   0.533   3.735  17.071 -1.4404 -0.9549 -1.8850
11341TIP3    H255515   0.475   3.645  17.178  1.3163 -0.2597  0.2750
11342TIP3   OH255516   0.105   4.409   1.224  0.5961  0.1906 -0.1795
11342TIP3    H155517   0.115   4.500   1.196 -0.2197  0.0622 -0.8998
11342TIP3    H255518   0.073   4.415   1.315  1.3768  0.6110  0.0739
11343TIP3   OH255519   0.009   0.159   1.651  0.3080 -0.4553 -0.3705
11343TIP3    H155520   0.000   0.253   1.670  0.0196 -0.4841 -0.3502
11343TIP3    H255521  -0.051   0.144   1.577  1.1391 -0.4183 -1.0602
11344TIP3   OH255522   0.074   6.262   4.126  0.1965 -0.1593  0.1120
11344TIP3    H155523  -0.020   6.256   4.139  0.6611 -2.4576  2.9811
11344TIP3    H255524   0.103   6.171   4.120  2.2980  0.4914 -0.0395
11345TIP3   OH255525   0.554   2.453   3.851  0.0980 -0.5247 -0.2991
11345TIP3    H155526   0.609   2.458   3.773  1.1331 -0.5021  0.4246
11345TIP3    H255527   0.471   2.493   3.824  0.8441  0.5514 -1.0365
11346TIP3   OH255528   3.651   1.355  12.908 -0.0840 -0.6594 -0.7868
11346TIP3    H155529   3.658   1.443  12.870 -1.3043  0.3759  1.2540
11346TIP3    H255530   3.739   1.334  12.937  0.3375 -0.3612 -1.8327
11347TIP3   OH255531   4.153   3.513  16.109  0.2984  0.3899 -0.5194
11347TIP3    H155532   4.072   3.463  16.121  1.2040 -1.0924 -0.4096
11347TIP3    H255533   4.222   3.446  16.107  1.5326  1.6424 -0.4721
11348TIP3   OH255534   1.424   4.615  15.360  0.2138 -0.0174 -0.0662
11348TIP3    H155535   1.502   4.569  15.328  1.5032  2.0903 -0.0967
11348TIP3    H255536   1.451   4.652  15.445 -0.1871  2.0944 -0.8216
11349TIP3   OH255537   5.126   3.035  15.531  0.4045  0.6375  0.4134
11349TIP3    H155538   5.040   3.075  15.520 -0.7091 -1.9042 -0.6322
11349TIP3    H255539   5.119   2.986  15.613  0.7951  0.3004  0.2473
11350TIP3   OH255540   5.226   5.221   1.731 -0.2391  0.1373 -0.1010
11350TIP3    H155541   5.260   5.300   1.688  0.6853 -0.7106 -0.9472
11350TIP3    H255542   5.286   5.152   1.704 -1.1016 -0.8793  0.5695
11351TIP3   OH255543   0.867   1.156   1.454 -0.0977 -0.2580 -0.0356
11351TIP3    H155544   0.872   1.222   1.385  0.8720  0.6491  0.8910
11351TIP3    H255545   0.778   1.164   1.488 -0.9721 -1.5166 -1.9474
11352TIP3   OH255546   6.343   4.952  14.540  0.0020  0.8429 -0.5908
11352TIP3    H155547   6.262   4.917  14.504  0.5113  2.2368 -3.2359
11352TIP3    H255548   6.396   4.875  14.560 -1.5882 -0.0500  0.2196
11353TIP3   OH255549   4.443   5.937  10.645 -0.7770 -0.1737 -0.3252
11353TIP3    H155550   4.441   5.976  10.732 -2.4772  0.5154 -0.6464
11353TIP3    H255551   4.373   5.982  10.597 -0.6022 -1.3264 -1.7004
11354TIP3   OH255552   5.788   2.879   3.961 -0.3285 -0.3211 -0.5750
11354TIP3    H155553   5.813   2.911   4.048  3.8072 -1.8657 -1.0963
11354TIP3    H255554   5.797   2.955   3.904 -0.9964  0.1697 -0.0375
11355TIP3   OH255555   0.294   6.542  11.185  0.2696 -0.2052  0.4101
11355TIP3    H155556   0.286   6.624  11.137  0.0685 -0.6133 -0.2638
11355TIP3    H255557   0.204   6.508  11.189 -0.0039  0.7130  2.6660
11356TIP3   OH255558   0.931   3.894   3.470 -0.7372 -0.8899 -0.3483
11356TIP3    H155559   1.015   3.900   3.424 -1.4470  0.1691 -1.5222
11356TIP3    H255560   0.872   3.950   3.420 -2.0509 -1.3182  0.6986
11357TIP3   OH255561   2.705   2.433   5.427 -0.0390 -0.4061  0.1914
11357TIP3    H155562   2.752   2.512   5.453 -0.5422 -1.0553  3.2978
11357TIP3    H255563   2.618   2.464   5.403  0.3810  0.2196 -0.5013
11358TIP3   OH255564   3.795   4.577   2.801  0.6884 -0.2816 -0.0809
11358TIP3    H155565   3.733   4.508   2.826  2.1167 -1.5149  0.1291
11358TIP3    H255566   3.778   4.591   2.708 -0.9208  0.4603  0.3067
11359TIP3   OH255567   0.484   2.477   6.080 -0.1458 -0.3860 -0.0511
11359TIP3    H155568   0.421   2.453   6.147 -0.3992  0.6191  0.0726
11359TIP3    H255569   0.512   2.566   6.103  1.0905 -0.7061 -0.2700
11360TIP3   OH255570   0.065   2.666   3.075  0.0071 -0.0098  0.5259
11360TIP3    H155571  -0.006   2.722   3.044  0.8342  0.9628  0.3455
11360TIP3    H255572   0.051   2.582   3.032  0.0216  0.7307 -0.9469
11361TIP3   OH255573   4.330   4.852  14.558  0.1691 -0.5301 -0.1475
11361TIP3    H155574   4.421   4.872  14.538  0.1369  0.0411  0.2675
11361TIP3    H255575   4.307   4.782  14.498  0.1928  0.8955 -1.8615
11362TIP3   OH255576   2.096   6.515   5.188 -0.2518 -0.4489  0.7242
11362TIP3    H155577   2.026   6.580   5.181 -0.9292 -1.1565  0.9017
11362TIP3    H255578   2.158   6.554   5.250 -0.3867  0.2687  0.4138
11363TIP3   OH255579   0.355   5.705   5.092  0.3295  0.0866 -0.0889
11363TIP3    H155580   0.291   5.754   5.041  1.2755  0.1760 -1.2161
11363TIP3    H255581   0.306   5.672   5.168 -1.2162 -0.4235 -1.2853
11364TIP3   OH255582   0.472   1.416  13.252 -0.2159 -0.1721 -0.2793
11364TIP3    H155583   0.525   1.488  13.218 -0.2857  0.2106  0.4036
11364TIP3    H255584   0.521   1.385  13.329 -0.4461 -0.5121 -0.2702
11365TIP3   OH255585   1.843   0.355   1.899 -0.1625 -0.0565  0.5852
11365TIP3    H155586   1.829   0.291   1.969  0.3604  0.8857  1.5553
11365TIP3    H255587   1.937   0.348   1.879 -0.2502 -0.1038  0.1734
11366TIP3   OH255588   3.314   4.283  14.490  0.0121  0.6456  0.2686
11366TIP3    H155589   3.234   4.251  14.532  0.0202  1.4907  0.9243
11366TIP3    H255590   3.307   4.253  14.399 -0.8229  0.3144  0.4442
11367TIP3   OH255591   1.812   5.942   1.067 -0.2445 -0.1552  0.4365
11367TIP3    H155592   1.903   5.960   1.088  0.4103  0.0388 -2.3937
11367TIP3    H255593   1.788   5.869   1.124  2.1893 -1.2713  0.0747
11368TIP3   OH255594   0.774   5.781  13.089 -0.6998 -0.5015  0.4955
11368TIP3    H155595   0.829   5.795  13.166  0.4279 -1.6378 -0.0693
11368TIP3    H255596   0.692   5.826  13.108  0.0925  0.4316  1.7576
11369TIP3   OH255597   3.198   3.006   4.027 -0.7054  0.4002  0.2404
11369TIP3    H155598   3.287   3.030   4.053 -0.6747  0.0368  0.4622
11369TIP3    H255599   3.143   3.075   4.064 -0.6874 -0.2286  1.4375
11370TIP3   OH255600   6.424   1.149   1.190  0.2340 -0.6082  0.2794
11370TIP3    H155601   6.462   1.081   1.246  3.6224 -0.3437 -1.5889
11370TIP3    H255602   6.441   1.230   1.237 -2.3858 -0.8475  1.7354
11371TIP3   OH255603   4.853   3.031  13.198  0.3998 -0.6139 -0.4743
11371TIP3    H155604   4.847   2.936  13.208  0.7438 -0.7596 -1.6144
11371TIP3    H255605   4.871   3.063  13.287  0.4579 -1.6238 -0.1142
11372TIP3   OH255606   3.024   0.390   2.510 -0.0719  0.5904 -0.1215
11372TIP3    H155607   3.070   0.439   2.578  0.1593  0.4192 -0.1552
11372TIP3    H255608   3.093   0.355   2.454 -0.1745 -0.7442  0.5550
11373TIP3   OH255609   2.434   4.775   0.027 -0.5199  0.1859 -0.2750
11373TIP3    H155610   2.511   4.720   0.014 -1.5850 -1.1597 -0.9353
11373TIP3    H255611   2.368   4.717   0.066 -1.5399  1.0629 -0.6479
11374TIP3   OH255612   5.386   1.606  15.754 -0.2845 -0.5638 -0.0615
11374TIP3    H155613   5.306   1.627  15.803 -0.2266 -1.1918  0.2952
11374TIP3    H255614   5.356   1.552  15.681 -0.4156  0.6298 -0.9118
11375TIP3   OH255615   1.390   4.604   1.199 -0.1828 -0.0117 -0.3068
11375TIP3    H155616   1.424   4.554   1.124 -0.3053 -0.0296 -0.3505
11375TIP3    H255617   1.469   4.631   1.247 -0.1272 -0.5912 -0.0610
11376TIP3   OH255618   5.456   3.322   1.372 -0.1409 -0.5507 -0.3581
11376TIP3    H155619   5.406   3.304   1.292 -1.9118 -1.2034  0.8684
11376TIP3    H255620   5.471   3.235   1.410  0.8087 -0.2493 -0.0460
11377TIP3   OH255621   1.211   0.161  12.753 -0.3177  1.0705 -0.1111
11377TIP3    H155622   1.148   0.159  12.825 -0.3268  1.0447 -0.1205
11377TIP3    H255623   1.214   0.253  12.726  0.8288  1.3554  0.9223
11378TIP3   OH255624   5.471   4.461   5.265  0.4167 -0.2282 -0.3751
11378TIP3    H155625   5.468   4.480   5.359  0.9878 -0.6126 -0.2795
11378TIP3    H255626   5.420   4.380   5.256 -0.1540  0.1378 -0.4833
11379TIP3   OH255627   2.739   0.870   4.450  0.4797 -0.2157 -0.1016
11379TIP3    H155628   2.795   0.937   4.412  2.1569 -0.8280  1.1922
11379TIP3    H255629   2.772   0.859   4.539 -0.7605 -1.6635  0.2077
11380TIP3   OH255630   1.042   5.381  15.443 -0.2271 -0.0070 -0.3196
11380TIP3    H155631   1.094   5.301  15.447 -0.6818 -0.3532 -1.1930
11380TIP3    H255632   0.958   5.357  15.483  0.8798  1.0686  2.8589
11381TIP3   OH255633   6.082   0.690  15.653  0.3142  0.5351 -0.1076
11381TIP3    H155634   6.094   0.595  15.656  0.2805  0.5087 -0.7385
11381TIP3    H255635   6.060   0.709  15.562 -1.0577  0.9987  0.3132
11382TIP3   OH255636   5.805   1.529  12.587  0.0580  0.1629  0.3640
11382TIP3    H155637   5.885   1.562  12.548 -0.9060 -0.7662 -2.5292
11382TIP3    H255638   5.832   1.492  12.672  2.7672 -0.6546 -0.8211
11383TIP3   OH255639   6.786   6.065   3.299 -0.4208 -0.3510  0.1563
11383TIP3    H155640   6.840   6.114   3.237 -1.8929  0.8467 -0.2136
11383TIP3    H255641   6.819   5.976   3.295  2.1016  0.5351  0.5890
11384TIP3   OH255642   5.968   5.293  12.888 -0.0672  1.0832  0.0397
11384TIP3    H155643   5.942   5.224  12.826  0.3256 -0.7265  1.8174
11384TIP3    H255644   6.018   5.355  12.835  0.4621 -0.5429 -1.4229
11385TIP3   OH255645   0.362   2.962   4.041 -0.0512  0.1525 -0.1831
11385TIP3    H155646   0.346   2.881   4.089 -0.9952  0.5167  0.1279
11385TIP3    H255647   0.456   2.977   4.051 -0.0434 -0.3772  0.5907
11386TIP3   OH255648   4.313   4.998   6.607 -0.2343  0.2692 -0.3114
11386TIP3    H155649   4.392   5.027   6.562  0.6466  0.0741  1.0884
11386TIP3    H255650   4.287   5.073   6.660 -2.1734  1.0590 -2.3042
11387TIP3   OH255651   6.441   0.794  16.123 -0.2002  0.5534 -0.0139
11387TIP3    H155652   6.505   0.725  16.105 -0.3533  0.4399 -0.1242
11387TIP3    H255653   6.432   0.792  16.219  1.0895  1.5902  0.1487
11388TIP3   OH255654   3.610   5.069   4.900 -0.4251 -0.0271 -0.3127
11388TIP3    H155655   3.693   5.107   4.928  0.8011 -1.9339 -1.2400
11388TIP3    H255656   3.610   5.080   4.805  0.8324 -3.8722 -0.8474
11389TIP3   OH255657   5.523   4.237  13.823  0.2741  0.6291  0.1030
11389TIP3    H155658   5.588   4.222  13.754  0.2125 -0.5285  0.2867
11389TIP3    H255659   5.563   4.200  13.902 -0.4353  0.2858  0.3018
11390TIP3   OH255660   0.517   0.606  14.301  0.1406  0.2009 -0.4780
11390TIP3    H155661   0.527   0.620  14.395  1.6216  3.3202 -1.0475
11390TIP3    H255662   0.442   0.660  14.276  0.6425  0.5222 -1.3222
11391TIP3   OH255663   3.053   5.356   5.395  0.0885 -0.0980 -0.0731
11391TIP3    H155664   3.018   5.341   5.307 -0.0941 -0.0226 -0.0128
11391TIP3    H255665   3.024   5.445   5.417  0.7054  0.1427 -0.2139
11392TIP3   OH255666   5.825   2.735   0.559 -0.1621 -0.4744 -0.0171
11392TIP3    H155667   5.887   2.726   0.487 -2.2935  2.0964 -2.3065
11392TIP3    H255668   5.875   2.713   0.637  3.0995 -0.2786 -1.9584
11393TIP3   OH255669   3.749   3.251  16.080  0.2605 -0.4082 -0.0824
11393TIP3    H155670   3.653   3.249  16.080  0.2464 -1.4566 -1.9756
11393TIP3    H255671   3.774   3.160  16.060  1.5724  0.5917 -3.2619
11394TIP3   OH255672   4.326   5.967  14.720  0.4690  0.1481 -0.3647
11394TIP3    H155673   4.284   5.918  14.791 -0.1525  0.1200 -0.7398
11394TIP3    H255674   4.418   5.973  14.745  0.3913 -0.5008  0.0816
11395TIP3   OH255675   6.398   2.554   3.150 -0.1253 -0.4217 -0.0684
11395TIP3    H155676   6.464   2.607   3.196  0.9832 -1.7202 -0.1166
11395TIP3    H255677   6.321   2.559   3.206  1.2527 -2.1205  2.0667
11396TIP3   OH255678   1.879   2.193   4.595 -0.5868 -0.3352  0.0355
11396TIP3    H155679   1.869   2.259   4.664  1.5800 -0.6502  0.6960
11396TIP3    H255680   1.799   2.141   4.600 -1.0788  0.5168  1.3815
11397TIP3   OH255681   6.229   4.077   3.220  0.0733 -0.3998  0.1424
11397TIP3    H155682   6.283   4.002   3.244  1.1621  0.0614 -0.7900
11397TIP3    H255683   6.273   4.114   3.143 -1.4366  0.1434 -0.4723
11398TIP3   OH255684   0.890   6.546  12.650  0.5002  0.3060 -0.4805
11398TIP3    H155685   0.936   6.468  12.618  0.9770  1.2982 -2.2752
11398TIP3    H255686   0.958   6.613  12.657 -0.4597  1.5057 -2.1913
11399TIP3   OH255687   2.767   3.697  15.856 -0.3776 -0.0249 -0.1259
11399TIP3    H155688   2.696   3.679  15.918  0.7609 -0.9161  0.9389
11399TIP3    H255689   2.774   3.793  15.856 -0.2824 -0.0181  1.2456
11400TIP3   OH255690   5.748   1.507   2.586  0.6284 -0.0842 -0.4033
11400TIP3    H155691   5.663   1.546   2.569  1.3843  2.6654  1.7763
11400TIP3    H255692   5.741   1.470   2.674  1.6223 -0.0379 -0.2956
11401TIP3   OH255693   6.671   6.717   0.624  0.1090 -1.0697  0.1848
11401TIP3    H155694   6.726   6.641   0.607  0.1976 -1.1910  1.0172
11401TIP3    H255695   6.622   6.730   0.542  0.9544 -1.3017 -0.3579
11402TIP3   OH255696   2.371   3.280  16.664 -0.0105  0.2717 -0.3585
11402TIP3    H155697   2.432   3.343  16.703 -1.2807 -0.0837  2.3049
11402TIP3    H255698   2.383   3.291  16.570  0.9852  3.3393  0.0543
11403TIP3   OH255699   5.954   5.743  13.804  0.6022 -0.3268  0.1045
11403TIP3    H155700   5.870   5.787  13.792 -0.0506 -1.2116  1.3038
11403TIP3    H255701   6.020   5.807  13.778 -0.5070 -0.2010 -2.4417
11404TIP3   OH255702   0.447   6.690   1.223 -0.3243  1.2936  0.2006
11404TIP3    H155703   0.379   6.722   1.164  0.0838  2.5878  0.4126
11404TIP3    H255704   0.525   6.682   1.169  0.0439  2.4571  0.5498
11405TIP3   OH255705   0.374   1.310  11.324 -0.3908 -0.3701  0.4674
11405TIP3    H155706   0.357   1.257  11.245 -1.7681  0.5483  0.1282
11405TIP3    H255707   0.373   1.400  11.292 -2.9888  0.1302  1.8692
11406TIP3   OH255708   1.876   5.767  13.507  0.5605 -0.3739 -0.5942
11406TIP3    H155709   1.965   5.800  13.517 -0.0820  0.7797  1.4953
11406TIP3    H255710   1.858   5.720  13.588 -1.4952  1.2932 -0.0307
11407TIP3   OH255711   1.999   2.568   5.935  0.6487  0.4717 -0.0094
11407TIP3    H155712   1.975   2.557   6.027 -0.5162  1.0314 -0.2409
11407TIP3    H255713   1.973   2.658   5.914 -0.5170 -0.1404 -1.3026
11408TIP3   OH255714   3.497   3.190   0.584 -0.3889  0.3878 -0.3142
11408TIP3    H155715   3.500   3.099   0.552 -0.2450  0.0245  0.7297
11408TIP3    H255716   3.536   3.186   0.671 -2.1787  1.1139  0.5495
11409TIP3   OH255717   6.193   2.926   1.225 -0.4927  1.1315 -0.4334
11409TIP3    H155718   6.195   2.895   1.316 -1.9017  1.4594 -0.2916
11409TIP3    H255719   6.134   3.001   1.226  0.1161  1.6411 -1.4757
11410TIP3   OH255720   1.166   0.868  13.410  0.4604 -1.0648 -0.0517
11410TIP3    H155721   1.198   0.924  13.481  0.8943 -0.4337 -0.7276
11410TIP3    H255722   1.245   0.829  13.373  0.2524 -1.2668 -0.2849
11411TIP3   OH255723   4.300   1.921   4.533 -0.0294  0.0466 -0.1168
11411TIP3    H155724   4.275   1.960   4.617 -1.5900 -1.4111  0.1253
11411TIP3    H255725   4.220   1.878   4.503  1.0937 -1.1933 -1.3618
11412TIP3   OH255726   6.673   3.490   4.366  0.2398  0.2877 -0.0078
11412TIP3    H155727   6.713   3.450   4.443  0.9511  0.6558 -0.1784
11412TIP3    H255728   6.714   3.445   4.292 -1.0001 -0.5962 -0.1658
11413TIP3   OH255729   3.519   0.835   1.582 -0.4131 -0.3567 -0.0387
11413TIP3    H155730   3.584   0.893   1.621 -0.7946 -0.6195  1.0072
11413TIP3    H255731   3.564   0.793   1.509 -0.2267  1.4889 -1.0048
11414TIP3   OH255732   5.671   2.743   1.020 -0.3804  0.7881 -0.0123
11414TIP3    H155733   5.591   2.698   1.048  0.1760 -0.3911 -0.3144
11414TIP3    H255734   5.719   2.678   0.968 -0.0970  2.0844 -1.3950
11415TIP3   OH255735   5.707   2.157   3.947  0.3681 -0.6749  0.6856
11415TIP3    H155736   5.679   2.193   4.031 -1.3013  0.8539 -0.4912
11415TIP3    H255737   5.773   2.218   3.915 -0.6471  0.0126 -0.1436
11416TIP3   OH255738   5.045   2.800   1.717  0.2500  0.1414  0.2254
11416TIP3    H155739   5.127   2.844   1.737  1.2194 -0.6516 -1.9328
11416TIP3    H255740   4.977   2.866   1.734  1.1920  0.4591  3.0977
11417TIP3   OH255741   5.034   2.928   4.498  0.1786 -0.1205  0.1437
11417TIP3    H155742   4.945   2.937   4.532 -0.1630 -0.3675 -0.6658
11417TIP3    H255743   5.065   2.845   4.534  0.8618  0.9484  2.1222
11418TIP3   OH255744   2.887   0.318  16.529  0.1849  0.6414 -0.0704
11418TIP3    H155745   2.873   0.280  16.615  1.0584  1.1480  0.3052
11418TIP3    H255746   2.832   0.397  16.528  1.9984  1.9643  0.9451
11419TIP3   OH255747   4.477   0.471   4.504  0.4099 -0.4031 -0.1682
11419TIP3    H155748   4.520   0.529   4.568  1.5581 -0.5384 -0.7991
11419TIP3    H255749   4.384   0.479   4.524  0.7376 -0.3432  1.4410
11420TIP3   OH255750   5.010   1.660  12.863 -0.1240 -0.0401  0.5389
11420TIP3    H155751   5.044   1.572  12.881  2.4318  0.8289  0.1205
11420TIP3    H255752   4.979   1.691  12.949  2.2484 -0.0001  1.4155
11421TIP3   OH255753   0.679   5.387   0.329  0.5176 -0.0077  0.3982
11421TIP3    H155754   0.683   5.480   0.350  0.2990  0.4209 -1.3435
11421TIP3    H255755   0.661   5.385   0.235  1.9542 -1.8062  0.1427
11422TIP3   OH255756   6.508   5.652  13.292 -0.1460 -0.2176  0.3415
11422TIP3    H155757   6.423   5.645  13.335 -1.8533 -1.2446 -2.9767
11422TIP3    H255758   6.537   5.562  13.281  1.0523  0.1031  0.8672
11423TIP3   OH255759   0.502   3.699   1.031  0.1693 -0.3355 -0.4597
11423TIP3    H155760   0.536   3.713   1.119  0.9977  0.7616 -0.9394
11423TIP3    H255761   0.407   3.702   1.041  0.2608 -0.5309  0.4451
11424TIP3   OH255762   0.463   0.139  15.675  0.2677 -0.1079  0.5694
11424TIP3    H155763   0.393   0.184  15.628 -1.0802  0.1210  2.7155
11424TIP3    H255764   0.431   0.049  15.684  0.3916 -0.0845  1.2689
11425TIP3   OH255765   1.138   0.237  16.407  0.0102  0.0521 -0.0484
11425TIP3    H155766   1.230   0.214  16.396  0.6024  2.2586  0.0347
11425TIP3    H255767   1.131   0.265  16.498 -0.1945  2.1886 -0.7001
11426TIP3   OH255768   0.651   6.056   6.145 -0.3419 -0.0272 -0.6230
11426TIP3    H155769   0.659   6.151   6.138  0.6075 -0.1170 -0.8119
11426TIP3    H255770   0.576   6.042   6.204  0.2982  0.8507  0.4181
11427TIP3   OH255771   4.255   2.046  13.649 -0.3235 -0.2014  0.4993
11427TIP3    H155772   4.214   1.959  13.648 -0.8892  0.0544 -2.3450
11427TIP3    H255773   4.278   2.062  13.558 -0.5666  2.8209  0.9391
11428TIP3   OH255774   5.135   6.493  12.269  0.8853 -0.3041  0.1800
11428TIP3    H155775   5.201   6.498  12.338  1.3358  0.1350 -0.2833
11428TIP3    H255776   5.130   6.582  12.233  1.9424 -0.9257 -1.5534
11429TIP3   OH255777   5.327   4.865  15.121  0.2272 -0.6331 -0.7816
11429TIP3    H155778   5.285   4.950  15.112  0.0461 -0.6345 -0.0375
11429TIP3    H255779   5.418   4.880  15.095 -0.0619 -0.4583 -1.6772
11430TIP3   OH255780   1.071   5.823  15.468  0.0478 -0.4150  0.3670
11430TIP3    H155781   1.001   5.848  15.528 -0.9774 -2.4965  0.0915
11430TIP3    H255782   1.127   5.764  15.520  0.2616 -0.6504 -0.1274
11431TIP3   OH255783   1.736   1.544  10.740 -0.3727 -0.3702  0.0329
11431TIP3    H155784   1.676   1.500  10.680  0.4108 -0.9911 -0.3142
11431TIP3    H255785   1.794   1.595  10.682  0.0244 -0.5170  0.3021
11432TIP3   OH255786   5.691   3.145  13.041 -0.4115 -0.1828  0.0962
11432TIP3    H155787   5.677   3.203  13.116  2.0542  0.9773 -0.2592
11432TIP3    H255788   5.614   3.089  13.039 -1.3867  0.9853  2.3835
11433TIP3   OH255789   2.638   6.411  11.245 -0.8256 -0.5680  0.1116
11433TIP3    H155790   2.623   6.501  11.274 -0.2480 -0.4246 -0.0153
11433TIP3    H255791   2.624   6.414  11.150 -0.0014 -0.4268 -0.0094
11434TIP3   OH255792   3.848   5.386  11.472  0.3787 -0.2503 -0.1354
11434TIP3    H155793   3.771   5.434  11.504  0.6502 -1.0841  1.9053
11434TIP3    H255794   3.923   5.439  11.499  0.5711 -0.1174 -0.9167
11435TIP3   OH255795   4.312   3.149   6.436  0.0498 -0.0183 -0.6264
11435TIP3    H155796   4.259   3.218   6.396  0.6302  0.3946 -0.6950
11435TIP3    H255797   4.254   3.074   6.441  0.1525 -0.2824 -2.8913
11436TIP3   OH255798   2.575   4.215  16.131 -0.1488 -0.2102 -0.1035
11436TIP3    H155799   2.564   4.277  16.059 -2.1866 -1.0680 -0.5730
11436TIP3    H255800   2.570   4.129  16.089  0.4208 -0.7048  0.8291
11437TIP3   OH255801   4.040   0.395  10.627 -0.0957 -0.5386  0.0256
11437TIP3    H155802   3.995   0.459  10.683  1.8890  1.7092 -0.8598
11437TIP3    H255803   3.980   0.380  10.554 -1.2175 -0.8405  1.0002
11438TIP3   OH255804   5.805   4.175   1.832  0.5510 -0.3828 -0.3668
11438TIP3    H155805   5.778   4.097   1.783  1.1007 -0.1536 -1.0431
11438TIP3    H255806   5.898   4.159   1.852  0.5681 -0.0632 -0.1936
11439TIP3   OH255807   4.653   1.885  13.532 -0.2501  0.9249 -0.4004
11439TIP3    H155808   4.656   1.980  13.535 -0.7449  0.8739  2.4378
11439TIP3    H255809   4.560   1.864  13.533 -0.1657  0.4066 -1.8546
11440TIP3   OH255810   6.301   5.155  15.301 -0.4448  0.5409  0.0686
11440TIP3    H155811   6.255   5.139  15.219 -0.4714  1.7879 -0.1559
11440TIP3    H255812   6.256   5.229  15.340 -1.3377 -0.9229  1.9092
11441TIP3   OH255813   2.409   6.733   0.262 -0.1315  0.0014 -0.4747
11441TIP3    H155814   2.387   6.659   0.319  1.8307 -1.3993 -1.4790
11441TIP3    H255815   2.454   6.795   0.320  1.9425 -1.4597 -0.4705
11442TIP3   OH255816   4.967   5.192   1.762  0.4349 -0.1926  0.7734
11442TIP3    H155817   4.949   5.253   1.691  0.0245 -3.0711 -1.7201
11442TIP3    H255818   5.059   5.168   1.752 -0.5480 -3.4254 -1.1797
11443TIP3   OH255819   1.738   6.122  14.805 -0.4405  0.4445  0.0011
11443TIP3    H155820   1.666   6.184  14.820 -1.2370 -0.4849  0.0027
11443TIP3    H255821   1.774   6.107  14.892 -0.5873  0.4950  0.0728
11444TIP3   OH255822   4.668   3.328   5.421  0.4034 -0.1087 -0.0141
11444TIP3    H155823   4.651   3.403   5.364  1.9363 -0.1133 -0.4993
11444TIP3    H255824   4.730   3.361   5.486  1.9783 -1.2428 -0.9122
11445TIP3   OH255825   4.180   0.063   2.819  0.7612  0.4228 -0.3854
11445TIP3    H155826   4.228   0.075   2.737 -0.4516  1.0010 -1.0268
11445TIP3    H255827   4.181   0.149   2.860  0.5389  0.3650 -0.2579
11446TIP3   OH255828   1.238   5.450  12.329 -0.3387  0.2141 -0.1719
11446TIP3    H155829   1.210   5.528  12.375 -0.0947 -0.5996  1.3825
11446TIP3    H255830   1.263   5.481  12.242 -0.6482  1.7877  0.2934
11447TIP3   OH255831   6.357   2.034   5.542 -0.0095 -0.1344  0.1524
11447TIP3    H155832   6.285   2.077   5.495  2.0341  1.6819 -1.4376
11447TIP3    H255833   6.347   2.064   5.633 -1.5452 -0.3268  0.0603
11448TIP3   OH255834   0.761   5.785  10.715 -0.0931 -0.3201 -0.8175
11448TIP3    H155835   0.726   5.705  10.675 -1.1702 -0.1246 -0.2770
11448TIP3    H255836   0.732   5.856  10.658 -0.6631 -0.1475 -0.3184
11449TIP3   OH255837   1.136   1.916   1.417 -0.0321  0.1393 -0.2040
11449TIP3    H155838   1.050   1.955   1.400  0.5798  1.9082  0.6310
11449TIP3    H255839   1.185   1.928   1.336 -0.6511 -1.1670 -0.7952
11450TIP3   OH255840   2.077   2.492  13.365 -0.3684 -0.1169 -0.2126
11450TIP3    H155841   2.131   2.565  13.334  0.9232  0.0392  2.2843
11450TIP3    H255842   2.045   2.450  13.285  2.5586  0.4760 -1.7685
11451TIP3   OH255843   6.599   5.736  11.458  0.3270 -0.4661 -0.7216
11451TIP3    H155844   6.593   5.709  11.367  0.2930 -2.1480 -0.2428
11451TIP3    H255845   6.552   5.819  11.463  0.3609 -0.3557 -2.2285
11452TIP3   OH255846   2.127   4.746   6.008  0.0532  0.3756 -0.5851
11452TIP3    H155847   2.197   4.723   6.070 -1.0163 -0.0427  0.5050
11452TIP3    H255848   2.046   4.736   6.059 -0.7277  2.2517 -1.3924
11453TIP3   OH255849   4.721   5.176   0.653 -0.1270 -0.2198 -0.2735
11453TIP3    H155850   4.722   5.270   0.672  0.3443 -0.9841  3.8113
11453TIP3    H255851   4.793   5.163   0.592  0.8419  1.8172  0.3998
11454TIP3   OH255852   5.987   1.253  10.534  0.1071 -0.2326 -0.5833
11454TIP3    H155853   6.065   1.202  10.512  0.0852 -0.7698  0.5112
11454TIP3    H255854   6.017   1.315  10.600 -0.5370 -0.9777  0.4347
11455TIP3   OH255855   1.531   2.428   3.494  0.0985  0.4730  0.0572
11455TIP3    H155856   1.554   2.341   3.525  0.0956  0.9957  1.5549
11455TIP3    H255857   1.551   2.426   3.400  1.1341 -0.7806  0.2915
11456TIP3   OH255858   1.141   1.509   2.816  0.0758  0.0683 -0.0993
11456TIP3    H155859   1.121   1.416   2.802  1.7753 -0.2987 -0.1672
11456TIP3    H255860   1.056   1.553   2.810 -0.5930 -1.3438 -1.2500
11457TIP3   OH255861   4.796   1.785  15.219 -0.1857  0.4269  0.0127
11457TIP3    H155862   4.704   1.809  15.219  0.0177  1.2192 -0.4621
11457TIP3    H255863   4.829   1.814  15.134 -0.2630 -2.8751 -1.2532
11458TIP3   OH255864   6.457   3.661   2.004 -0.3380  0.3279 -0.7378
11458TIP3    H155865   6.499   3.697   2.082 -0.5621 -0.3133 -0.3189
11458TIP3    H255866   6.512   3.692   1.932  1.3515 -1.1366 -0.1407
11459TIP3   OH255867   6.803   0.691   2.099 -0.0302 -1.4330  0.1394
11459TIP3    H155868   6.824   0.662   2.188 -0.1635 -0.3760  0.5155
11459TIP3    H255869   6.882   0.735   2.068  0.1569 -2.1515 -0.4220
11460TIP3   OH255870   5.921   5.034   5.064 -0.6221 -0.0221 -0.3093
11460TIP3    H155871   5.845   5.005   5.013 -1.6690  0.3851  0.9598
11460TIP3    H255872   5.991   5.044   5.000 -1.7838  0.0872 -1.5990
11461TIP3   OH255873   1.228   3.246   2.145 -0.2549  0.0649  0.0641
11461TIP3    H155874   1.148   3.299   2.141  0.0222  0.4464 -0.6055
11461TIP3    H255875   1.199   3.159   2.171 -0.6716  0.6517  1.6387
11462TIP3   OH255876   5.981   2.669  11.968  0.4486  0.1339 -0.5929
11462TIP3    H155877   6.072   2.689  11.946  1.0940 -0.3707  1.4599
11462TIP3    H255878   5.953   2.742  12.023 -0.2784  0.1234 -0.9475
11463TIP3   OH255879   4.189   0.913   3.752 -0.6018  0.7397  0.3214
11463TIP3    H155880   4.104   0.956   3.763  0.1509  1.5479  3.3897
11463TIP3    H255881   4.250   0.969   3.799  0.9432 -1.9376  1.5697
11464TIP3   OH255882   2.749   6.472   5.022  0.0948  0.1521  0.4607
11464TIP3    H155883   2.817   6.483   5.088  0.3616  1.8486 -0.0937
11464TIP3    H255884   2.687   6.544   5.038 -1.6034 -1.3720  0.9809
11465TIP3   OH255885   1.592   2.762   1.775 -0.2626  0.6928 -0.3704
11465TIP3    H155886   1.563   2.777   1.685 -1.0351 -0.0082 -0.2380
11465TIP3    H255887   1.512   2.763   1.827 -0.0069 -0.7546  0.0600
11466TIP3   OH255888   2.135   5.568  16.885  0.5322  0.2818 -0.6590
11466TIP3    H155889   2.075   5.518  16.829 -1.5715  2.3034 -0.3019
11466TIP3    H255890   2.189   5.501  16.928 -0.4292 -1.5185 -2.1679
11467TIP3   OH255891   5.206   1.593   5.788 -0.1499  0.0736 -0.0850
11467TIP3    H155892   5.192   1.532   5.861 -1.2966 -0.9523 -1.1255
11467TIP3    H255893   5.145   1.665   5.805 -0.8901 -0.4774 -0.3499
11468TIP3   OH255894   6.746   0.410  14.911  0.4062  0.0824 -0.1121
11468TIP3    H155895   6.743   0.327  14.863  1.3763  0.6452 -1.1822
11468TIP3    H255896   6.749   0.477  14.842 -1.5587  1.0778  0.7189
11469TIP3   OH255897   4.663   5.521   4.416  0.0280  0.0046 -0.0282
11469TIP3    H155898   4.729   5.462   4.454  0.9467 -0.2811 -2.0250
11469TIP3    H255899   4.633   5.476   4.337 -1.1482  1.0401 -0.1847
11470TIP3   OH255900   4.720   0.149  16.274  0.2659 -0.0129  0.0147
11470TIP3    H155901   4.745   0.135  16.366 -0.4897 -0.1312  0.2011
11470TIP3    H255902   4.669   0.229  16.274 -0.0748 -0.2289 -0.2489
11471TIP3   OH255903   4.349   1.015   3.286 -0.1085  0.1660 -0.0851
11471TIP3    H155904   4.272   1.072   3.280 -1.5731 -1.6799  0.6143
11471TIP3    H255905   4.336   0.967   3.368  0.6401 -1.7796 -1.0973
11472TIP3   OH255906   3.679   4.605  13.255  0.5705 -0.5937  0.4789
11472TIP3    H155907   3.584   4.594  13.255  0.6501 -1.3361  1.7699
11472TIP3    H255908   3.694   4.695  13.284  0.1705  0.6114 -2.8541
11473TIP3   OH255909   0.333   2.817  12.305  0.4942 -0.4361 -0.3270
11473TIP3    H155910   0.301   2.907  12.311  0.4684 -0.3106 -2.1153
11473TIP3    H255911   0.268   2.765  12.353  0.1098  0.4098  0.0682
11474TIP3   OH255912   3.763   1.010   1.565 -0.4165  0.2224 -0.2292
11474TIP3    H155913   3.855   0.991   1.549  0.0776  1.8029  0.6772
11474TIP3    H255914   3.731   1.043   1.481  0.0384  0.4640 -0.3073
11475TIP3   OH255915   2.745   3.470  13.849  0.3797 -0.9232  0.3325
11475TIP3    H155916   2.789   3.551  13.875 -0.9926  0.0755 -0.3877
11475TIP3    H255917   2.696   3.493  13.770  0.8821 -2.7585 -0.5522
11476TIP3   OH255918   2.695   5.467   3.388  0.1819 -0.6251  0.3463
11476TIP3    H155919   2.645   5.548   3.384 -0.0581 -0.7526  0.7299
11476TIP3    H255920   2.638   5.400   3.351  0.8319 -0.4030 -1.0717
11477TIP3   OH255921   0.225   5.546   4.248  0.5370 -0.3637  0.2387
11477TIP3    H155922   0.321   5.546   4.254  0.5044 -1.4994  0.9036
11477TIP3    H255923   0.206   5.482   4.179  0.3429  1.7955 -1.7735
11478TIP3   OH255924   1.469   1.802  15.265 -0.3550 -0.6919 -0.2946
11478TIP3    H155925   1.439   1.825  15.353 -0.2760  1.2936 -0.7664
11478TIP3    H255926   1.409   1.733  15.237  0.7692 -2.7022  2.0158
11479TIP3   OH255927   5.912   3.838  12.324  0.0708 -0.0743 -0.0945
11479TIP3    H155928   5.937   3.807  12.237  0.2781 -1.4060  0.4321
11479TIP3    H255929   5.868   3.764  12.364  1.7542 -0.1357  1.6993
11480TIP3   OH255930   2.473   0.535  15.771 -0.7881 -0.1611 -0.4083
11480TIP3    H155931   2.513   0.524  15.858 -0.2978  1.2278 -0.4467
11480TIP3    H255932   2.431   0.621  15.775 -0.6994 -0.0623 -1.5812
11481TIP3   OH255933   1.924   0.775  12.171 -0.3403 -0.0847 -0.0272
11481TIP3    H155934   1.868   0.735  12.104 -0.3687 -0.1378  0.0268
11481TIP3    H255935   1.911   0.720  12.248 -0.6825  0.2632  0.1631
11482TIP3   OH255936   3.088   1.551  16.691 -1.0583 -0.8559 -0.3318
11482TIP3    H155937   3.085   1.592  16.604 -2.7644  1.4874  0.7749
11482TIP3    H255938   3.008   1.581  16.735  0.3567 -0.9829  2.4682
11483TIP3   OH255939   4.738   6.776  15.568  0.3498 -0.0132  0.1667
11483TIP3    H155940   4.659   6.723  15.584  0.3261  0.2434  0.8894
11483TIP3    H255941   4.810   6.713  15.571  0.1087 -0.3732 -1.2234
11484TIP3   OH255942   0.585   3.840   1.728 -0.4338  0.0407  0.0132
11484TIP3    H155943   0.583   3.806   1.818 -0.0367 -0.4360 -0.1583
11484TIP3    H255944   0.654   3.790   1.685  0.0747  0.9709 -0.2777
11485TIP3   OH255945   4.581   4.717   3.064  0.1485 -0.1339  0.2237
11485TIP3    H155946   4.505   4.709   3.122  0.1285 -0.2806  0.1775
11485TIP3    H255947   4.547   4.763   2.987  0.8022  2.6184  1.5037
11486TIP3   OH255948   1.706   5.505  12.214 -0.5621 -0.0466  0.7179
11486TIP3    H155949   1.747   5.461  12.289 -1.2718 -0.5613  0.8206
11486TIP3    H255950   1.630   5.550  12.251  0.3179  1.5076  0.6509
11487TIP3   OH255951   1.101   6.768   1.878  0.4365 -0.3066  0.3292
11487TIP3    H155952   1.095   6.716   1.958  1.0042 -0.1587  0.4681
11487TIP3    H255953   1.195   6.780   1.864  0.2813  2.0742  1.1906
11488TIP3   OH255954   0.020   3.698   2.769 -0.2407 -0.2378  0.6089
11488TIP3    H155955  -0.051   3.756   2.743 -1.8993 -1.8586  1.4025
11488TIP3    H255956   0.075   3.691   2.691 -1.5523  0.1860 -0.3689
11489TIP3   OH255957   1.717   2.823   2.629  0.4176  0.2639  0.4131
11489TIP3    H155958   1.624   2.841   2.613  0.5461  0.4350 -0.1683
11489TIP3    H255959   1.743   2.888   2.695 -0.2097 -0.6779  1.6032
11490TIP3   OH255960   6.595   3.387   2.033  0.0028  0.1932 -0.0478
11490TIP3    H155961   6.583   3.482   2.027 -2.1229 -0.0528 -0.1046
11490TIP3    H255962   6.664   3.367   1.970 -0.1517  1.5921 -0.6747
11491TIP3   OH255963   3.621   6.546   4.395 -0.2674  0.3032  0.3319
11491TIP3    H155964   3.602   6.482   4.463 -0.3102 -0.6038 -0.5116
11491TIP3    H255965   3.668   6.616   4.439 -0.7725 -0.0167  1.3895
11492TIP3   OH255966   3.791   3.913  11.962  0.6742 -0.4203  0.4797
11492TIP3    H155967   3.811   3.855  11.888  1.0148  0.0120  0.2290
11492TIP3    H255968   3.705   3.885  11.992 -0.8733  1.4055 -2.0432
11493TIP3   OH255969   5.587   1.028  10.612  0.2888  0.3703 -0.4027
11493TIP3    H155970   5.513   1.002  10.558 -0.7291  2.7041 -0.1917
11493TIP3    H255971   5.656   1.050  10.549 -0.5212  1.9756 -0.7756
11494TIP3   OH255972   0.788   0.753   1.178 -0.0994  0.4853  0.3286
11494TIP3    H155973   0.845   0.786   1.247  0.0086  1.8400 -0.3772
11494TIP3    H255974   0.848   0.717   1.112 -0.1659 -0.1046  0.5888
11495TIP3   OH255975   4.996   4.237  12.779 -0.4374 -0.2717  0.1508
11495TIP3    H155976   5.081   4.199  12.760 -0.1821  0.1581  0.4247
11495TIP3    H255977   4.976   4.209  12.869  0.6575  1.8587  1.0995
11496TIP3   OH255978   1.777   3.471  16.647  0.0049 -0.3891  0.0841
11496TIP3    H155979   1.837   3.413  16.599 -0.2345 -0.1430 -0.5168
11496TIP3    H255980   1.727   3.412  16.703  1.4883 -0.5029  1.3379
11497TIP3   OH255981   5.123   0.865  13.204  0.2213  0.4736 -0.0254
11497TIP3    H155982   5.126   0.939  13.144  0.8344  0.2119 -0.3146
11497TIP3    H255983   5.210   0.825  13.198  0.2297  0.3390  0.8938
11498TIP3   OH255984   1.302   0.478  15.784  0.2568  0.5307 -0.8242
11498TIP3    H155985   1.243   0.527  15.841  0.6048  1.4032 -1.2125
11498TIP3    H255986   1.247   0.448  15.711 -0.0075  0.1165 -0.4580
11499TIP3   OH255987   6.590   1.833   2.528  0.0746 -0.3547  0.3666
11499TIP3    H155988   6.656   1.849   2.596  0.2486 -1.0969  0.3805
11499TIP3    H255989   6.522   1.782   2.573 -0.5868  0.5418  0.3939
11500TIP3   OH255990   3.058   5.228  16.709  0.2073 -0.5794  0.5795
11500TIP3    H155991   3.018   5.286  16.773 -0.0110 -0.4420  0.3234
11500TIP3    H255992   3.106   5.287  16.650  0.0310 -0.6666  0.3493
11501TIP3   OH255993   1.860   0.136   2.044  0.1981 -0.5164 -0.1261
11501TIP3    H155994   1.834   0.109   2.132 -0.4652  0.6292  0.0479
11501TIP3    H255995   1.901   0.059   2.006  0.2755 -1.0959  1.1074
11502TIP3   OH255996   1.652   0.316  13.150 -0.5222 -0.2225  0.1682
11502TIP3    H155997   1.620   0.244  13.096 -2.2200 -0.3162  1.2532
11502TIP3    H255998   1.740   0.290  13.175 -0.7681 -1.4861 -0.2462
11503TIP3   OH255999   2.767   0.974   4.036 -0.2512 -0.5235 -0.0128
11503TIP3    H156000   2.719   1.031   3.976  1.0927  0.7270  0.0781
11503TIP3    H256001   2.842   0.942   3.985  0.1363 -0.5658  0.5766
11504TIP3   OH256002   3.279   2.623  14.140 -0.4527  0.1265  0.3408
11504TIP3    H156003   3.257   2.691  14.203 -0.7968 -0.6620  1.0846
11504TIP3    H256004   3.362   2.650  14.102 -0.2645  0.6220  1.1119
11505TIP3   OH256005   6.214   4.498   1.122 -0.1417  0.2024 -0.1172
11505TIP3    H156006   6.240   4.518   1.032  1.6179  0.8376  0.5231
11505TIP3    H256007   6.175   4.579   1.154  0.5214  0.4171  0.1515
11506TIP3   OH256008   0.289   3.191  12.007  0.2506  0.0213 -0.3447
11506TIP3    H156009   0.301   3.102  11.975 -1.1783 -0.2301 -0.2537
11506TIP3    H256010   0.225   3.229  11.946 -1.1536  0.1081  1.1626
11507TIP3   OH256011   4.336   0.727  12.135  0.5482  0.4907  0.5059
11507TIP3    H156012   4.262   0.675  12.105 -0.3992  2.4228 -0.6051
11507TIP3    H256013   4.413   0.683  12.098 -0.0100 -1.4332  1.5429
11508TIP3   OH256014   5.505   4.028   4.917 -0.4608  0.1162  0.4086
11508TIP3    H156015   5.420   3.985   4.914 -0.2049 -0.4942  1.9036
11508TIP3    H256016   5.568   3.957   4.913  0.0018  0.5675 -0.6675
11509TIP3   OH256017   5.885   5.610   3.063  0.2935 -0.0473 -0.3394
11509TIP3    H156018   5.892   5.532   3.118 -1.6761 -0.9716 -1.3644
11509TIP3    H256019   5.794   5.637   3.071  0.4748  0.9661 -1.5903
11510TIP3   OH256020   6.356   1.879   1.627 -0.4151 -0.0866 -0.3917
11510TIP3    H156021   6.362   1.815   1.556  2.2518  0.8960 -1.1046
11510TIP3    H256022   6.374   1.828   1.706  2.3801 -0.1349 -1.0230
11511TIP3   OH256023   4.179   1.713   1.270 -0.2332 -0.6045 -0.5502
11511TIP3    H156024   4.137   1.793   1.238 -0.3150 -0.2159  0.5117
11511TIP3    H256025   4.156   1.646   1.206 -0.2705  0.1931 -1.3819
11512TIP3   OH256026   5.140   1.231  14.245  0.2736  0.3481  0.8918
11512TIP3    H156027   5.148   1.144  14.284  0.2168 -0.8570 -1.7190
11512TIP3    H256028   5.215   1.280  14.279  1.2371 -1.2404  1.0644
11513TIP3   OH256029   0.727   4.429   2.392 -0.5664 -0.5387  0.5757
11513TIP3    H156030   0.774   4.490   2.448 -1.7759 -0.5402  1.6319
11513TIP3    H256031   0.657   4.395   2.448 -1.2373 -1.2381 -0.6674
11514TIP3   OH256032   1.887   2.390  17.121 -0.2529 -0.0584  0.1589
11514TIP3    H156033   1.945   2.465  17.133  0.2168 -0.3326 -0.3999
11514TIP3    H256034   1.930   2.336  17.055 -0.0697 -1.3430  1.3149
11515TIP3   OH256035   2.466   3.553  11.715  0.5715  0.6283 -0.1649
11515TIP3    H156036   2.453   3.540  11.621 -0.1791  0.8866 -0.0968
11515TIP3    H256037   2.382   3.585  11.747  0.5704 -0.2706  0.7436
11516TIP3   OH256038   4.318   3.209  16.585 -0.1246  0.3806  0.1497
11516TIP3    H156039   4.285   3.276  16.645 -0.6042 -0.1092  0.4407
11516TIP3    H256040   4.329   3.132  16.639 -0.6212 -0.0841 -0.4075
11517TIP3   OH256041   3.932   2.352  12.527 -0.3427  0.5953  0.0299
11517TIP3    H156042   3.841   2.323  12.519 -0.2049  0.1529  0.0726
11517TIP3    H256043   3.955   2.334  12.618 -0.2061  0.6966  0.0158
11518TIP3   OH256044   3.882   5.892   2.774  0.1297  0.5496 -0.3778
11518TIP3    H156045   3.934   5.970   2.762 -2.6626  2.3426 -1.3214
11518TIP3    H256046   3.892   5.870   2.867  2.0799  1.1472 -0.4410
11519TIP3   OH256047   2.905   4.074  12.470 -0.1216 -0.2923  0.2842
11519TIP3    H156048   2.905   4.000  12.410 -0.7433  0.1276 -0.2427
11519TIP3    H256049   2.963   4.138  12.430  1.3889 -0.9761  1.3546
11520TIP3   OH256050   5.423   0.526  16.235  0.6650 -0.3160  0.5423
11520TIP3    H156051   5.331   0.539  16.212  0.8737  1.1495  0.5324
11520TIP3    H256052   5.464   0.611  16.222  1.6432 -0.4865  2.3096
11521TIP3   OH256053   3.909   4.289  16.819  0.5564 -0.0526 -0.4172
11521TIP3    H156054   3.969   4.261  16.888  0.5792 -0.8638 -0.7612
11521TIP3    H256055   3.934   4.379  16.800  0.1032  0.4099  1.1220
11522TIP3   OH256056   4.040   1.604  13.318  0.2735  0.4507  0.1592
11522TIP3    H156057   3.951   1.573  13.331 -0.1349  1.9251  0.9567
11522TIP3    H256058   4.095   1.541  13.364 -0.2453 -1.1079 -1.2883
11523TIP3   OH256059   2.945   1.864  16.463 -0.1509  0.3554  0.2728
11523TIP3    H156060   2.866   1.863  16.516  0.7028  2.2388  1.6444
11523TIP3    H256061   3.017   1.854  16.525  0.7120 -1.9695 -1.0208
11524TIP3   OH256062   5.087   6.478  10.958  0.2098  0.2788 -0.3671
11524TIP3    H156063   5.100   6.401  10.902 -1.2520 -0.8675  0.8254
11524TIP3    H256064   5.090   6.552  10.897 -2.9136 -1.0354 -2.2473
11525TIP3   OH256065   3.241   6.189   0.836  0.4886  0.2401  0.6674
11525TIP3    H156066   3.201   6.221   0.917  0.2470 -0.9125  1.0098
11525TIP3    H256067   3.180   6.215   0.767 -0.2855 -0.5238  1.0679
11526TIP3   OH256068   3.680   5.854   4.285 -0.0239 -0.2030  0.9660
11526TIP3    H156069   3.644   5.940   4.304 -0.6478 -0.2875  0.1924
11526TIP3    H256070   3.773   5.869   4.271 -0.3152  0.5220 -0.2907
11527TIP3   OH256071   4.534   4.323  15.323 -0.2108  0.2042  0.0628
11527TIP3    H156072   4.568   4.391  15.265 -0.2195  1.8683  1.9389
11527TIP3    H256073   4.556   4.241  15.279  1.3027  1.3748 -1.4503
11528TIP3   OH256074   5.172   2.969  17.158 -0.0623 -0.1521  0.0128
11528TIP3    H156075   5.151   3.055  17.120  1.1318 -0.9023 -2.4768
11528TIP3    H256076   5.246   2.987  17.216  0.0496  0.5377 -0.3277
11529TIP3   OH256077   0.983   6.788  15.913 -0.2231  0.2399  0.2151
11529TIP3    H156078   0.987   6.863  15.973 -1.2816  0.1602  0.3973
11529TIP3    H256079   1.022   6.716  15.962 -1.0408  0.1876  0.7963
11530TIP3   OH256080   6.213   3.577   4.615  0.0956 -0.1908  0.1426
11530TIP3    H156081   6.135   3.624   4.645  0.4019 -0.8055  1.9981
11530TIP3    H256082   6.271   3.645   4.581  0.2920  0.7315  2.2639
11531TIP3   OH256083   4.278   2.571   4.883  0.2246  0.3803 -0.0400
11531TIP3    H156084   4.229   2.616   4.814 -0.8215  1.6950  1.5195
11531TIP3    H256085   4.330   2.640   4.923 -0.0346 -0.1490  1.2126
11532TIP3   OH256086   1.083   4.410  15.751 -0.1618  0.1771 -0.2329
11532TIP3    H156087   1.118   4.371  15.831 -0.7315  0.1025 -0.0212
11532TIP3    H256088   1.137   4.372  15.681 -0.1926 -0.3774  0.0412
11533TIP3   OH256089   1.680   1.157  10.899  0.0945  0.1150  0.3718
11533TIP3    H156090   1.605   1.153  10.840 -0.1409 -2.5741  0.7679
11533TIP3    H256091   1.756   1.137  10.843 -0.0869 -2.0647  0.8497
11534TIP3   OH256092   0.956   5.819  13.499  0.5042 -0.0831 -0.2178
11534TIP3    H156093   1.006   5.893  13.535  1.2332 -0.4652 -0.4573
11534TIP3    H256094   0.997   5.801  13.415  1.0813 -1.5366  0.3704
11535TIP3   OH256095   0.735   1.555   4.189  0.0359 -0.3410 -0.5806
11535TIP3    H156096   0.704   1.608   4.115 -0.5485  0.6991  0.3918
11535TIP3    H256097   0.716   1.608   4.266  0.9265 -1.2812  0.3050
11536TIP3   OH256098   4.069   2.455   2.038  0.2061  0.0163  0.2113
11536TIP3    H156099   4.148   2.494   2.000 -0.7756 -0.3466 -2.3222
11536TIP3    H256100   3.998   2.511   2.008 -0.7660 -1.2224  0.1588
11537TIP3   OH256101   6.533   4.470   5.177 -0.5266  0.1685  0.0363
11537TIP3    H156102   6.532   4.545   5.236 -0.0971  1.4697 -1.6004
11537TIP3    H256103   6.500   4.397   5.231  0.2129  1.2367  1.9875
11538TIP3   OH256104   2.314   0.926   3.349 -0.0090 -0.4060  0.8290
11538TIP3    H156105   2.377   0.854   3.356 -0.5769 -0.7931  2.1577
11538TIP3    H256106   2.314   0.966   3.436  0.1254  1.0566  0.1618
11539TIP3   OH256107   3.680   3.386  14.695 -0.3200 -0.8421  0.1512
11539TIP3    H156108   3.594   3.402  14.735  0.3110 -0.5449  1.4343
11539TIP3    H256109   3.720   3.473  14.689 -0.1222 -0.9743 -0.4845
11540TIP3   OH256110   6.346   2.929   2.777  0.4384 -0.4680  0.0791
11540TIP3    H156111   6.274   2.886   2.731 -1.1139 -1.9756  3.7341
11540TIP3    H256112   6.366   2.871   2.851  4.0908  0.9049  0.2818
11541TIP3   OH256113   0.125   6.545  11.892  0.2280 -0.6692  0.1277
11541TIP3    H156114   0.147   6.530  11.800  1.5111  0.8117  0.1830
11541TIP3    H256115   0.040   6.589  11.890 -0.1077 -1.3330 -0.3091
11542TIP3   OH256116   2.238   2.000   0.060  0.0762  1.0150 -0.2469
11542TIP3    H156117   2.290   1.977   0.137 -0.2892  1.3726  0.1118
11542TIP3    H256118   2.227   1.918   0.013 -2.4457  0.1181  1.7559
11543TIP3   OH256119   5.239   4.738   4.649  0.1412  0.4714 -0.0944
11543TIP3    H156120   5.320   4.788   4.635  0.3922  0.3125  0.7716
11543TIP3    H256121   5.268   4.651   4.674 -0.3040  0.2036 -0.4971
11544TIP3   OH256122   6.282   0.205   1.124 -0.1370  0.2601 -0.8131
11544TIP3    H156123   6.313   0.259   1.050  1.1340 -0.0222 -0.5042
11544TIP3    H256124   6.189   0.192   1.106  0.1049  0.3639 -2.2730
11545TIP3   OH256125   0.293   0.777  14.224  0.2994 -0.2773 -0.0583
11545TIP3    H156126   0.320   0.868  14.220  0.2664 -0.2433  0.4480
11545TIP3    H256127   0.207   0.775  14.182  0.0032  0.0425  0.5284
11546TIP3   OH256128   2.848   2.208   4.329 -0.6003  0.2456 -0.5042
11546TIP3    H156129   2.810   2.295   4.332 -1.5257 -0.1511 -0.4467
11546TIP3    H256130   2.851   2.179   4.420 -0.9194 -0.0362 -0.5790
11547TIP3   OH256131   4.328   3.948  10.341  0.3919 -0.0437  0.3499
11547TIP3    H156132   4.250   3.968  10.289  0.2226  0.5766  0.8373
11547TIP3    H256133   4.323   4.007  10.416  0.9335 -0.5346  0.7815
11548TIP3   OH256134   1.529   1.945  12.377 -0.6718  0.0899  0.8555
11548TIP3    H156135   1.494   2.020  12.425  1.5049  1.2281  0.7356
11548TIP3    H256136   1.623   1.948  12.394  0.0695  0.1714 -2.9781
11549TIP3   OH256137   5.269   4.214  13.030  0.0077  0.3337  0.1154
11549TIP3    H156138   5.335   4.145  13.043 -0.0073  0.2225 -0.3866
11549TIP3    H256139   5.321   4.293  13.012  0.0330  0.5292  1.0320
11550TIP3   OH256140   1.564   1.586  14.941 -0.1908  0.0671  0.3720
11550TIP3    H156141   1.559   1.498  14.903  0.9795 -0.4486  1.3725
11550TIP3    H256142   1.635   1.629  14.893 -1.2206  0.7165 -0.5903
11551TIP3   OH256143   5.055   3.082  12.566  0.0446  0.2194 -0.1301
11551TIP3    H156144   4.968   3.046  12.550 -0.9672  0.8415  3.5254
11551TIP3    H256145   5.056   3.164  12.517 -0.4280 -0.9997 -2.2650
11552TIP3   OH256146   1.533   2.704  16.266 -0.3631  0.0908  0.5163
11552TIP3    H156147   1.485   2.673  16.343  0.9162 -1.1787  0.8306
11552TIP3    H256148   1.624   2.710  16.295  0.1455 -0.4493 -0.9133
11553TIP3   OH256149   2.883   2.725   3.665 -0.6627  0.1720 -0.0529
11553TIP3    H156150   2.941   2.725   3.589 -3.2906 -1.5692 -2.1154
11553TIP3    H256151   2.937   2.688   3.736  1.3110  0.3292 -1.4321
11554TIP3   OH256152   5.502   4.607  12.995  0.2691  0.6739 -0.3236
11554TIP3    H156153   5.541   4.693  12.980  1.5359  0.4591  1.5555
11554TIP3    H256154   5.414   4.614  12.959  0.6677  2.4619 -1.0054
11555TIP3   OH256155   3.703   1.655  12.886 -0.3212  0.2326  0.0768
11555TIP3    H156156   3.793   1.653  12.920 -0.0753  1.0011 -0.5133
11555TIP3    H256157   3.712   1.623  12.796 -0.7679 -0.4812  0.2806
11556TIP3   OH256158   1.400   2.039   1.588 -0.2280 -0.1178  0.1315
11556TIP3    H156159   1.318   2.061   1.632 -0.0205  0.3784  0.2650
11556TIP3    H256160   1.380   2.045   1.495  0.7949  4.2808  0.1063
11557TIP3   OH256161   2.268   3.871   0.352  0.1656 -0.2150 -0.1964
11557TIP3    H156162   2.361   3.875   0.372  0.6465 -0.8981 -2.1724
11557TIP3    H256163   2.238   3.787   0.387  0.1242  0.3019  1.0360
11558TIP3   OH256164   3.660   2.329   1.400  0.0787  0.4232 -0.4708
11558TIP3    H156165   3.602   2.370   1.465  0.9898 -0.5106  0.9610
11558TIP3    H256166   3.621   2.242   1.386 -0.1261  0.6330 -1.1948
11559TIP3   OH256167   0.863   1.524  12.226 -0.1831 -0.2520  0.9983
11559TIP3    H156168   0.949   1.488  12.203  0.5450  1.0720  1.6088
11559TIP3    H256169   0.800   1.459  12.192  1.0608 -1.5642  1.1448
11560TIP3   OH256170   0.374   2.550  13.680 -0.1953  0.0324  0.3746
11560TIP3    H156171   0.425   2.629  13.662  0.0783 -0.0746  0.6748
11560TIP3    H256172   0.408   2.485  13.619 -2.0328  0.8012 -1.5230
11561TIP3   OH256173   0.506   0.953   5.934  0.4734 -0.2912  0.0220
11561TIP3    H156174   0.566   0.882   5.954 -0.2836 -1.1064 -0.5785
11561TIP3    H256175   0.426   0.910   5.902 -0.4063  0.7726  0.7208
11562TIP3   OH256176   0.839   1.820   5.104 -0.1589 -0.3003 -0.2196
11562TIP3    H156177   0.931   1.796   5.117 -0.3613 -0.5920  0.7370
11562TIP3    H256178   0.842   1.912   5.076  0.3454  0.2830  1.6621
11563TIP3   OH256179   5.387   0.235   1.670  0.4079 -0.0364 -0.0293
11563TIP3    H156180   5.411   0.269   1.757  1.1406  0.0028 -0.2374
11563TIP3    H256181   5.470   0.203   1.634 -0.1807 -1.6674 -0.0115
11564TIP3   OH256182   6.035   1.646  13.029  0.2620 -0.7929  0.4558
11564TIP3    H156183   6.083   1.567  13.054  0.6901 -0.9096 -0.7283
11564TIP3    H256184   5.943   1.624  13.046  0.1775 -2.2690 -1.7163
11565TIP3   OH256185   6.618   5.569  16.582  0.5925 -0.1814  0.9494
11565TIP3    H156186   6.542   5.532  16.537 -1.8523  1.0683  3.8654
11565TIP3    H256187   6.655   5.495  16.630  0.3299 -0.4757  0.7087
11566TIP3   OH256188   0.946   2.414  12.182 -0.0985  0.3300  0.0177
11566TIP3    H156189   0.984   2.376  12.103  0.0838  1.4315 -0.4348
11566TIP3    H256190   0.895   2.489  12.151 -0.2215  0.6341  0.9189
11567TIP3   OH256191   3.736   2.157  11.393  0.0204  0.2150  0.0208
11567TIP3    H156192   3.776   2.115  11.469 -3.0026  0.5815  1.8628
11567TIP3    H256193   3.749   2.250  11.407 -0.4929  0.2796  0.0730
11568TIP3   OH256194   2.054   3.314  15.603 -0.0939 -0.0371 -0.0208
11568TIP3    H156195   2.015   3.252  15.665 -0.5467 -0.0052 -0.2769
11568TIP3    H256196   2.142   3.330  15.638  0.0557 -0.8927 -0.0037
11569TIP3   OH256197   0.671   4.476   4.321  0.0260 -0.0938  0.0914
11569TIP3    H156198   0.653   4.482   4.415 -1.1892  0.9923 -0.2084
11569TIP3    H256199   0.622   4.548   4.282  1.3066  0.0747 -1.2759
11570TIP3   OH256200   0.936   3.784   5.908 -0.5041  0.1119  0.3901
11570TIP3    H156201   0.983   3.701   5.903 -0.0750  0.3524  0.3968
11570TIP3    H256202   0.849   3.765   5.873  0.4278  0.2685 -2.0853
11571TIP3   OH256203   1.973   1.885  17.054 -0.0867  0.1733  0.2223
11571TIP3    H156204   2.063   1.882  17.021 -0.0652  0.6698  0.2321
11571TIP3    H256205   1.977   1.838  17.138  0.1076 -0.0344  0.0982
11572TIP3   OH256206   0.005   6.465  14.140 -0.2277  0.0325  0.0197
11572TIP3    H156207   0.017   6.379  14.101  1.8235 -0.4879  1.6986
11572TIP3    H256208   0.075   6.472  14.206 -1.3192  2.3276  1.0101
11573TIP3   OH256209   0.096   5.520  11.709  0.2116  0.6493  0.0623
11573TIP3    H156210   0.063   5.537  11.620  0.2346  0.4404  0.0118
11573TIP3    H256211   0.075   5.427  11.724 -0.9648  1.0103  0.7722
11574TIP3   OH256212   3.928   6.278  15.730  0.4754 -0.2848  0.1061
11574TIP3    H156213   3.912   6.240  15.816  1.4492  0.9410  0.8521
11574TIP3    H256214   3.953   6.204  15.675  0.2172 -1.0236  0.9708
11575TIP3   OH256215   2.461   2.154   5.484 -0.5610 -0.6788 -0.1617
11575TIP3    H156216   2.411   2.073   5.498  0.3915 -1.5676 -1.8705
11575TIP3    H256217   2.406   2.207   5.426 -1.7756  0.4890  1.9735
11576TIP3   OH256218   4.856   4.619  13.375  0.7301 -0.1026 -0.2726
11576TIP3    H156219   4.825   4.531  13.398 -5.2371  1.2846 -2.1306
11576TIP3    H256220   4.899   4.608  13.290 -0.7778 -1.0792 -0.9206
11577TIP3   OH256221   6.424   5.981   0.914  0.6974  0.6099 -0.6677
11577TIP3    H156222   6.492   5.949   0.855  1.6191 -1.1219  1.2910
11577TIP3    H256223   6.397   5.905   0.964  0.4730  2.1830  1.6731
11578TIP3   OH256224   3.238   1.407   0.265 -0.5292  0.3024 -0.5928
11578TIP3    H156225   3.229   1.352   0.342 -0.5505  0.8888 -0.1742
11578TIP3    H256226   3.158   1.392   0.215 -0.2854 -0.4652 -0.7546
11579TIP3   OH256227   0.261   3.691   5.639  0.1070  0.5426 -0.1996
11579TIP3    H156228   0.330   3.757   5.638 -0.2965  1.0583  2.1644
11579TIP3    H256229   0.217   3.704   5.723 -0.8632 -1.8208 -0.2916
11580TIP3   OH256230   2.499   1.357   4.814  0.4565 -0.2838 -0.4046
11580TIP3    H156231   2.427   1.302   4.784 -1.0859  1.1157  0.6235
11580TIP3    H256232   2.492   1.437   4.762  0.1428  0.5923  0.9710
11581TIP3   OH256233   1.609   0.100  17.174 -0.2244  0.4882  0.5260
11581TIP3    H156234   1.526   0.084  17.218  0.0861  0.2425  1.0207
11581TIP3    H256235   1.587   0.100  17.080 -0.6948 -0.0581  0.6367
11582TIP3   OH256236   2.574   6.040   5.924 -0.0280 -0.1564 -0.0518
11582TIP3    H156237   2.587   5.953   5.962 -1.4232 -0.3216  0.0774
11582TIP3    H256238   2.661   6.080   5.925  1.6123 -3.2439 -4.3604
11583TIP3   OH256239   0.360   0.991   0.544 -0.1594  0.3686  0.4807
11583TIP3    H156240   0.325   0.919   0.491 -0.7371  1.1108 -0.1625
11583TIP3    H256241   0.419   0.949   0.605  2.0478 -0.3258 -2.0306
11584TIP3   OH256242   2.292   5.995   2.037 -0.3780 -0.3057  0.1387
11584TIP3    H156243   2.368   5.960   1.990 -1.0212 -1.4417 -0.0652
11584TIP3    H256244   2.279   6.082   1.999  0.9588 -0.0051  0.3339
11585TIP3   OH256245   3.317   3.538   2.045 -0.2333  0.2592  0.1245
11585TIP3    H156246   3.333   3.446   2.021 -0.0705  0.4406 -0.4670
11585TIP3    H256247   3.228   3.538   2.080 -0.8698  0.1589 -1.4331
11586TIP3   OH256248   3.658   4.034   5.283  0.3302  0.1068 -0.1857
11586TIP3    H156249   3.641   4.076   5.198 -0.5229  0.4343  0.1415
11586TIP3    H256250   3.716   4.095   5.328  0.8199 -0.0869 -0.5521
11587TIP3   OH256251   0.534   0.393  15.258  0.1354  0.4066  1.2424
11587TIP3    H156252   0.618   0.398  15.304  0.4581  1.1724  0.5915
11587TIP3    H256253   0.517   0.483  15.231 -0.4551  0.0970  0.5800
11588TIP3   OH256254   5.741   6.310   2.216 -0.6632 -0.0692 -0.0330
11588TIP3    H156255   5.659   6.358   2.228 -1.1595 -0.6842 -0.8931
11588TIP3    H256256   5.802   6.376   2.183 -1.4676 -0.1079 -1.6472
11589TIP3   OH256257   2.074   2.570   2.328  0.2550 -0.9163 -0.6364
11589TIP3    H156258   2.039   2.611   2.250 -1.2905 -0.1162  0.4557
11589TIP3    H256259   2.000   2.566   2.389  1.2862 -2.0321  0.5814
11590TIP3   OH256260   0.974   1.876  11.215 -0.0897 -0.1385 -0.2732
11590TIP3    H156261   1.035   1.803  11.227  0.1438  0.3859  1.8217
11590TIP3    H256262   1.030   1.954  11.213 -0.4126  0.0708 -1.6603
11591TIP3   OH256263   0.143   1.008   4.645  0.5815  0.0006 -0.0658
11591TIP3    H156264   0.139   1.096   4.606  2.0063 -0.1246 -0.4996
11591TIP3    H256265   0.225   1.008   4.695 -0.3894 -0.4224  1.5541
11592TIP3   OH256266   3.989   5.271   4.154 -0.3207 -0.2735 -0.6699
11592TIP3    H156267   3.949   5.268   4.241  1.2181 -1.9336  0.0096
11592TIP3    H256268   4.079   5.299   4.169 -0.1839 -0.0765 -1.7901
11593TIP3   OH256269   1.444   3.425   2.177 -0.4062  0.2245 -0.2469
11593TIP3    H156270   1.444   3.447   2.084 -0.2631  1.4332  0.0305
11593TIP3    H256271   1.392   3.345   2.183  0.2495 -0.3095 -1.4697
11594TIP3   OH256272   6.633   2.346   2.263  0.4822 -0.3935 -0.5193
11594TIP3    H156273   6.617   2.300   2.345  0.4837 -0.5476 -0.6062
11594TIP3    H256274   6.676   2.282   2.206 -0.2772 -0.5395 -0.9307
11595TIP3   OH256275   3.203   4.613   1.151  0.0668 -0.3185 -0.1529
11595TIP3    H156276   3.122   4.611   1.203  0.4817  0.6795  0.5606
11595TIP3    H256277   3.269   4.572   1.208  0.9231  2.3673  0.8647
11596TIP3   OH256278   0.444   2.993   4.610  0.5540 -0.5028 -0.3296
11596TIP3    H156279   0.447   3.073   4.661 -0.1844 -1.3872  1.1432
11596TIP3    H256280   0.351   2.968   4.611  0.7846 -1.3931 -0.7359
11597TIP3   OH256281   3.542   6.492   3.704 -0.5800 -0.1201  0.3693
11597TIP3    H156282   3.449   6.471   3.697 -0.6904  0.8719 -1.3370
11597TIP3    H256283   3.550   6.534   3.790 -1.1402 -2.9136  1.8685
11598TIP3   OH256284   5.271   5.647   4.782  0.7566 -0.2177  0.1486
11598TIP3    H156285   5.331   5.592   4.731  0.6306  1.2184 -1.5969
11598TIP3    H256286   5.310   5.735   4.778 -1.3970  0.7288 -0.9732
11599TIP3   OH256287   3.199   5.557  14.998 -0.1572 -0.5112 -0.4155
11599TIP3    H156288   3.238   5.641  14.974 -0.0354 -0.6234 -0.6151
11599TIP3    H256289   3.144   5.534  14.923 -0.4260 -0.4669 -0.2347
11600TIP3   OH256290   1.292   4.201   4.549 -0.0439 -0.0475 -0.0435
11600TIP3    H156291   1.342   4.266   4.501  3.3464 -2.2559  0.3086
11600TIP3    H256292   1.235   4.160   4.484  1.0528  0.2331 -1.1811
11601TIP3   OH256293   3.634   4.913  14.016 -0.4297 -0.1007 -0.0578
11601TIP3    H156294   3.699   4.866  14.068  0.6654  1.9037  0.4250
11601TIP3    H256295   3.563   4.932  14.078 -1.9431 -3.0367 -0.7836
11602TIP3   OH256296   5.601   0.275  16.138 -0.5106  0.1324 -0.1987
11602TIP3    H156297   5.658   0.305  16.067 -1.4015  0.5615 -0.7294
11602TIP3    H256298   5.534   0.342  16.146  0.1712  0.5906  1.7508
11603TIP3   OH256299   4.016   6.719   5.279  0.0259 -0.2990  0.5261
11603TIP3    H156300   4.030   6.741   5.371 -1.7557 -0.8333  0.9470
11603TIP3    H256301   4.032   6.625   5.274  2.5569  0.1503 -0.2250
11604TIP3   OH256302   0.588   4.739  15.061  0.3404 -0.3728 -0.7979
11604TIP3    H156303   0.677   4.774  15.058  1.0394 -1.8382  1.9566
11604TIP3    H256304   0.575   4.701  14.974  2.9390 -1.4125 -0.7832
11605TIP3   OH256305   2.069   1.423   0.677 -0.2123 -0.1270 -0.5014
11605TIP3    H156306   1.979   1.435   0.645 -1.0262  1.0828  2.1165
11605TIP3    H256307   2.070   1.333   0.711 -0.9363  0.4040  0.9557
11606TIP3   OH256308   2.230   4.231  15.521 -0.1409  0.0455  0.4160
11606TIP3    H156309   2.135   4.219  15.529  0.0203 -0.1925  2.2036
11606TIP3    H256310   2.242   4.265  15.433 -1.7827 -1.0273 -0.2565
11607TIP3   OH256311   3.752   6.604   2.233  0.2758  0.7445 -0.4628
11607TIP3    H156312   3.736   6.618   2.326 -0.9289  0.7043 -0.6601
11607TIP3    H256313   3.722   6.515   2.216  0.2862  0.8305 -0.9385
11608TIP3   OH256314   2.530   0.704   3.351 -0.0136  0.1366 -0.3919
11608TIP3    H156315   2.557   0.708   3.443 -0.5721  0.6020 -0.2416
11608TIP3    H256316   2.583   0.770   3.307 -0.7702  0.9273 -0.1300
11609TIP3   OH256317   4.008   0.889   3.126 -0.0325 -0.3974 -0.4935
11609TIP3    H156318   4.040   0.838   3.200  3.3264 -0.9322 -2.1979
11609TIP3    H256319   3.936   0.837   3.089  0.4325 -1.7111  0.4254
11610TIP3   OH256320   2.920   6.196  14.695  0.5058  0.3889  0.0236
11610TIP3    H156321   2.883   6.227  14.778 -0.9845  1.1502 -0.8989
11610TIP3    H256322   2.883   6.255  14.629  0.5636 -1.0949 -1.3508
11611TIP3   OH256323   3.367   6.712  13.494 -0.1409  0.0165 -0.0711
11611TIP3    H156324   3.424   6.697  13.570 -1.4971  0.4807  1.0681
11611TIP3    H256325   3.379   6.805  13.474 -0.3885  0.0788  0.0738
11612TIP3   OH256326   1.362   3.872   6.484  0.4924 -0.0779  0.1556
11612TIP3    H156327   1.316   3.956   6.488  1.6968  0.5238  2.2676
11612TIP3    H256328   1.398   3.869   6.395 -1.8077  0.3802 -0.8318
11613TIP3   OH256329   5.714   0.934   2.217  0.1842  0.0177  0.3110
11613TIP3    H156330   5.726   0.852   2.265  2.3721  0.3166  0.3190
11613TIP3    H256331   5.714   1.002   2.285 -0.3121  0.1475  0.1866
11614TIP3   OH256332   5.672   2.206  17.076 -0.3497 -0.2096 -0.5291
11614TIP3    H156333   5.663   2.142  17.005 -0.1663  0.1012 -0.8374
11614TIP3    H256334   5.667   2.291  17.032  0.6778 -0.0120 -0.2963
11615TIP3   OH256335   5.078   6.353  13.578  0.3358  0.0578 -0.1069
11615TIP3    H156336   5.129   6.320  13.651 -0.7197  0.5724  0.8677
11615TIP3    H256337   5.118   6.436  13.555  1.4549 -0.7015 -0.9490
11616TIP3   OH256338   2.883   1.194  14.606  0.0831 -0.7727 -0.6586
11616TIP3    H156339   2.917   1.246  14.679 -0.6112 -1.7536  0.3839
11616TIP3    H256340   2.957   1.184  14.547  1.2119 -1.6670  0.8943
11617TIP3   OH256341   0.399   1.283  14.833 -0.2721 -0.0956  0.0314
11617TIP3    H156342   0.477   1.228  14.838 -0.5218 -0.3974  0.5900
11617TIP3    H256343   0.366   1.270  14.744  1.0347  1.0207 -0.6402
11618TIP3   OH256344   0.712   3.192  12.255  0.1637  0.4792  0.4761
11618TIP3    H156345   0.666   3.269  12.288  0.3041  0.7552  0.0453
11618TIP3    H256346   0.699   3.125  12.321 -0.9980  0.5006  0.2754
11619TIP3   OH256347   1.861   2.382   0.525  0.2684  0.2487  0.2473
11619TIP3    H156348   1.887   2.290   0.520  0.3658  0.2489  0.7183
11619TIP3    H256349   1.886   2.418   0.440 -0.5427 -0.3563 -0.2482
11620TIP3   OH256350   0.160   6.187   6.184  0.3223  0.4171 -0.3987
11620TIP3    H156351   0.190   6.141   6.263  0.1928  0.4766 -0.3141
11620TIP3    H256352   0.104   6.124   6.140  1.1850  0.0432 -0.9494
11621TIP3   OH256353   6.738   6.736  11.904 -0.2508 -0.1807  0.6550
11621TIP3    H156354   6.763   6.729  11.996 -0.7855  1.1970  0.9205
11621TIP3    H256355   6.647   6.763  11.905 -0.5358 -1.0612 -0.2961
11622TIP3   OH256356   4.820   4.159  12.581  0.2275 -0.1444 -0.2948
11622TIP3    H156357   4.754   4.115  12.634 -1.2202  0.7742 -1.2984
11622TIP3    H256358   4.886   4.189  12.644 -0.3724 -0.9574  0.7242
11623TIP3   OH256359   3.261   1.783   3.272 -0.2273  0.6089 -0.0291
11623TIP3    H156360   3.196   1.714   3.262  1.7184 -1.2589 -0.2955
11623TIP3    H256361   3.261   1.828   3.187 -2.1357  1.5611  0.4430
11624TIP3   OH256362   5.060   3.470  13.766 -0.0522 -0.0974  0.1860
11624TIP3    H156363   5.010   3.449  13.845 -0.7006  2.4732  0.5027
11624TIP3    H256364   5.141   3.508  13.798  0.1094  0.0316 -0.3665
11625TIP3   OH256365   0.357   2.365   6.526 -0.7178  0.7078 -0.6488
11625TIP3    H156366   0.451   2.358   6.537 -0.7467  0.3281 -0.6477
11625TIP3    H256367   0.329   2.429   6.593 -0.3905  1.2388 -1.0151
11626TIP3   OH256368   1.026   6.352   6.088  1.2588  0.4588  0.4188
11626TIP3    H156369   1.008   6.291   6.160  0.1141 -0.5022 -0.6556
11626TIP3    H256370   1.121   6.355   6.082  1.3461 -2.3332 -0.4113
11627TIP3   OH256371   3.862   2.441  11.681  0.4876  0.1475  0.1709
11627TIP3    H156372   3.950   2.404  11.678  0.3258 -0.1804 -0.5751
11627TIP3    H256373   3.829   2.418  11.768  1.6258  1.4066  0.9567
11628TIP3   OH256374   3.255   5.821   3.319 -0.3372 -0.1467  0.1077
11628TIP3    H156375   3.274   5.876   3.396  0.0136  0.9413 -0.7432
11628TIP3    H256376   3.298   5.738   3.338 -0.2435  0.1118  1.0844
11629TIP3   OH256377   0.413   3.182  11.368  0.2072  0.1325  0.6052
11629TIP3    H156378   0.456   3.120  11.310 -1.2947 -1.6553  1.3525
11629TIP3    H256379   0.337   3.212  11.319 -0.8197 -1.0486  1.4448
11630TIP3   OH256380   4.151   1.383   1.972 -0.2986 -0.0570 -0.4304
11630TIP3    H156381   4.080   1.385   2.037  3.2159  0.0294  3.6682
11630TIP3    H256382   4.153   1.292   1.942 -2.4047  0.0480 -0.9614
11631TIP3   OH256383   4.938   1.131  14.746  0.2555 -1.2508  0.1546
11631TIP3    H156384   4.979   1.193  14.685 -0.8371 -2.2296 -1.6299
11631TIP3    H256385   5.007   1.069  14.767  0.8563 -0.4636  0.5452
11632TIP3   OH256386   2.732   4.948  12.335 -0.1652 -0.0085 -0.7681
11632TIP3    H156387   2.769   4.917  12.253  0.4563  0.7287 -0.7643
11632TIP3    H256388   2.744   4.875  12.396  3.4852  1.0317 -0.0895
11633TIP3   OH256389   6.162   5.514   2.520 -0.2703 -0.4621 -0.1526
11633TIP3    H156390   6.122   5.560   2.446 -3.9638 -0.0263  2.0142
11633TIP3    H256391   6.138   5.423   2.508  1.4975 -0.8609 -0.9086
11634TIP3   OH256392   0.057   6.043   2.198 -0.2323  0.6342  0.6502
11634TIP3    H156393   0.039   5.957   2.159 -3.3003  0.4622  2.2304
11634TIP3    H256394   0.063   6.103   2.123 -2.1299 -0.3139 -0.2978
11635TIP3   OH256395   0.277   3.478  15.420  0.0989  0.2212 -0.0919
11635TIP3    H156396   0.229   3.397  15.403 -0.1456  0.2430  0.4732
11635TIP3    H256397   0.301   3.472  15.513  0.7619  0.4370 -0.2450
11636TIP3   OH256398   2.937   5.617   5.401  0.5030  0.6516 -0.7567
11636TIP3    H156399   2.852   5.631   5.360  0.7612  1.2577 -1.1075
11636TIP3    H256400   2.990   5.691   5.369  1.2157  0.1584 -0.7131
11637TIP3   OH256401   3.720   1.191   0.433  0.0364  0.2324 -0.7724
11637TIP3    H156402   3.720   1.145   0.349  1.0614  2.2399 -1.8933
11637TIP3    H256403   3.670   1.271   0.417 -1.1667 -0.1456  0.9789
11638TIP3   OH256404   1.873   6.695  13.707  0.2228 -0.0538 -0.0040
11638TIP3    H156405   1.859   6.692  13.802 -1.7776 -0.4534 -0.2870
11638TIP3    H256406   1.784   6.696  13.670  0.9885  0.2779 -1.8623
11639TIP3   OH256407   4.960   0.196  10.815  0.2595  0.2147  0.2677
11639TIP3    H156408   4.944   0.274  10.869  0.0508  0.0771  0.4055
11639TIP3    H256409   5.033   0.221  10.758  0.0671  0.5816  0.1776
11640TIP3   OH256410   1.491   6.293   5.028 -0.0906  0.2402 -0.4592
11640TIP3    H156411   1.571   6.243   5.010  0.1441  1.2372 -2.4011
11640TIP3    H256412   1.420   6.229   5.023  0.7090 -1.0586  3.3089
11641TIP3   OH256413   1.341   5.416  13.213  0.4474 -0.1381  0.7973
11641TIP3    H156414   1.435   5.401  13.227  0.6620 -0.4219 -0.7621
11641TIP3    H256415   1.321   5.494  13.264  1.8173  0.6410  0.1727
11642TIP3   OH256416   2.787   3.693  12.663  0.5352  0.7895  0.4456
11642TIP3    H156417   2.874   3.662  12.635 -0.0454 -2.1354  1.6554
11642TIP3    H256418   2.803   3.737  12.746  0.9338  0.5923  0.4783
11643TIP3   OH256419   5.832   4.147   0.381  0.7391  0.1198  0.3489
11643TIP3    H156420   5.778   4.073   0.354  0.9668 -0.6945  2.0141
11643TIP3    H256421   5.773   4.221   0.384  0.2261 -0.2710 -0.1151
11644TIP3   OH256422   2.959   5.193  16.044 -0.2264  0.0499 -0.5075
11644TIP3    H156423   2.971   5.154  15.957  2.6125  0.5057 -0.3490
11644TIP3    H256424   2.912   5.126  16.094 -0.4999 -0.8319 -1.9405
11645TIP3   OH256425   6.175   0.803  11.642  0.0116  0.8059 -0.4937
11645TIP3    H156426   6.247   0.740  11.637  0.1270  0.6832  1.9778
11645TIP3    H256427   6.202   0.865  11.710 -2.2576  0.6635  0.6105
11646TIP3   OH256428   4.038   0.162   5.217 -0.3998  0.3437 -0.3169
11646TIP3    H156429   4.063   0.195   5.303  1.1591  1.3108 -1.1116
11646TIP3    H256430   4.031   0.067   5.228  1.8770  0.2306  0.4014
11647TIP3   OH256431   4.538   0.674  15.363  0.3445  0.3428  0.8306
11647TIP3    H156432   4.536   0.584  15.394  2.2096 -0.8201 -2.2370
11647TIP3    H256433   4.585   0.670  15.280 -2.5971  3.5895 -1.1475
11648TIP3   OH256434   0.321   5.205  14.123 -0.0627 -0.4748 -0.3166
11648TIP3    H156435   0.341   5.185  14.031 -0.5713  0.2246 -0.5812
11648TIP3    H256436   0.259   5.278  14.119  1.2669  0.7477  0.6170
11649TIP3   OH256437   1.461   5.234  16.236 -0.3328 -0.6175  0.0714
11649TIP3    H156438   1.435   5.228  16.144 -0.3811  1.7619 -0.0923
11649TIP3    H256439   1.388   5.197  16.284 -0.7762 -0.8691 -0.7836
11650TIP3   OH256440   6.493   4.571  11.389 -0.0922  0.4643  0.3268
11650TIP3    H156441   6.581   4.533  11.397  0.5612  1.9414  0.3049
11650TIP3    H256442   6.450   4.518  11.322  0.5170 -0.7500  0.8750
11651TIP3   OH256443   5.032   5.465  16.819  0.0023 -0.1554 -0.3433
11651TIP3    H156444   5.075   5.396  16.869  1.0820  0.7747  0.0084
11651TIP3    H256445   5.004   5.529  16.884  2.1378  1.4604 -0.9799
11652TIP3   OH256446   6.772   5.666  13.533  0.0828  0.2503 -0.1579
11652TIP3    H156447   6.690   5.699  13.569  1.6097  2.4075  1.4545
11652TIP3    H256448   6.839   5.695  13.594  2.1700 -0.7431 -1.8829
11653TIP3   OH256449   4.460   6.075  15.930 -0.3172  0.2818  0.1643
11653TIP3    H156450   4.398   6.126  15.983 -0.7733  0.7220 -0.7821
11653TIP3    H256451   4.498   6.013  15.992  0.4713  1.9607  1.4034
11654TIP3   OH256452   5.753   3.619  12.416  0.1842 -0.2362  0.2225
11654TIP3    H156453   5.661   3.601  12.394 -0.0786  1.9902 -0.7165
11654TIP3    H256454   5.801   3.545  12.379 -1.1980 -1.3031  0.4910
11655TIP3   OH256455   1.319   6.221  16.257 -0.3581 -0.4500 -0.3078
11655TIP3    H156456   1.309   6.144  16.313  0.3880 -0.3098  0.0291
11655TIP3    H256457   1.370   6.190  16.182  2.8660  0.4679  1.4427
11656TIP3   OH256458   0.675   5.465  15.322 -0.0934 -0.2172 -1.1724
11656TIP3    H156459   0.616   5.461  15.397 -0.8701  0.7061 -1.7141
11656TIP3    H256460   0.658   5.385  15.273 -0.6099 -0.1389 -1.1176
11657TIP3   OH256461   5.600   3.296  16.465  0.2301  0.0142 -0.4267
11657TIP3    H156462   5.691   3.307  16.438  0.5043 -0.4254  0.2946
11657TIP3    H256463   5.598   3.209  16.506 -0.6474 -0.2469 -0.9883
11658TIP3   OH256464   5.197   0.260   4.817  0.7461 -0.3567 -0.5088
11658TIP3    H156465   5.160   0.305   4.894 -1.1701 -0.6941 -1.2005
11658TIP3    H256466   5.212   0.170   4.847  0.3695 -0.3888 -0.4164
11659TIP3   OH256467   0.821   2.436  17.123  0.3207 -0.1965 -0.1393
11659TIP3    H156468   0.900   2.405  17.168  0.4167  2.2537  1.5105
11659TIP3    H256469   0.853   2.484  17.047  0.3885 -0.0562 -0.0230
11660TIP3   OH256470   6.306   3.368  12.585  0.5692 -0.6862  0.5909
11660TIP3    H156471   6.230   3.359  12.643  1.1753 -2.6805  1.0880
11660TIP3    H256472   6.305   3.289  12.531  1.4176  0.0144 -0.4738
11661TIP3   OH256473   5.197   4.914  14.597 -0.5492 -0.1875  0.1152
11661TIP3    H156474   5.131   4.977  14.570 -0.6036 -0.8942 -1.4360
11661TIP3    H256475   5.272   4.967  14.624 -1.6292  0.6064  1.6126
11662TIP3   OH256476   2.956   6.164   6.359 -0.0409 -0.3462  0.1375
11662TIP3    H156477   2.892   6.215   6.310  1.7675  0.4605 -1.4634
11662TIP3    H256478   3.008   6.119   6.292  2.2135  0.4483  1.2733
11663TIP3   OH256479   5.279   2.853   1.824 -0.4592  0.1499  0.1690
11663TIP3    H156480   5.362   2.806   1.826 -0.0750  0.7387 -1.3565
11663TIP3    H256481   5.302   2.944   1.840 -1.0258  0.0588  1.5631
11664TIP3   OH256482   3.281   0.239   5.527  0.7052 -0.0098  0.2353
11664TIP3    H156483   3.331   0.185   5.466  1.9229 -0.8547  1.9255
11664TIP3    H256484   3.201   0.189   5.543  0.8914 -0.3349  0.1719
11665TIP3   OH256485   2.064   4.768  12.687  0.2609  0.1120  0.0105
11665TIP3    H156486   2.026   4.731  12.607  0.0039  1.0839 -0.3275
11665TIP3    H256487   1.990   4.811  12.730  0.9180  1.7875 -0.5208
11666TIP3   OH256488   3.744   3.847   0.450  1.0092  0.7376 -0.1529
11666TIP3    H156489   3.833   3.825   0.425  0.2073 -0.6482 -1.9480
11666TIP3    H256490   3.689   3.792   0.394 -0.9885  2.7161 -0.2488
11667TIP3   OH256491   3.894   0.889   4.246  0.0059 -0.0061 -0.4668
11667TIP3    H156492   3.849   0.806   4.254 -0.0212  0.1233  0.7869
11667TIP3    H256493   3.834   0.945   4.197 -0.2708 -0.5067 -0.6964
11668TIP3   OH256494   2.477   2.643  12.990 -0.1986 -0.0258 -0.0645
11668TIP3    H156495   2.527   2.655  12.909 -0.6416  0.6824 -0.2366
11668TIP3    H256496   2.475   2.730  13.030 -1.0327 -0.1190  0.0991
11669TIP3   OH256497   2.069   0.335   3.083 -0.0371 -1.0947  0.3690
11669TIP3    H156498   2.028   0.418   3.057 -1.3730 -2.4325 -1.9565
11669TIP3    H256499   2.105   0.353   3.170  1.2697  2.4466 -0.8083
11670TIP3   OH256500   5.424   0.371  11.713  0.0678 -0.0032  0.5370
11670TIP3    H156501   5.420   0.332  11.625  0.3963  0.8981  0.1156
11670TIP3    H256502   5.497   0.433  11.709  0.6959 -0.6566  1.7454
11671TIP3   OH256503   4.578   0.865  16.642  0.1152 -0.2801 -0.7170
11671TIP3    H156504   4.501   0.921  16.651 -0.1396 -0.8081  0.5416
11671TIP3    H256505   4.575   0.832  16.553 -0.1608  1.0873 -1.2248
11672TIP3   OH256506   0.736   1.323  13.139  0.3584 -0.2486 -0.8752
11672TIP3    H156507   0.777   1.247  13.098  0.3793  0.0936 -1.4888
11672TIP3    H256508   0.642   1.308  13.129  0.3417 -0.5502 -0.3358
11673TIP3   OH256509   5.138   2.333  12.340 -0.0252  0.1329  0.5008
11673TIP3    H156510   5.157   2.244  12.312  0.2209  0.4898 -0.4999
11673TIP3    H256511   5.092   2.372  12.265  0.4665  1.0446  0.6678
11674TIP3   OH256512   6.633   1.748   3.799  0.1234 -0.6078  0.4194
11674TIP3    H156513   6.561   1.760   3.860 -1.0374 -0.3729 -0.9715
11674TIP3    H256514   6.595   1.767   3.713  2.3603  1.6819 -0.1335
11675TIP3   OH256515   4.110   2.423   4.501  0.3716 -0.8065  0.7099
11675TIP3    H156516   4.131   2.330   4.510  3.3141 -0.3119 -0.4137
11675TIP3    H256517   4.118   2.441   4.407  2.9719  1.1851  1.2137
11676TIP3   OH256518   5.205   5.807  14.618 -0.1471 -0.5705 -0.2776
11676TIP3    H156519   5.135   5.812  14.552 -1.1585 -1.1373  0.7376
11676TIP3    H256520   5.281   5.774  14.570 -0.3512  0.7782 -1.5664
11677TIP3   OH256521   5.601   4.097   4.262  0.2572  0.2037  0.3335
11677TIP3    H156522   5.517   4.130   4.294  0.9592  1.4169  0.9625
11677TIP3    H256523   5.665   4.133   4.323  1.1185 -1.7405  0.6001
11678TIP3   OH256524   1.120   5.187   5.596 -0.4191  0.0849  0.5787
11678TIP3    H156525   1.108   5.227   5.683 -1.6629  0.2364  0.3566
11678TIP3    H256526   1.031   5.164   5.569 -0.2007  1.2402 -1.2191
11679TIP3   OH256527   3.461   4.524   0.539  0.2551  0.5516  0.1496
11679TIP3    H156528   3.536   4.469   0.516  0.3044  1.0185 -0.8159
11679TIP3    H256529   3.490   4.573   0.616  1.0738  0.9751 -0.4204
11680TIP3   OH256530   1.732   1.518   1.300 -0.2648  0.0225  0.2808
11680TIP3    H156531   1.743   1.424   1.285  1.2676  0.5670 -2.1255
11680TIP3    H256532   1.814   1.545   1.342 -1.9508 -0.2428  4.0124
11681TIP3   OH256533   2.319   0.591   6.959 -0.2125 -0.7081  0.3928
11681TIP3    H156534   2.372   0.657   7.004 -0.8423  0.3100 -0.3408
11681TIP3    H256535   2.372   0.566   6.883 -0.0993 -0.8512  0.5169
11682TIP3   OH256536   6.475   0.055  13.177  0.1321 -0.2305 -0.5936
11682TIP3    H156537   6.564   0.070  13.209  1.2591  0.1205 -3.7468
11682TIP3    H256538   6.473  -0.039  13.157 -0.4532 -0.3866  0.1927
11683TIP3   OH256539   6.187   3.409  16.806 -0.6029  0.3277 -0.1817
11683TIP3    H156540   6.146   3.456  16.880 -0.9468  0.4611 -0.4568
11683TIP3    H256541   6.270   3.454  16.793 -1.2371  1.3107 -0.8917
11684TIP3   OH256542   2.690   3.242  14.693  0.5508 -0.2831  0.5331
11684TIP3    H156543   2.630   3.251  14.618  3.0074 -0.5359 -1.5346
11684TIP3    H256544   2.645   3.182  14.752 -1.8046  0.5450 -0.3635
11685TIP3   OH256545   4.485   1.359  12.385 -0.6749 -0.3217  0.4070
11685TIP3    H156546   4.400   1.320  12.404 -0.8586 -0.6269 -0.9809
11685TIP3    H256547   4.471   1.454  12.393 -2.1818 -0.1132 -3.6449
11686TIP3   OH256548   4.801   4.677  16.753 -0.2285  0.1938  0.0250
11686TIP3    H156549   4.864   4.609  16.729  0.2208  0.2237  1.1117
11686TIP3    H256550   4.804   4.680  16.848 -2.2857 -0.1746  0.1171
11687TIP3   OH256551   5.899   2.470   1.802  0.1765  0.1635  0.0829
11687TIP3    H156552   5.866   2.554   1.835  1.2998  0.1680  1.2357
11687TIP3    H256553   5.873   2.469   1.710  0.8856  2.1735 -0.1749
11688TIP3   OH256554   0.455   1.559  14.044 -0.1161 -0.3730 -0.2828
11688TIP3    H156555   0.389   1.540  13.977 -0.0180  1.3506 -0.8837
11688TIP3    H256556   0.538   1.540  14.001 -0.0591  0.6170 -0.6092
11689TIP3   OH256557   4.707   0.928   1.737 -0.1662 -0.1328 -0.1412
11689TIP3    H156558   4.731   1.007   1.687 -2.1120  0.6043  0.0722
11689TIP3    H256559   4.718   0.856   1.674  0.4347  0.4303 -0.6999
11690TIP3   OH256560   3.653   3.801   4.689  0.1482  0.5788  0.5459
11690TIP3    H156561   3.678   3.726   4.743 -0.7073  0.4177  0.7344
11690TIP3    H256562   3.670   3.773   4.599 -0.0682  0.1930  0.6236
11691TIP3   OH256563   0.515   0.230  15.023  0.2984  0.1398 -0.2705
11691TIP3    H156564   0.527   0.275  15.106 -1.0052 -0.6875  0.3801
11691TIP3    H256565   0.604   0.212  14.992  0.7800 -0.3947  1.3869
11692TIP3   OH256566   4.145   3.153  15.098 -0.2103 -0.1105 -0.2217
11692TIP3    H156567   4.144   3.153  15.193 -3.1047 -1.0423 -0.1910
11692TIP3    H256568   4.134   3.245  15.074 -0.3525  0.0295  0.3825
11693TIP3   OH256569   5.452   5.750  14.524 -0.1771 -0.0541  0.3459
11693TIP3    H156570   5.516   5.784  14.461  0.0950 -0.2439  0.5150
11693TIP3    H256571   5.459   5.655  14.515  1.3967 -0.1325  2.1646
11694TIP3   OH256572   6.680   3.205   1.089  0.0299  0.2608 -0.3710
11694TIP3    H156573   6.667   3.227   0.997  2.0372  1.2387 -0.4466
11694TIP3    H256574   6.681   3.290   1.134  2.1994 -0.0002  0.1082
11695TIP3   OH256575   6.719   5.188  14.254 -0.4901  0.3909 -0.0126
11695TIP3    H156576   6.643   5.194  14.311 -1.8768 -2.4634 -1.4555
11695TIP3    H256577   6.762   5.107  14.280  0.8122  0.8391 -0.6986
11696TIP3   OH256578   1.013   3.994  16.232  0.1573 -0.3359 -0.0383
11696TIP3    H156579   0.926   3.954  16.234  0.8832 -1.9446 -0.3738
11696TIP3    H256580   1.054   3.960  16.153  1.1220  0.3854  0.1375
11697TIP3   OH256581   2.395   3.705  15.845 -0.0309 -0.4190 -0.4122
11697TIP3    H156582   2.436   3.621  15.828  0.2394 -0.4477  0.3820
11697TIP3    H256583   2.304   3.684  15.865  0.3549 -0.6381  1.1160
11698TIP3   OH256584   1.925   6.367  12.463  0.0584 -0.9122  0.2987
11698TIP3    H156585   1.853   6.409  12.416  1.4264 -0.7552 -1.6871
11698TIP3    H256586   1.885   6.290  12.504 -1.7296  0.4290  1.1509
11699TIP3   OH256587   4.456   4.284   2.826  0.3549 -0.4210 -0.1415
11699TIP3    H156588   4.383   4.332   2.787 -0.3780 -0.1325  1.5311
11699TIP3    H256589   4.520   4.351   2.849  0.2641 -0.4539  0.2214
11700TIP3   OH256590   3.990   4.868  14.161  0.5807  0.0483 -1.0353
11700TIP3    H156591   3.899   4.838  14.166  1.1894 -1.8836 -0.9955
11700TIP3    H256592   4.009   4.901  14.248  1.2969 -3.8537  0.4084
11701TIP3   OH256593   2.840   3.378  16.035  1.0506 -0.5836  0.0496
11701TIP3    H156594   2.790   3.317  16.089 -1.6764  0.1223 -1.6179
11701TIP3    H256595   2.844   3.459  16.086  1.8068 -1.0949  0.8183
11702TIP3   OH256596   2.744   2.412  16.846 -0.0552  0.3188  0.0831
11702TIP3    H156597   2.697   2.462  16.780 -0.9356 -1.0191 -0.3098
11702TIP3    H256598   2.747   2.323  16.812 -0.4995 -0.3797  1.8239
11703TIP3   OH256599   2.305   5.764   6.082  0.2926 -0.3414 -0.2197
11703TIP3    H156600   2.382   5.726   6.040  1.4636  1.0539  0.6313
11703TIP3    H256601   2.281   5.701   6.150 -0.2265 -1.4964 -1.4512
11704TIP3   OH256602   1.321   4.015   0.117  0.3861 -0.2889  0.1739
11704TIP3    H156603   1.339   4.100   0.078  0.1045  0.0068  0.6940
11704TIP3    H256604   1.399   3.963   0.097 -0.2267 -0.5083 -1.7924
11705TIP3   OH256605   0.183   2.650  11.777  0.4859  0.3028 -0.1185
11705TIP3    H156606   0.225   2.666  11.692 -1.6091  2.7814 -0.7462
11705TIP3    H256607   0.248   2.601  11.827  2.4793  0.4111 -2.5176
11706TIP3   OH256608   3.974   1.681  17.095  0.0983 -0.4349  0.2485
11706TIP3    H156609   4.022   1.620  17.150  1.9985  0.4753 -0.3753
11706TIP3    H256610   3.883   1.653  17.102  0.6095 -1.6934  2.0645
11707TIP3   OH256611   3.412   4.657   2.185  0.0693  0.0072  0.1355
11707TIP3    H156612   3.429   4.751   2.183 -1.4268  0.3361  2.0278
11707TIP3    H256613   3.317   4.650   2.198  0.1964 -1.7662  0.1946
11708TIP3   OH256614   6.775   4.253   3.538 -0.0877  0.3104  0.3349
11708TIP3    H156615   6.857   4.207   3.554  0.0967 -0.4340 -2.5070
11708TIP3    H256616   6.799   4.327   3.483 -1.4706 -0.6057 -1.5400
11709TIP3   OH256617   3.332   2.946  11.667 -0.2654 -0.2644 -0.6459
11709TIP3    H156618   3.393   2.887  11.623 -0.6840 -1.1767 -0.0272
11709TIP3    H256619   3.256   2.891  11.688 -1.0809  0.7308 -0.9351
11710TIP3   OH256620   5.338   5.481  14.448 -0.0618 -0.1516 -0.4949
11710TIP3    H156621   5.276   5.410  14.463 -0.4861  0.1839 -0.6395
11710TIP3    H256622   5.418   5.438  14.419 -0.0947 -0.6200  0.1050
11711TIP3   OH256623   4.721   6.324   0.743 -0.4434  0.0183  0.5140
11711TIP3    H156624   4.696   6.309   0.652 -1.4271  0.8845  0.6387
11711TIP3    H256625   4.639   6.344   0.787  0.3310  1.8417  1.1387
11712TIP3   OH256626   6.094   0.442   0.062 -0.6662  0.4203 -0.3321
11712TIP3    H156627   6.107   0.363   0.114 -2.6001 -0.7380 -1.5469
11712TIP3    H256628   6.173   0.448   0.007 -0.0847 -0.1127  0.4334
11713TIP3   OH256629   3.967   2.693   2.459  0.8535 -0.3651  0.7398
11713TIP3    H156630   3.981   2.608   2.500  1.8985 -1.1516 -1.1819
11713TIP3    H256631   3.885   2.725   2.497  0.7108 -1.9817  1.8518
11714TIP3   OH256632   0.886   5.427   1.735 -0.1442  0.1584 -0.1409
11714TIP3    H156633   0.946   5.417   1.808 -1.1044  0.8322  0.7596
11714TIP3    H256634   0.895   5.347   1.684  0.7732 -0.1674  0.5339
11715TIP3   OH256635   6.308   2.824   4.055  0.0999 -0.0054  0.1563
11715TIP3    H156636   6.251   2.826   3.978  1.3941  1.3676 -0.7787
11715TIP3    H256637   6.256   2.865   4.124  0.4328  2.5595 -1.0517
11716TIP3   OH256638   3.213   6.462   5.358  0.4021  0.6965  0.4712
11716TIP3    H156639   3.194   6.554   5.339 -3.1243 -0.4425 -2.0766
11716TIP3    H256640   3.272   6.434   5.288 -0.0362  0.5562  0.1539
11717TIP3   OH256641   0.677   0.097  13.842  0.0429  0.2941  0.5288
11717TIP3    H156642   0.605   0.048  13.883  1.0664  0.8021  3.0151
11717TIP3    H256643   0.756   0.052  13.870  0.8480  1.5768  0.3579
11718TIP3   OH256644   3.089   0.761   4.112  0.0097  0.2909  0.5684
11718TIP3    H156645   3.067   0.759   4.019  1.8331 -1.0622  0.1344
11718TIP3    H256646   3.060   0.676   4.145  0.2407  0.3877  1.0194
11719TIP3   OH256647   3.201   6.168  11.798  0.4067  0.9183 -0.4199
11719TIP3    H156648   3.177   6.084  11.838 -0.3371  1.0045 -0.6878
11719TIP3    H256649   3.143   6.232  11.839  0.1101  1.1123 -1.1305
11720TIP3   OH256650   0.320   6.814  16.193 -0.0595 -0.6816  0.1570
11720TIP3    H156651   0.291   6.889  16.141  0.5030  0.1156  0.9804
11720TIP3    H256652   0.284   6.738  16.147 -2.1424  0.1802  0.2698
11721TIP3   OH256653   5.882   1.053   3.144  0.1503  0.0473  0.6613
11721TIP3    H156654   5.948   1.120   3.162  0.0365 -0.2309  2.1806
11721TIP3    H256655   5.877   1.049   3.049 -0.1256  2.4758  0.5480
11722TIP3   OH256656   5.782   6.730  11.133  0.5266  0.3460 -0.2070
11722TIP3    H156657   5.692   6.758  11.119 -1.1726 -4.0186  1.1438
11722TIP3    H256658   5.801   6.671  11.060  1.9501  0.4279  0.0710
11723TIP3   OH256659   5.822   5.586  15.866  0.8494 -0.5720 -0.4223
11723TIP3    H156660   5.741   5.567  15.818  0.5426 -0.9057  0.2201
11723TIP3    H256661   5.834   5.681  15.856 -0.7509 -0.1767  1.2226
11724TIP3   OH256662   5.051   6.502   0.959 -0.4023 -0.1581 -0.4130
11724TIP3    H156663   5.143   6.502   0.933 -0.3988  0.9601 -0.4279
11724TIP3    H256664   5.050   6.549   1.043 -1.1080  0.8964 -1.0004
11725TIP3   OH256665   5.293   3.583  14.658 -0.3749 -0.1393  0.0294
11725TIP3    H156666   5.227   3.649  14.677  0.9531  1.1109  0.3715
11725TIP3    H256667   5.320   3.551  14.745 -0.8044 -0.9362 -0.1223
11726TIP3   OH256668   4.130   4.286  11.804 -0.0903  0.2583  0.1169
11726TIP3    H156669   4.068   4.258  11.871  0.6238 -1.2150  0.1798
11726TIP3    H256670   4.198   4.219  11.804  1.5703  1.8913  0.1111
11727TIP3   OH256671   0.091   6.622   5.809  0.2445  0.2573 -0.3796
11727TIP3    H156672   0.028   6.664   5.751  0.6671  0.4995 -0.6632
11727TIP3    H256673   0.039   6.591   5.883 -0.2518  0.1962 -0.7540
11728TIP3   OH256674   2.385   5.754   6.412  0.6385  0.2611 -0.2010
11728TIP3    H156675   2.316   5.710   6.363  0.9097 -0.5440  0.1360
11728TIP3    H256676   2.467   5.723   6.372  0.8042  1.9853 -1.2706
11729TIP3   OH256677   5.584   1.882   0.618  0.1668  0.0851  0.1342
11729TIP3    H156678   5.542   1.822   0.555  1.7469 -1.3982  0.4613
11729TIP3    H256679   5.534   1.869   0.699  1.2160 -1.6992  0.5312
11730TIP3   OH256680   6.739   0.891   4.776 -0.1567 -0.1893  0.4572
11730TIP3    H156681   6.658   0.937   4.755 -0.8567 -0.1482  3.1186
11730TIP3    H256682   6.806   0.960   4.778 -0.0704 -0.1949 -1.5389
11731TIP3   OH256683   1.863   1.732  11.931  0.6884 -0.2466  0.3077
11731TIP3    H156684   1.889   1.815  11.972 -0.4752 -0.8368  2.3566
11731TIP3    H256685   1.769   1.741  11.917  0.8333 -0.6209 -0.9621
11732TIP3   OH256686   6.024   1.604   5.464  0.3903  0.5977 -0.0132
11732TIP3    H156687   6.059   1.677   5.516 -1.5846  0.3628  1.7158
11732TIP3    H256688   5.948   1.641   5.420 -0.3220 -0.2587  0.4755
11733TIP3   OH256689   6.687   3.899  12.835  0.0559 -0.1779  0.3700
11733TIP3    H156690   6.723   3.940  12.756 -0.7735 -0.3684 -0.1014
11733TIP3    H256691   6.660   3.973  12.889 -1.7100 -0.0895 -0.6065
11734TIP3   OH256692   4.910   0.783   2.281 -0.3072 -0.0877 -0.1375
11734TIP3    H156693   4.850   0.711   2.263  0.1230 -0.1011 -1.6041
11734TIP3    H256694   4.869   0.859   2.240 -0.0969  0.2257  0.2313
11735TIP3   OH256695   3.727   2.521  13.927 -0.3049 -0.7275 -0.0450
11735TIP3    H156696   3.748   2.450  13.865 -0.7143 -1.6249  0.8307
11735TIP3    H256697   3.808   2.572  13.932  0.3934 -1.8428  0.2449
11736TIP3   OH256698   0.592   4.904   2.786 -0.1270  0.4857 -0.0646
11736TIP3    H156699   0.550   4.989   2.794  0.1506  0.8111 -1.9195
11736TIP3    H256700   0.641   4.909   2.704  2.7320 -0.2260  1.5543
11737TIP3   OH256701   0.503   4.943  11.905  0.5334  0.1194 -0.2982
11737TIP3    H156702   0.585   4.895  11.918  1.2371  1.0267 -1.2911
11737TIP3    H256703   0.480   4.926  11.814 -1.3322 -1.5695  0.4564
11738TIP3   OH256704   5.637   2.454   2.122 -0.1383  0.4411  0.0834
11738TIP3    H156705   5.561   2.402   2.149  0.1613 -0.7573 -1.3223
11738TIP3    H256706   5.710   2.392   2.120  0.2876  0.9582 -1.3325
11739TIP3   OH256707   6.360   5.904   5.260 -0.0383 -0.2474 -0.0012
11739TIP3    H156708   6.352   5.985   5.210 -2.6040  0.3497  1.2858
11739TIP3    H256709   6.302   5.916   5.334 -1.0232 -3.5693 -0.1604
11740TIP3   OH256710   1.642   6.392  11.764 -0.4709  0.1495  0.2459
11740TIP3    H156711   1.687   6.383  11.680 -0.0033  1.7939  0.2874
11740TIP3    H256712   1.586   6.469  11.753 -0.0978  0.6193  1.5630
11741TIP3   OH256713   0.391   1.845   5.005 -0.1227  0.1093 -0.2712
11741TIP3    H156714   0.400   1.925   5.057  0.0561 -1.3609  2.0159
11741TIP3    H256715   0.297   1.826   5.006 -0.1180  0.0667 -0.4903
11742TIP3   OH256716   5.738   1.446   4.717 -0.6342  0.0868 -0.0040
11742TIP3    H156717   5.712   1.535   4.691  2.3410  0.1440 -3.1901
11742TIP3    H256718   5.817   1.459   4.770 -0.5720 -0.6544  0.0908
11743TIP3   OH256719   0.063   6.056  14.042 -0.0097 -0.1411 -0.7267
11743TIP3    H156720   0.074   6.027  14.133 -0.1670 -0.6186 -0.8629
11743TIP3    H256721  -0.031   6.064  14.031  0.0039 -0.2065 -0.8883
11744TIP3   OH256722   3.980   4.167   5.781  0.5339  0.3021 -0.5404
11744TIP3    H156723   3.984   4.244   5.838 -0.4512  0.6845 -0.9757
11744TIP3    H256724   4.045   4.184   5.713 -1.4796  1.9715 -2.1046
11745TIP3   OH256725   0.061   3.594   1.454  0.2562 -0.2843 -0.1591
11745TIP3    H156726   0.078   3.503   1.429 -0.0542 -0.3995  0.0477
11745TIP3    H256727   0.052   3.592   1.549  1.4565  0.1617 -0.0259
11746TIP3   OH256728   6.408   1.444   0.878  0.0386  0.4363 -0.0001
11746TIP3    H156729   6.478   1.490   0.924 -1.0862  1.2117  0.9801
11746TIP3    H256730   6.337   1.508   0.872 -0.6535 -0.3959 -0.8069
11747TIP3   OH256731   0.845   6.363   5.039 -0.2222  0.8397  0.3892
11747TIP3    H156732   0.827   6.441   5.091 -1.3742  0.7826  0.0777
11747TIP3    H256733   0.763   6.315   5.038  0.2758 -0.0162 -0.0468
11748TIP3   OH256734   5.202   1.150   0.079  0.3948  0.3376  0.5862
11748TIP3    H156735   5.249   1.171   0.159  0.3411  0.5322  0.5683
11748TIP3    H256736   5.217   1.057   0.066 -0.3118  0.1214  1.2937
11749TIP3   OH256737   6.286   1.606  16.556  0.1773  0.1043 -0.5600
11749TIP3    H156738   6.309   1.566  16.639  1.3180  0.5970 -0.6401
11749TIP3    H256739   6.198   1.572  16.537 -0.4581  0.6577  1.2574
11750TIP3   OH256740   2.499   3.918   4.205  0.4780 -0.6285 -0.6158
11750TIP3    H156741   2.479   3.976   4.131  3.3125  1.0871 -0.0864
11750TIP3    H256742   2.592   3.898   4.195  0.9171 -0.3416  2.5221
11751TIP3   OH256743   5.662   3.106   0.815  0.3098  0.0634 -0.3092
11751TIP3    H156744   5.628   3.031   0.766  0.4543 -0.8275  0.9272
11751TIP3    H256745   5.745   3.127   0.773  0.5338 -0.8269 -0.3290
11752TIP3   OH256746   3.325   3.520   3.179  0.5652 -0.7471 -0.2796
11752TIP3    H156747   3.388   3.528   3.251  2.6596  0.7258 -2.2125
11752TIP3    H256748   3.292   3.430   3.185 -0.1461 -0.3207  3.1510
11753TIP3   OH256749   5.857   2.690   4.288  0.1190 -0.3773  0.4694
11753TIP3    H156750   5.859   2.774   4.241 -1.8549  0.7174  2.2590
11753TIP3    H256751   5.835   2.713   4.378  0.3147 -2.7757  1.1744
11754TIP3   OH256752   4.743   5.175   2.540  0.2209  0.2973  0.4188
11754TIP3    H156753   4.820   5.157   2.594  0.2130 -1.9562 -0.2637
11754TIP3    H256754   4.708   5.088   2.519 -0.9990  1.2085 -1.4269
11755TIP3   OH256755   3.758   3.265  12.600  0.0424 -0.6703  0.3184
11755TIP3    H156756   3.841   3.249  12.645 -1.0837 -2.0450  1.9343
11755TIP3    H256757   3.718   3.338  12.648  0.7375  0.6486 -1.0636
11756TIP3   OH256758   3.815   4.551  12.544 -0.0219 -0.0881  0.2095
11756TIP3    H156759   3.871   4.538  12.620  0.0506  0.8057  0.3191
11756TIP3    H256760   3.776   4.638  12.558 -0.7191 -0.3150 -0.3121
11757TIP3   OH256761   2.774   3.674   3.756 -0.5535  0.1176 -0.2696
11757TIP3    H156762   2.743   3.637   3.674 -1.1514 -0.7374  0.3343
11757TIP3    H256763   2.709   3.648   3.821 -0.8675  2.0440  0.2170
11758TIP3   OH256764   3.532   5.307   5.818  0.6006  0.2016 -0.1737
11758TIP3    H156765   3.511   5.226   5.772  1.5656  0.5308 -1.2166
11758TIP3    H256766   3.512   5.377   5.755  0.3887  0.7384  0.4865
11759TIP3   OH256767   4.631   4.924  16.234 -0.0258  0.2435  0.3723
11759TIP3    H156768   4.705   4.982  16.215 -3.4570  4.8270  0.3046
11759TIP3    H256769   4.604   4.891  16.148  1.5853 -1.1127  0.3530
11760TIP3   OH256770   4.764   5.883   4.277 -0.8060 -0.0605  0.8951
11760TIP3    H156771   4.779   5.975   4.256  1.5321 -0.4081  0.9730
11760TIP3    H256772   4.690   5.858   4.221  0.1737  1.1868 -1.0198
11761TIP3   OH256773   1.277   4.289  11.798 -0.7226 -0.4584 -0.5105
11761TIP3    H156774   1.308   4.200  11.778  0.8235 -0.3515  1.2284
11761TIP3    H256775   1.308   4.342  11.725  0.4269 -0.9406 -0.3879
11762TIP3   OH256776   3.798   4.086   4.575  0.5554 -0.0134 -0.3612
11762TIP3    H156777   3.817   4.009   4.629 -2.0073  0.3882  1.1869
11762TIP3    H256778   3.730   4.056   4.515 -1.8802  1.4959  1.5333
11763TIP3   OH256779   3.736   2.732  11.508 -0.3688 -0.5479 -0.6774
11763TIP3    H156780   3.818   2.687  11.531 -0.2391 -1.0867 -2.1173
11763TIP3    H256781   3.762   2.796  11.442 -0.7487  0.8529  0.5132
11764TIP3   OH256782   4.536   2.047  16.292  0.6523  0.2592  0.3840
11764TIP3    H156783   4.552   2.089  16.376 -1.3829  1.4695  0.1962
11764TIP3    H256784   4.572   1.959  16.302 -0.3182  0.1062  2.8077
11765TIP3   OH256785   1.464   1.164  11.689  0.1472 -0.5470  0.1516
11765TIP3    H156786   1.373   1.147  11.711 -0.0355  0.7816  0.4616
11765TIP3    H256787   1.514   1.129  11.763 -0.1213 -0.9747  0.1348
11766TIP3   OH256788   0.328   5.674   6.022 -0.0891 -0.9679 -0.2376
11766TIP3    H156789   0.336   5.705   6.112  0.4071 -1.7249 -0.0136
11766TIP3    H256790   0.354   5.749   5.968  1.9950 -1.2649  0.3145
11767TIP3   OH256791   6.039   2.953  14.588  0.1934  0.0208 -0.1863
11767TIP3    H156792   5.974   2.909  14.533  1.0530 -0.1061 -1.1243
11767TIP3    H256793   6.024   2.918  14.676 -1.3016  0.3382 -0.3035
11768TIP3   OH256794   5.306   2.127  12.330 -0.5102 -0.0933  0.5777
11768TIP3    H156795   5.299   2.188  12.403  3.0264  0.7659  0.2764
11768TIP3    H256796   5.343   2.048  12.369  2.1496  0.6421 -0.3351
11769TIP3   OH256797   0.159   6.516  13.461  0.3713  0.2715  0.2188
11769TIP3    H156798   0.225   6.465  13.414  0.8848  0.4906  0.7024
11769TIP3    H256799   0.083   6.515  13.403  0.3395 -1.1369  0.2664
11770TIP3   OH256800   4.853   4.743  13.794  0.9231  0.5696  0.0882
11770TIP3    H156801   4.777   4.791  13.760  2.1864  2.3444 -0.3057
11770TIP3    H256802   4.925   4.767  13.735  2.5800  1.6782  2.4486
11771TIP3   OH256803   0.426   6.469   3.020  0.3082 -0.1253  0.1381
11771TIP3    H156804   0.519   6.447   3.021 -0.2317 -2.4932  1.0452
11771TIP3    H256805   0.410   6.498   2.930  1.9637  0.5587  0.0411
11772TIP3   OH256806   5.266   0.974  12.203  0.4977  0.5492  0.1764
11772TIP3    H156807   5.175   0.992  12.229  0.3094 -0.1473  0.0040
11772TIP3    H256808   5.314   0.971  12.285  0.7262  2.8415  0.1713
11773TIP3   OH256809   2.165   2.560   5.181  0.1662  0.2666  0.2103
11773TIP3    H156810   2.246   2.599   5.213 -0.3540  1.2220  0.4046
11773TIP3    H256811   2.123   2.525   5.259  0.8025 -1.0113 -0.0165
11774TIP3   OH256812   1.825   6.412  10.664 -0.2723 -0.0059  0.4435
11774TIP3    H156813   1.754   6.348  10.654  1.1239 -1.4897 -0.1084
11774TIP3    H256814   1.780   6.495  10.679 -2.2258 -0.2591 -3.4173
11775TIP3   OH256815   5.702   3.488  14.063 -0.0266  0.2238 -0.2931
11775TIP3    H156816   5.620   3.502  14.110  0.0264 -1.1867  0.2209
11775TIP3    H256817   5.677   3.437  13.986  0.4264 -0.5418  0.0660
11776TIP3   OH256818   3.914   6.286   4.353  0.0390  0.4022 -0.7054
11776TIP3    H156819   3.964   6.364   4.328  0.5235  0.9191  1.7061
11776TIP3    H256820   3.980   6.218   4.365  0.1653  0.9026  1.8054
11777TIP3   OH256821   4.665   1.824  13.113  0.2497 -0.0125 -0.1672
11777TIP3    H156822   4.649   1.732  13.094 -2.0442 -0.1514  2.1092
11777TIP3    H256823   4.714   1.823  13.195 -0.0252  0.7904  0.0099
11778TIP3   OH256824   5.628   1.169   0.665 -0.1483  0.2555  0.6843
11778TIP3    H156825   5.662   1.130   0.746 -0.7914 -1.6896  0.0381
11778TIP3    H256826   5.593   1.095   0.615 -1.9140  1.7311 -0.3299
11779TIP3   OH256827   6.240   3.357  12.940  0.1533  0.4574  0.0876
11779TIP3    H156828   6.186   3.387  13.013 -1.4991  1.9340 -1.6934
11779TIP3    H256829   6.294   3.433  12.917  1.6194 -0.4052  0.5675
11780TIP3   OH256830   5.164   4.339  11.819 -0.1749  0.3424  0.2256
11780TIP3    H156831   5.200   4.261  11.777 -1.1360  0.4180 -0.7747
11780TIP3    H256832   5.199   4.338  11.907  0.1454 -1.0086  0.0861
11781TIP3   OH256833   2.484   0.417  14.007  0.1539 -0.6245  0.3793
11781TIP3    H156834   2.523   0.497  14.044  0.1657 -0.3924 -0.1316
11781TIP3    H256835   2.390   0.427  14.024  0.4347 -1.8041  2.7956
11782TIP3   OH256836   5.385   6.302   5.005  0.2232  0.4989 -1.5356
11782TIP3    H156837   5.295   6.274   4.990  1.2081 -2.7668 -1.7613
11782TIP3    H256838   5.429   6.288   4.921  0.8377  2.6542 -1.6056
11783TIP3   OH256839   0.859   6.691   5.278  0.1632  0.8654  0.2142
11783TIP3    H156840   0.797   6.756   5.311 -0.4731 -0.0677  0.8771
11783TIP3    H256841   0.835   6.679   5.186 -2.5392 -1.6133  1.1850
11784TIP3   OH256842   5.683   2.955  11.723  0.2883 -0.0862 -0.2964
11784TIP3    H156843   5.717   2.866  11.709 -0.1012 -0.2959  0.0731
11784TIP3    H256844   5.705   2.974  11.814  2.7906  1.2653 -1.1239
11785TIP3   OH256845   4.886   6.550   0.740  0.5995 -0.1907  0.0319
11785TIP3    H156846   4.930   6.575   0.821 -1.6137  1.6010  0.7143
11785TIP3    H256847   4.851   6.462   0.758  1.6566 -0.5527  0.3666
11786TIP3   OH256848   5.256   0.046   3.916  0.3773 -0.5302 -0.4902
11786TIP3    H156849   5.261   0.017   3.824 -0.4229 -0.4214 -0.5755
11786TIP3    H256850   5.234   0.139   3.910  1.8265 -0.1661 -0.2005
11787TIP3   OH256851   2.151   5.317   3.859  0.1745  0.0185  0.3673
11787TIP3    H156852   2.230   5.285   3.816  2.1179  1.2627  2.8347
11787TIP3    H256853   2.165   5.411   3.867 -1.1599  0.1313  1.5827
11788TIP3   OH256854   1.474   5.827   5.361 -0.1781  0.2394 -0.1770
11788TIP3    H156855   1.532   5.789   5.427 -0.2855 -0.9787 -0.7835
11788TIP3    H256856   1.419   5.755   5.332 -1.5149  1.2229 -0.1455
11789TIP3   OH256857   1.589   3.009  14.628  0.5539 -0.0259  0.1993
11789TIP3    H156858   1.571   3.103  14.627  0.1831 -0.0989 -0.1940
11789TIP3    H256859   1.608   2.989  14.719 -0.4275  0.2343  0.4649
11790TIP3   OH256860   0.015   0.934   4.140 -0.1943  0.0591 -0.3197
11790TIP3    H156861   0.092   0.898   4.183 -0.1610 -1.1713 -1.3715
11790TIP3    H256862  -0.059   0.899   4.191 -0.0869  0.3395  0.0258
11791TIP3   OH256863   3.384   6.109   3.078 -0.0417  0.1843 -0.0873
11791TIP3    H156864   3.391   6.205   3.085  1.1693 -0.0475  2.6279
11791TIP3    H256865   3.293   6.090   3.099  0.2309  0.6152  1.5497
11792TIP3   OH256866   2.693   6.368   5.951 -0.4544 -0.7248 -0.1266
11792TIP3    H156867   2.642   6.447   5.964  0.7075  0.0087  0.0269
11792TIP3    H256868   2.692   6.354   5.856 -1.5977 -1.1724 -0.0613
11793TIP3   OH256869   2.475   1.224  14.576  0.0401  0.5831  0.6233
11793TIP3    H156870   2.402   1.281  14.552 -0.3772  0.5844  1.8612
11793TIP3    H256871   2.514   1.265  14.653 -0.2010 -0.7353  1.4706
11794TIP3   OH256872   3.121   6.615   1.004 -0.1057 -0.6250 -0.6007
11794TIP3    H156873   3.180   6.615   1.079 -1.5206 -1.5885  0.5391
11794TIP3    H256874   3.034   6.621   1.042 -0.8754 -1.6686 -2.1426
11795TIP3   OH256875   0.853   4.033   0.552 -0.4962 -0.7063  0.0789
11795TIP3    H156876   0.912   4.089   0.502 -2.3037 -0.1482 -1.4886
11795TIP3    H256877   0.860   3.947   0.511  1.0139 -1.2559  1.4277
11796TIP3   OH256878   2.112   6.097  12.400 -0.2745  0.5358  0.9758
11796TIP3    H156879   2.087   6.008  12.421  1.3254  0.0858  1.0553
11796TIP3    H256880   2.180   6.119  12.464  0.4339  1.2513  0.0009
11797TIP3   OH256881   0.548   1.810  14.197  0.0568  0.4791 -0.0278
11797TIP3    H156882   0.599   1.735  14.166 -0.2498 -0.1869  1.0539
11797TIP3    H256883   0.482   1.824  14.129 -0.4109 -0.7648  0.1604
11798TIP3   OH256884   6.374   1.361   5.915  0.1315 -0.2735  0.0845
11798TIP3    H156885   6.366   1.403   6.000 -0.1175 -1.0645  0.4517
11798TIP3    H256886   6.312   1.408   5.859 -2.4511 -2.1842  1.2841
11799TIP3   OH256887   3.287   6.754   0.863 -0.4592 -0.1845 -0.3579
11799TIP3    H156888   3.374   6.754   0.904 -0.3583 -0.7140 -0.5779
11799TIP3    H256889   3.232   6.705   0.924 -0.2569 -1.1767 -0.9604
11800TIP3   OH256890   5.606   5.377   3.078 -0.5939  0.1305  0.4915
11800TIP3    H156891   5.548   5.437   3.031 -0.6386 -0.0184  0.3580
11800TIP3    H256892   5.560   5.293   3.076  0.0298 -0.1968 -0.3792
11801TIP3   OH256893   5.525   6.107  14.717  0.4743 -0.4453 -0.2090
11801TIP3    H156894   5.435   6.138  14.708  1.0343  0.8959 -1.4166
11801TIP3    H256895   5.517   6.015  14.740 -1.1991 -0.5924 -1.3507
11802TIP3   OH256896   6.038   0.314   0.825 -0.1847  0.3014  0.1119
11802TIP3    H156897   6.037   0.219   0.840 -0.4171  0.0771 -1.3171
11802TIP3    H256898   6.130   0.339   0.832  0.3157 -0.5678 -2.7828
11803TIP3   OH256899   4.079   1.817  16.033  0.0874  0.3567  0.2010
11803TIP3    H156900   4.168   1.813  16.069 -0.0326  1.4185  0.6309
11803TIP3    H256901   4.070   1.736  15.983  0.7846 -0.4513  1.3492
11804TIP3   OH256902   2.725   5.861  16.054  0.5441 -0.1914  0.2933
11804TIP3    H156903   2.691   5.910  16.129 -0.8637 -0.4733 -0.1454
11804TIP3    H256904   2.798   5.915  16.021 -1.2949  1.8753 -0.4914
11805TIP3   OH256905   3.232   0.123  11.663  0.4249  0.8205  0.1172
11805TIP3    H156906   3.164   0.108  11.597  0.3836 -0.0177  0.3451
11805TIP3    H256907   3.193   0.095  11.746  0.4902  1.8358  0.4975
11806TIP3   OH256908   2.192   3.424  10.549 -0.2964  0.2885 -0.0054
11806TIP3    H156909   2.276   3.417  10.595 -0.4526 -0.7396  0.1423
11806TIP3    H256910   2.184   3.517  10.527 -0.0475  0.7428  1.7432
11807TIP3   OH256911   4.420   3.446  15.965  0.1084 -0.1917 -0.0368
11807TIP3    H156912   4.478   3.465  15.892  0.8196 -1.4596  0.1873
11807TIP3    H256913   4.470   3.387  16.021 -0.5327  0.5393  1.3323
11808TIP3   OH256914   6.734   1.630  16.144  0.6187 -0.4851  0.1531
11808TIP3    H156915   6.793   1.608  16.071  0.2911  1.0534 -0.6015
11808TIP3    H256916   6.650   1.593  16.118  0.3875  0.4637 -0.4923
11809TIP3   OH256917   6.209   6.759   2.810  0.2216  0.2180  0.2568
11809TIP3    H156918   6.138   6.779   2.871 -0.3283 -1.6875  0.2566
11809TIP3    H256919   6.171   6.777   2.724 -1.3449 -3.6768  0.0317
11810TIP3   OH256920   1.582   3.579  13.807  0.3097  0.6177 -0.3903
11810TIP3    H156921   1.671   3.614  13.814  0.6213 -0.1231 -0.6002
11810TIP3    H256922   1.592   3.485  13.820 -0.2690  0.3628 -1.7659
11811TIP3   OH256923   0.808   5.992   0.467 -0.4445  0.4891  0.7002
11811TIP3    H156924   0.857   5.948   0.537  2.0638  0.9305 -0.7027
11811TIP3    H256925   0.824   6.085   0.482 -1.9694  0.7076  0.9949
11812TIP3   OH256926   6.426   6.599   2.718 -0.4335 -0.1120  0.0533
11812TIP3    H156927   6.479   6.646   2.653 -1.1153 -0.2476 -0.6108
11812TIP3    H256928   6.368   6.667   2.754 -0.8830 -0.2875 -0.3437
11813TIP3   OH256929   2.821   4.539   5.218 -0.2382 -0.7537 -0.0548
11813TIP3    H156930   2.857   4.451   5.205 -1.7548 -1.2763 -0.7362
11813TIP3    H256931   2.858   4.591   5.146 -0.5745 -1.2032 -0.5530
11814TIP3   OH256932   2.871   2.259  15.548  0.1546 -0.2691 -0.0925
11814TIP3    H156933   2.937   2.230  15.485  0.5974 -0.9917  0.6909
11814TIP3    H256934   2.889   2.207  15.626 -0.1273  0.8992  0.7595
11815TIP3   OH256935   0.104   6.171  16.504 -0.0346 -0.7093  0.5945
11815TIP3    H156936   0.141   6.254  16.534  1.4387 -1.5048  1.0616
11815TIP3    H256937   0.148   6.153  16.421 -2.4717  0.3792 -0.9827
11816TIP3   OH256938   5.809   1.643   2.904  0.2053 -0.1298  0.0921
11816TIP3    H156939   5.873   1.594   2.854 -1.1655 -1.5690 -0.2878
11816TIP3    H256940   5.769   1.578   2.962  0.9282  1.2637  2.2165
11817TIP3   OH256941   5.056   2.153  13.656 -0.0427  0.4766 -0.6833
11817TIP3    H156942   5.054   2.211  13.732  1.9882 -1.1637  0.6919
11817TIP3    H256943   5.117   2.195  13.595  0.7469  0.2550 -0.0592
11818TIP3   OH256944   0.193   2.114   2.810  0.7382 -0.0614  0.2234
11818TIP3    H156945   0.169   2.207   2.807  0.3593 -0.1791 -0.2602
11818TIP3    H256946   0.171   2.080   2.724  2.2018 -0.2767 -0.0760
11819TIP3   OH256947   5.283   0.202   4.433  0.1757 -0.4543  0.0434
11819TIP3    H156948   5.357   0.172   4.380  0.1100  0.1182 -0.3732
11819TIP3    H256949   5.210   0.145   4.407  0.0020  0.1818 -0.8824
11820TIP3   OH256950   0.596   4.469   3.036  0.5104 -0.4109  0.0263
11820TIP3    H156951   0.608   4.409   2.963  0.1583 -0.8488  0.3317
11820TIP3    H256952   0.546   4.542   2.999 -0.3382 -0.9886  0.0090
11821TIP3   OH256953   0.546   1.485  16.922  0.3101  0.1022  0.1138
11821TIP3    H156954   0.612   1.497  16.990 -1.5930 -0.0116  2.0236
11821TIP3    H256955   0.545   1.391  16.906 -0.3845 -0.0655  1.1144
11822TIP3   OH256956   2.790   4.917   5.215  0.5719 -0.3155  0.1466
11822TIP3    H156957   2.728   4.963   5.159  1.6069  1.3079  0.3060
11822TIP3    H256958   2.858   4.885   5.156  1.1737  0.5775  0.3513
11823TIP3   OH256959   3.170   0.064   1.159  0.5688  0.8547 -0.0655
11823TIP3    H156960   3.170   0.126   1.087 -0.0110  2.2552  1.1110
11823TIP3    H256961   3.082   0.025   1.157  0.6471  0.6881 -0.2820
11824TIP3   OH256962   1.607   5.101  17.145 -0.3650 -0.0930 -0.2428
11824TIP3    H156963   1.570   5.138  17.065 -1.1464  0.0233  0.1774
11824TIP3    H256964   1.550   5.027  17.166 -0.8088  0.5571  0.8334
11825TIP3   OH256965   4.491   4.662  12.625 -0.7687  0.2078 -0.3326
11825TIP3    H156966   4.575   4.627  12.652 -1.0371 -0.6724 -0.6402
11825TIP3    H256967   4.453   4.698  12.705  0.7907  2.5033 -0.5639
11826TIP3   OH256968   5.885   3.144   4.738 -0.2229 -0.0846  0.0347
11826TIP3    H156969   5.838   3.076   4.689 -0.3830  0.6974 -0.9037
11826TIP3    H256970   5.870   3.121   4.830 -1.3778 -0.5683 -0.2606
11827TIP3   OH256971   1.089   2.787  12.960  0.1610 -0.4359 -0.1384
11827TIP3    H156972   1.071   2.724  12.891 -1.4001 -0.7461  0.5365
11827TIP3    H256973   1.184   2.798  12.959  0.2226 -1.0558 -1.7787
11828TIP3   OH256974   5.336   2.235   2.739  0.0840  0.1224  0.1636
11828TIP3    H156975   5.417   2.227   2.690  0.5918  1.2108  0.7854
11828TIP3    H256976   5.323   2.149   2.779  1.5970  0.2722  1.0428
11829TIP3   OH256977   2.769   1.709  15.072 -0.1435 -0.0695  0.2848
11829TIP3    H156978   2.684   1.728  15.112  1.3081  2.8538  2.2001
11829TIP3    H256979   2.783   1.782  15.011  1.1368 -0.3279  0.2593
11830TIP3   OH256980   3.405   3.299   2.821 -0.0353 -0.7465 -0.5397
11830TIP3    H156981   3.374   3.388   2.838 -2.4484 -1.5179 -0.7592
11830TIP3    H256982   3.431   3.266   2.907 -2.7124 -1.1302  0.1652
11831TIP3   OH256983   0.124   6.637  15.065  0.0038 -0.2556  0.2314
11831TIP3    H156984   0.105   6.684  14.983  1.7515  2.1175  1.1061
11831TIP3    H256985   0.220   6.635  15.069 -0.0686 -0.3142  2.2274
11832TIP3   OH256986   4.259   0.707   4.806  0.2501  0.2636  0.3958
11832TIP3    H156987   4.301   0.629   4.770  0.4516 -0.0906  1.4118
11832TIP3    H256988   4.174   0.676   4.837  1.0662  0.0567  2.5069
11833TIP3   OH256989   0.773   3.278  13.970  0.6140  0.2177  0.2513
11833TIP3    H156990   0.860   3.249  13.997  1.0254 -0.3382 -1.5454
11833TIP3    H256991   0.740   3.205  13.917 -0.3069  1.0727 -0.3552
11834TIP3   OH256992   6.337   5.400  14.401  0.2722 -0.8506 -0.1160
11834TIP3    H156993   6.431   5.399  14.421  0.5455  0.5823 -1.2269
11834TIP3    H256994   6.332   5.370  14.310 -0.4877 -2.2286  0.3582
11835TIP3   OH256995   3.570   2.897   3.474  0.0542  0.1448  0.0162
11835TIP3    H156996   3.560   2.902   3.379  2.0197  0.4685 -0.1885
11835TIP3    H256997   3.550   2.806   3.496 -0.3647  0.0560 -0.7191
11836TIP3   OH256998   0.740   6.398   6.690 -0.1182 -0.2793 -0.1759
11836TIP3    H156999   0.805   6.330   6.673 -0.3682 -0.7942  0.9139
11836TIP3    H257000   0.779   6.452   6.759 -0.9057 -0.6865  0.5992
11837TIP3   OH257001   4.835   4.667   3.104  0.1435 -0.3357 -0.6630
11837TIP3    H157002   4.742   4.668   3.081 -0.6427 -0.8758  2.2485
11837TIP3    H257003   4.841   4.607   3.178  2.3000  2.0809  1.2204
11838TIP3   OH257004   0.528   1.031  13.753  0.2366  0.3064 -0.3057
11838TIP3    H157005   0.491   0.979  13.682  2.2553 -2.0346  0.2774
11838TIP3    H257006   0.571   0.967  13.809 -0.3735  2.2278  2.4607
11839TIP3   OH257007   0.240   4.802  12.949  0.0381 -0.3746  0.1887
11839TIP3    H157008   0.312   4.762  12.899 -0.6845  0.1326 -1.2949
11839TIP3    H257009   0.171   4.735  12.949  0.3631 -0.7183  1.2969
11840TIP3   OH257010   5.677   3.018   1.071 -0.0049 -0.0669  0.1863
11840TIP3    H157011   5.682   2.923   1.061  1.0190  0.0359 -0.3027
11840TIP3    H257012   5.672   3.052   0.982  0.6125  0.3844  0.3174
11841TIP3   OH257013   1.958   2.254   1.322 -0.1103 -0.3902 -0.0640
11841TIP3    H157014   1.961   2.279   1.414  1.6680  0.8716 -0.4244
11841TIP3    H257015   2.002   2.169   1.318  2.0946  0.7109 -0.0576
11842TIP3   OH257016   6.650   0.946  11.609 -0.5441  0.3147 -0.1765
11842TIP3    H157017   6.685   0.975  11.525 -0.9676 -2.0002 -1.1575
11842TIP3    H257018   6.556   0.964  11.604 -0.3948  1.2741  0.2815
11843TIP3   OH257019   2.771   2.437   4.429  0.5192 -0.7027 -0.4132
11843TIP3    H157020   2.747   2.518   4.384  0.9564 -1.6536 -2.3989
11843TIP3    H257021   2.839   2.464   4.491  0.7103  0.4493 -1.1008
11844TIP3   OH257022   1.771   6.746  15.128 -0.5798 -0.2447  1.2697
11844TIP3    H157023   1.705   6.734  15.060  0.0376  0.6993  0.4838
11844TIP3    H257024   1.723   6.740  15.210 -1.6013  0.1806  0.7048
11845TIP3   OH257025   3.721   2.818   2.512 -0.2062 -0.2749 -0.3663
11845TIP3    H157026   3.699   2.793   2.602 -0.0443  0.4014 -0.1338
11845TIP3    H257027   3.669   2.897   2.496  0.2682 -0.0146 -0.6283
11846TIP3   OH257028   1.137   5.931  12.420  0.2940  0.3482 -0.5109
11846TIP3    H157029   1.137   5.937  12.325 -0.1501 -1.7905 -0.6849
11846TIP3    H257030   1.229   5.919  12.444  0.1741 -1.5761 -0.9001
11847TIP3   OH257031   3.822   3.327   2.221  0.1355 -0.7135 -0.1760
11847TIP3    H157032   3.729   3.324   2.240  0.3421 -0.8095  0.8312
11847TIP3    H257033   3.858   3.250   2.266  0.9190  0.1311  0.6700
11848TIP3   OH257034   4.328   2.878   4.644 -0.0507 -0.1713  0.5817
11848TIP3    H157035   4.291   2.806   4.592  0.1235  0.2169 -0.0976
11848TIP3    H257036   4.252   2.926   4.677 -0.1657 -0.6520  1.0108
11849TIP3   OH257037   6.245   0.150  16.254 -0.1114  0.2436 -0.7020
11849TIP3    H157038   6.316   0.200  16.294 -0.0676  0.2291 -0.7604
11849TIP3    H257039   6.261   0.157  16.160 -0.1899  0.2443 -0.7138
11850TIP3   OH257040   3.269   3.888   2.556 -0.0637  0.3741  0.6376
11850TIP3    H157041   3.258   3.982   2.548  0.1744  0.5176  1.8486
11850TIP3    H257042   3.266   3.855   2.466  1.4170  1.7134  0.0732
11851TIP3   OH257043   4.763   5.541   2.739  0.5243  0.1290 -0.2963
11851TIP3    H157044   4.725   5.610   2.685 -1.2058 -0.9371 -0.4963
11851TIP3    H257045   4.804   5.481   2.676  1.0645  0.3999 -0.2044
11852TIP3   OH257046   2.982   4.273   1.300  0.0818  0.0663  0.5937
11852TIP3    H157047   3.067   4.248   1.338  0.2244 -1.5547 -0.7644
11852TIP3    H257048   2.999   4.278   1.206 -1.5989 -1.3190  0.2152
11853TIP3   OH257049   4.217   2.236  12.130  0.0807 -0.2879 -0.3183
11853TIP3    H157050   4.173   2.259  12.211  0.5697 -0.3635 -0.0315
11853TIP3    H257051   4.231   2.320  12.085  0.4444 -0.1781 -0.0013
11854TIP3   OH257052   5.531   5.069   1.890 -0.0110  0.5459  0.1611
11854TIP3    H157053   5.453   5.046   1.942 -0.9762  0.1637 -1.4228
11854TIP3    H257054   5.523   5.017   1.811  2.4506 -0.3123  0.4351
11855TIP3   OH257055   6.352   3.497   5.306 -0.1385 -0.1224  0.1461
11855TIP3    H157056   6.386   3.414   5.340 -0.4592  0.4487  1.9037
11855TIP3    H257057   6.343   3.553   5.383 -2.3191  0.7221 -0.6722
11856TIP3   OH257058   1.288   5.738  13.020 -0.4482 -0.4954 -0.2328
11856TIP3    H157059   1.294   5.748  12.925 -1.0621 -0.6482 -0.2921
11856TIP3    H257060   1.201   5.699  13.034 -1.8130  2.6719  0.6139
11857TIP3   OH257061   6.565   6.643   2.085  0.2949 -0.3590 -0.6010
11857TIP3    H157062   6.515   6.649   2.167 -0.5789  2.6681 -1.2549
11857TIP3    H257063   6.543   6.558   2.049 -1.7603 -0.4692  0.8259
11858TIP3   OH257064   3.843   3.142   0.384 -0.3353 -0.2609 -0.7300
11858TIP3    H157065   3.793   3.068   0.417 -0.1430 -0.2231 -0.3496
11858TIP3    H257066   3.932   3.109   0.373  0.3127  0.5713  1.8011
11859TIP3   OH257067   5.318   4.523   2.385 -0.6802  0.1354  0.7058
11859TIP3    H157068   5.391   4.567   2.428 -1.5178  0.6738  1.5826
11859TIP3    H257069   5.345   4.432   2.379  1.2038  0.7777 -1.3830
11860TIP3   OH257070   3.662   2.845   1.552  0.3243 -0.0540 -0.2116
11860TIP3    H157071   3.630   2.932   1.526  1.6341 -0.1464 -2.1650
11860TIP3    H257072   3.751   2.860   1.584  0.6423 -0.7083 -0.7750
11861TIP3   OH257073   5.558   1.095   1.357  0.3022  0.0373 -0.6484
11861TIP3    H157074   5.521   1.180   1.381  1.3095  0.3457 -0.1837
11861TIP3    H257075   5.496   1.031   1.393 -1.3281  0.5823 -2.4161
11862TIP3   OH257076   6.284   0.548   4.512  0.4301 -0.2572  0.2506
11862TIP3    H157077   6.295   0.626   4.456 -0.3212 -0.2823  0.0666
11862TIP3    H257078   6.371   0.535   4.551  0.5973  0.5956  0.1849
11863TIP3   OH257079   0.860   0.258  16.067 -0.3709  0.1543  0.0029
11863TIP3    H157080   0.947   0.220  16.079 -1.2436 -1.8387  0.1010
11863TIP3    H257081   0.861   0.290  15.976  0.5229  0.3701  0.0743
11864TIP3   OH257082   4.079   0.042   0.512  0.4903  0.2028 -0.2607
11864TIP3    H157083   4.005   0.101   0.522 -1.9562 -2.9613  1.1409
11864TIP3    H257084   4.052  -0.020   0.444  1.6709 -1.2258  0.5413
11865TIP3   OH257085   6.291   2.447   4.387 -0.3716 -0.1644  0.2867
11865TIP3    H157086   6.239   2.367   4.397 -2.9514  1.2932 -0.8147
11865TIP3    H257087   6.324   2.444   4.298 -0.5471  0.0133  0.2136
11866TIP3   OH257088   5.981   6.308  17.126 -0.2699 -0.4306  0.0513
11866TIP3    H157089   6.076   6.324  17.129 -0.3785  0.4760 -1.0710
11866TIP3    H257090   5.972   6.232  17.069 -0.3466  0.7301 -1.5200
11867TIP3   OH257091   5.696   2.671   0.304 -0.0422 -0.5069  0.4136
11867TIP3    H157092   5.708   2.700   0.394 -1.7714 -1.8472  1.1100
11867TIP3    H257093   5.785   2.652   0.273  0.5859  0.1600  1.7516
11868TIP3   OH257094   3.928   2.804  16.535  0.5291 -0.0145 -0.6024
11868TIP3    H157095   3.984   2.727  16.530  1.0075  0.2039  1.0602
11868TIP3    H257096   3.910   2.814  16.628 -0.3534  1.3001 -0.9042
11869TIP3   OH257097   2.761   2.991  11.169  0.0125 -0.7039 -0.2091
11869TIP3    H157098   2.689   3.034  11.214 -0.3049 -1.9656  0.5309
11869TIP3    H257099   2.838   3.044  11.189 -0.5104 -0.0153 -0.0256
11870TIP3   OH257100   2.624   6.436  12.226 -0.8569 -0.1180  0.1273
11870TIP3    H157101   2.716   6.429  12.255 -0.5905 -0.7530 -0.8288
11870TIP3    H257102   2.629   6.431  12.131 -2.0025 -1.7029  0.1261
11871TIP3   OH257103   0.987   3.976  12.104 -0.5615  0.3844  0.1422
11871TIP3    H157104   1.008   4.048  12.044 -0.9424 -0.2939 -0.8127
11871TIP3    H257105   1.012   3.897  12.056  0.0551 -0.1218  1.2711
11872TIP3   OH257106   6.589   3.206  15.900  0.6295  0.1535  0.3625
11872TIP3    H157107   6.577   3.301  15.899  0.5483  0.1414 -0.2981
11872TIP3    H257108   6.505   3.170  15.871  0.1243 -0.1934  2.1982
11873TIP3   OH257109   5.323   5.711  15.578  0.1804 -0.0539  0.7451
11873TIP3    H157110   5.299   5.773  15.646 -0.9187 -1.3909  1.5926
11873TIP3    H257111   5.290   5.750  15.497  0.7506  1.1356  1.0757
11874TIP3   OH257112   5.209   0.527  14.503 -0.1410 -0.0257 -0.1776
11874TIP3    H157113   5.186   0.612  14.541 -2.0752 -0.6403  0.0651
11874TIP3    H257114   5.300   0.537  14.476 -0.2485  2.0246  0.1384
11875TIP3   OH257115   3.585   2.758   2.748  0.3656 -0.3329 -0.6488
11875TIP3    H157116   3.530   2.685   2.777  0.0226  0.6033  1.1389
11875TIP3    H257117   3.528   2.835   2.753  0.8691  0.1445 -2.0205
11876TIP3   OH257118   4.419   3.535   4.304  0.1137  0.0477  0.1305
11876TIP3    H157119   4.434   3.584   4.223 -0.2630 -1.6697 -1.0087
11876TIP3    H257120   4.370   3.458   4.276 -0.8794 -0.0783  2.1520
11877TIP3   OH257121   5.085   1.468   4.592  0.1387 -0.2146 -0.1311
11877TIP3    H157122   5.007   1.498   4.544  0.5943 -0.9245 -1.3407
11877TIP3    H257123   5.151   1.457   4.524  0.3575 -2.7253  0.4472
11878TIP3   OH257124   4.900   0.072  13.042  0.2301  0.3343 -0.0157
11878TIP3    H157125   4.839   0.146  13.042 -0.3943 -0.1717 -0.0438
11878TIP3    H257126   4.974   0.102  12.990  0.5874  1.4245  1.0857
11879TIP3   OH257127   3.662   6.263   0.196 -0.5708  0.5365 -0.4394
11879TIP3    H157128   3.595   6.327   0.222 -0.4403  0.8211 -0.8016
11879TIP3    H257129   3.660   6.197   0.265 -3.1654 -0.9260 -1.8062
11880TIP3   OH257130   3.334   1.118  12.548 -0.7877 -0.1486  0.5551
11880TIP3    H157131   3.388   1.104  12.470 -0.6740  1.5303  0.3084
11880TIP3    H257132   3.397   1.141  12.617 -0.9472 -0.9671  0.9806
11881TIP3   OH257133   0.487   5.743  12.171  0.0347 -0.2128  0.2494
11881TIP3    H157134   0.562   5.696  12.208  1.0219  0.6608 -0.6271
11881TIP3    H257135   0.428   5.756  12.246  0.2268 -1.9027  0.7110
11882TIP3   OH257136   0.256   4.694   1.589  0.1171 -0.0093  0.1924
11882TIP3    H157137   0.215   4.774   1.556 -0.9121  0.3918  2.3203
11882TIP3    H257138   0.201   4.623   1.555 -1.1671  0.4147  1.3421
11883TIP3   OH257139   1.591   5.066  14.946  0.2798 -0.3459 -0.3847
11883TIP3    H157140   1.631   5.153  14.947  0.3303 -0.3731 -0.1932
11883TIP3    H257141   1.515   5.075  14.887  0.3117 -0.1846 -0.3994
11884TIP3   OH257142   5.940   6.127   2.305 -0.0848 -0.0105  0.6368
11884TIP3    H157143   5.905   6.131   2.394 -0.0876  0.3534  0.6217
11884TIP3    H257144   5.898   6.200   2.259 -0.3112 -0.3794  0.2527
11885TIP3   OH257145   3.125   2.847  16.391 -0.2582  1.0803 -0.2106
11885TIP3    H157146   3.135   2.783  16.461 -0.1260  1.5304  0.1865
11885TIP3    H257147   3.063   2.807  16.330  0.9064 -0.0136 -0.6699
11886TIP3   OH257148   4.695   0.425   3.549 -0.1314 -0.4442 -0.5409
11886TIP3    H157149   4.728   0.454   3.464  1.9662 -1.8207 -0.2289
11886TIP3    H257150   4.671   0.334   3.536  0.6113 -0.7917  0.4542
11887TIP3   OH257151   6.694   5.325   2.632 -0.4855 -0.2368 -0.2353
11887TIP3    H157152   6.611   5.329   2.679  0.1647  1.3955  0.8107
11887TIP3    H257153   6.670   5.337   2.540 -1.3481  1.1887  0.1505
11888TIP3   OH257154   4.429   5.370  14.725  0.4755 -0.3942 -0.3246
11888TIP3    H157155   4.465   5.452  14.761  0.4001 -1.0699  1.3421
11888TIP3    H257156   4.445   5.376  14.631  3.1982  0.2035  0.1316
11889TIP3   OH257157   6.073   1.642   4.053  0.4243 -0.0308 -0.2595
11889TIP3    H157158   6.023   1.615   4.130  0.4959 -0.7677 -0.4680
11889TIP3    H257159   6.120   1.720   4.081 -0.5960  0.4933  0.0418
11890TIP3   OH257160   2.250   5.125   2.554 -0.2191  0.0795 -0.0012
11890TIP3    H157161   2.162   5.094   2.534  0.5426 -1.5331 -0.9669
11890TIP3    H257162   2.304   5.045   2.555  1.2395  1.0527  0.4843
11891TIP3   OH257163   5.372   5.179  11.057 -0.0042  0.0871 -0.1887
11891TIP3    H157164   5.308   5.224  11.002 -0.0592 -1.8457 -1.7392
11891TIP3    H257165   5.442   5.243  11.069 -1.8678  2.0061  0.9734
11892TIP3   OH257166   4.855   2.829   2.569  0.8771  0.2383 -0.0140
11892TIP3    H157167   4.838   2.923   2.569 -0.1385  0.1519  4.0165
11892TIP3    H257168   4.771   2.790   2.546  1.5173  0.2871 -2.5605
11893TIP3   OH257169   0.798   5.700   1.662 -0.7160 -0.0285 -0.0495
11893TIP3    H157170   0.826   5.618   1.703 -1.1324  0.5446  1.4508
11893TIP3    H257171   0.875   5.732   1.616 -0.0499 -0.3970  0.7939
11894TIP3   OH257172   2.434   2.874   3.954  0.4461  0.2857 -0.2323
11894TIP3    H157173   2.350   2.849   3.993  0.0907 -0.2567 -1.3130
11894TIP3    H257174   2.480   2.792   3.940  1.7201  0.6716  1.5473
11895TIP3   OH257175   4.093   6.500   4.431 -0.0563  0.1503  0.3299
11895TIP3    H157176   4.059   6.549   4.356  0.3828  0.4279  0.3107
11895TIP3    H257177   4.016   6.479   4.484 -0.3506  0.0597 -0.1383
11896TIP3   OH257178   5.551   2.925   0.429  0.1982  0.3451 -0.7308
11896TIP3    H157179   5.502   2.917   0.347 -1.5638  1.7028  0.1559
11896TIP3    H257180   5.566   3.019   0.439 -2.4094  0.5526  2.0665
11897TIP3   OH257181   0.863   2.939   5.492  0.4190  0.5579  0.1318
11897TIP3    H157182   0.951   2.969   5.470  1.1920 -0.3977  1.8560
11897TIP3    H257183   0.862   2.934   5.588 -0.8427 -1.4130  0.0470
11898TIP3   OH257184   1.119   5.601   3.671 -0.1067  0.0789  0.3057
11898TIP3    H157185   1.185   5.640   3.729 -1.1616  0.2289  1.4404
11898TIP3    H257186   1.164   5.588   3.588  1.4369 -0.1181  1.1610
11899TIP3   OH257187   1.802   6.431  16.721 -0.3322 -0.0065 -0.1389
11899TIP3    H157188   1.790   6.374  16.797  0.2649 -0.1621 -0.1566
11899TIP3    H257189   1.889   6.470  16.734 -0.7811  0.9819 -0.0756
11900TIP3   OH257190   3.636   0.809  11.563 -0.3385 -0.0532 -0.4175
11900TIP3    H157191   3.569   0.829  11.629  0.1439 -1.1683  0.4259
11900TIP3    H257192   3.622   0.717  11.540  0.0976  0.0618 -1.1796
11901TIP3   OH257193   1.366   1.954  14.302 -0.2012  0.0204 -0.2129
11901TIP3    H157194   1.347   1.997  14.386  0.4301  0.2574 -0.1885
11901TIP3    H257195   1.290   1.897  14.286  0.3475 -1.1787  1.2774
11902TIP3   OH257196   1.712   0.988  17.211 -0.6292 -0.4024  0.0245
11902TIP3    H157197   1.672   1.038  17.140  0.4364  1.2433  0.5477
11902TIP3    H257198   1.670   0.902  17.207 -1.7006  0.1794 -1.5974
11903TIP3   OH257199   1.771   4.857  13.324 -0.4618 -0.3232 -0.1778
11903TIP3    H157200   1.757   4.867  13.230 -2.0290 -0.2392  0.0424
11903TIP3    H257201   1.817   4.774  13.333 -0.1597 -0.2538 -1.0297
11904TIP3   OH257202   3.370   0.133  14.263 -0.6336  0.2859 -0.4696
11904TIP3    H157203   3.288   0.116  14.309  0.0148 -1.6663  0.0367
11904TIP3    H257204   3.344   0.167  14.178 -1.9779 -0.2179 -0.2628
11905TIP3   OH257205   5.338   6.494  17.189 -0.5281 -0.4795  0.1473
11905TIP3    H157206   5.380   6.497  17.275  0.6645 -1.2014 -0.4020
11905TIP3    H257207   5.375   6.568  17.141 -0.6369 -0.5193  0.0004
11906TIP3   OH257208   4.393   2.454  17.126  0.4196 -0.4210  0.4295
11906TIP3    H157209   4.309   2.497  17.139  0.6323  0.7241 -1.7027
11906TIP3    H257210   4.449   2.488  17.195 -0.0856  0.9720  0.1594
11907TIP3   OH257211   4.785   5.003   0.122  0.5361 -0.6474 -0.4285
11907TIP3    H157212   4.765   5.009   0.029 -0.2796  0.2967 -0.1912
11907TIP3    H257213   4.802   4.909   0.137 -1.7435 -1.1747 -1.0316
11908TIP3   OH257214   5.871   3.388  12.347 -0.2787  0.0924 -0.6122
11908TIP3    H157215   5.953   3.349  12.318 -1.6501 -3.2359 -0.2612
11908TIP3    H257216   5.839   3.329  12.415 -2.0768  2.3309  0.5809
11909TIP3   OH257217   4.958   0.216   3.847 -0.2807 -0.5845  0.2376
11909TIP3    H157218   4.983   0.302   3.880  1.0245 -0.6494 -0.5519
11909TIP3    H257219   4.977   0.220   3.753  0.0236 -1.8142  0.2402
11910TIP3   OH257220   2.525   4.166   2.542 -0.2643  0.2356 -0.4397
11910TIP3    H157221   2.485   4.169   2.629  1.0200 -0.0297  0.1679
11910TIP3    H257222   2.602   4.222   2.548  0.2188 -0.3229 -1.2048
11911TIP3   OH257223   1.280   6.105   5.034  0.5020  0.1344 -0.0112
11911TIP3    H157224   1.223   6.037   4.997  1.5433 -0.6582 -0.1990
11911TIP3    H257225   1.294   6.078   5.125  2.4500 -0.9664 -0.6015
11912TIP3   OH257226   1.013   5.700   0.960 -0.6782 -0.7169 -0.5638
11912TIP3    H157227   1.044   5.785   0.927 -0.8373 -1.2869 -2.2299
11912TIP3    H257228   1.065   5.636   0.912 -2.3876 -1.6213 -1.2354
11913TIP3   OH257229   4.260   5.145  11.734 -0.2462 -0.2213  0.4999
11913TIP3    H157230   4.199   5.151  11.662 -1.3887 -0.0987  1.4647
11913TIP3    H257231   4.298   5.233  11.741 -0.5876 -0.0670  0.4347
11914TIP3   OH257232   4.937   5.773  16.576  0.2786  0.3871  0.3055
11914TIP3    H157233   4.951   5.839  16.508  0.0798  1.3641  1.2018
11914TIP3    H257234   5.005   5.791  16.641 -0.0848  0.0240  0.7867
11915TIP3   OH257235   4.485   0.427  11.988 -0.1299 -0.3190 -0.3942
11915TIP3    H157236   4.517   0.391  12.071 -2.0697  1.1261  1.0321
11915TIP3    H257237   4.425   0.361  11.955  0.0827 -0.5688 -0.2880
11916TIP3   OH257238   6.570   4.399   6.764  0.3373 -0.2745 -0.4247
11916TIP3    H157239   6.508   4.421   6.834  0.5025 -2.1715  0.3640
11916TIP3    H257240   6.648   4.369   6.811  1.2263  0.4213 -1.4257
11917TIP3   OH257241   4.221   3.526   3.955 -0.3713  0.5875  0.4315
11917TIP3    H157242   4.278   3.460   3.995 -1.9813 -1.0849  0.0719
11917TIP3    H257243   4.144   3.476   3.926 -0.1305  2.0535 -2.9540
11918TIP3   OH257244   2.688   3.205  16.878  0.3716 -0.1516  0.3785
11918TIP3    H157245   2.648   3.274  16.824 -1.6180  0.7376  2.9137
11918TIP3    H257246   2.668   3.124  16.831 -0.7799  0.6466 -0.5442
11919TIP3   OH257247   2.499   4.329  14.427  0.0174 -0.6318  0.0632
11919TIP3    H157248   2.488   4.236  14.411  0.5732 -0.8714  1.0750
11919TIP3    H257249   2.413   4.359  14.458 -0.2313 -0.7504 -0.5102
11920TIP3   OH257250   3.017   5.794  13.823 -0.2301 -0.2142  0.1712
11920TIP3    H157251   3.088   5.788  13.887  1.2301  0.7846 -1.2957
11920TIP3    H257252   2.999   5.703  13.799  2.0190 -0.3962 -0.9677
11921TIP3   OH257253   0.459   6.029   4.441  0.4367 -0.0599  0.2720
11921TIP3    H157254   0.458   6.093   4.370 -1.6844  0.8092  1.0625
11921TIP3    H257255   0.548   6.033   4.476  0.4250  2.2219  0.1034
11922TIP3   OH257256   5.756   1.951   1.683 -0.5016 -0.1186  0.4098
11922TIP3    H157257   5.844   1.950   1.720 -0.7676 -1.3923  1.0272
11922TIP3    H257258   5.735   1.859   1.667 -1.4398  0.2252 -0.4170
11923TIP3   OH257259   2.484   5.492  17.195  0.1111  0.7813 -0.1198
11923TIP3    H157260   2.465   5.584  17.174  0.9317  0.9852  0.0027
11923TIP3    H257261   2.568   5.495  17.242 -0.8172  0.1598  1.6345
11924TIP3   OH257262   3.349   3.837  15.064 -0.1724 -0.2651  1.0242
11924TIP3    H157263   3.262   3.809  15.035 -0.4411  0.0187  1.5490
11924TIP3    H257264   3.395   3.857  14.983 -0.4834 -0.7541  0.7243
11925TIP3   OH257265   3.927   0.816  12.297  0.0872 -0.1945 -0.9667
11925TIP3    H157266   3.980   0.861  12.231  2.1615 -0.5500  0.3876
11925TIP3    H257267   3.977   0.737  12.318 -1.0925 -0.6411  0.2266
11926TIP3   OH257268   3.920   1.250   2.120 -0.0096  0.3572  0.6109
11926TIP3    H157269   3.832   1.225   2.090 -0.6025  2.0748  0.8888
11926TIP3    H257270   3.933   1.199   2.200 -0.3547 -0.6516  0.0319
11927TIP3   OH257271   1.807   3.833  15.563  0.7728  0.6733 -0.2417
11927TIP3    H157272   1.814   3.766  15.631  0.7614  0.2737 -0.6380
11927TIP3    H257273   1.895   3.870  15.557  0.3202  2.0881  1.4015
11928TIP3   OH257274   0.801   0.292   6.267 -0.2212 -0.1233  0.1205
11928TIP3    H157275   0.885   0.335   6.252 -0.3123  0.6262  1.7361
11928TIP3    H257276   0.745   0.360   6.303 -0.9650 -1.0921  0.8215
11929TIP3   OH257277   1.579   0.779  12.800 -0.1159 -0.0992 -0.1717
11929TIP3    H157278   1.499   0.738  12.834 -1.0779  1.1717 -0.8735
11929TIP3    H257279   1.619   0.711  12.745 -1.0119 -0.5376 -0.2886
11930TIP3   OH257280   3.767   4.030  12.566 -0.3702  0.3559  0.2918
11930TIP3    H157281   3.814   4.110  12.591  0.1224 -0.4283  1.9958
11930TIP3    H257282   3.694   4.025  12.627 -0.5240 -0.3745  0.0582
11931TIP3   OH257283   0.425   5.691   3.956 -0.5900  0.3468  0.5543
11931TIP3    H157284   0.411   5.610   3.905  0.3943  0.6861 -0.2615
11931TIP3    H257285   0.463   5.661   4.039 -0.2231 -0.0293  0.2514
11932TIP3   OH257286   4.835   0.138   3.301 -0.1903  0.0803  0.1641
11932TIP3    H157287   4.920   0.178   3.282  0.0814 -0.1357  0.9132
11932TIP3    H257288   4.797   0.119   3.215 -1.3962  4.1863 -0.3279
11933TIP3   OH257289   3.942   5.210  16.549 -0.1076 -0.5637  0.1891
11933TIP3    H157290   3.931   5.196  16.643  0.5027 -1.2457  0.1688
11933TIP3    H257291   3.915   5.127  16.509 -1.5808  0.1572 -0.3303
11934TIP3   OH257292   4.563   4.793   2.785  0.0423  0.1101 -0.1187
11934TIP3    H157293   4.643   4.758   2.746  1.5755  0.8803  2.2286
11934TIP3    H257294   4.494   4.769   2.723  1.9611 -1.2469 -1.8116
11935TIP3   OH257295   4.486   1.936  16.010  0.1578 -0.4791  0.5151
11935TIP3    H157296   4.417   1.984  16.055  0.7111  0.6913  0.1315
11935TIP3    H257297   4.557   1.930  16.074  0.6723  0.5594  0.0479
11936TIP3   OH257298   5.924   0.504   0.645 -0.1554  0.1631  0.3966
11936TIP3    H157299   5.968   0.453   0.713 -0.8292 -2.3840 -1.0179
11936TIP3    H257300   5.865   0.563   0.693 -0.5671 -1.5388  2.0103
11937TIP3   OH257301   4.260   2.588   0.374  0.7238 -0.4032  0.3112
11937TIP3    H157302   4.242   2.509   0.321  1.1621 -0.8727  0.8625
11937TIP3    H257303   4.182   2.642   0.361  1.2453 -0.0688 -1.6217
11938TIP3   OH257304   4.932   2.540   2.749  0.4694  0.4164  0.1505
11938TIP3    H157305   4.958   2.612   2.691  1.1580  0.5048  0.5485
11938TIP3    H257306   4.841   2.558   2.772  0.5136  0.9381 -0.0856
11939TIP3   OH257307   4.504   0.882   4.809 -0.0976 -0.3277 -0.0932
11939TIP3    H157308   4.427   0.833   4.837 -2.0562  3.1807  0.9425
11939TIP3    H257309   4.530   0.933   4.886  1.5776  0.6090 -1.2242
11940TIP3   OH257310   0.174   4.955  16.317 -0.1469 -0.7386  0.4322
11940TIP3    H157311   0.092   4.994  16.349  0.6716  1.9622 -0.5948
11940TIP3    H257312   0.171   4.969  16.223  2.3332  1.1748  0.5836
11941TIP3   OH257313   4.607   5.132   1.351 -0.5009  0.3171  0.0001
11941TIP3    H157314   4.548   5.201   1.322 -0.7293 -0.2291 -0.8598
11941TIP3    H257315   4.600   5.064   1.284 -1.3143 -1.1361  1.4981
11942TIP3   OH257316   5.117   1.014   4.861  0.0964  0.1328  0.0511
11942TIP3    H157317   5.126   1.097   4.814  0.4227 -0.4388 -0.9146
11942TIP3    H257318   5.130   0.947   4.794  1.0002 -0.7044  1.0523
11943TIP3   OH257319   0.380   4.146  16.378 -0.0430 -0.4333  0.3134
11943TIP3    H157320   0.374   4.225  16.432 -2.0428 -0.9230  0.8392
11943TIP3    H257321   0.332   4.079  16.428  1.2124 -1.8608 -0.3462
11944TIP3   OH257322   0.042   2.832  12.853  0.3310 -0.4935  0.1829
11944TIP3    H157323   0.057   2.747  12.810  0.3747  0.2645 -1.3405
11944TIP3    H257324   0.110   2.889  12.816 -0.0676  0.3593  0.7695
11945TIP3   OH257325   6.720   3.328  12.315 -0.2648  0.2293  0.2158
11945TIP3    H157326   6.640   3.358  12.358  1.0621  1.4737  1.9046
11945TIP3    H257327   6.790   3.375  12.360  1.4254 -0.8401 -1.2303
11946TIP3   OH257328   5.511   0.043  11.149  0.0268  0.3208 -0.0112
11946TIP3    H157329   5.495   0.012  11.060  1.7533  0.6168 -0.4340
11946TIP3    H257330   5.458   0.122  11.157  0.7336  0.9147 -1.1486
11947TIP3   OH257331   5.340   1.791   0.443  0.0049 -0.6666  0.0798
11947TIP3    H157332   5.286   1.740   0.503  0.0087 -2.2994 -1.2716
11947TIP3    H257333   5.303   1.774   0.356 -0.8013  2.6421 -0.3219
11948TIP3   OH257334   0.540   2.804  15.792  0.1705  0.7521 -0.3542
11948TIP3    H157335   0.574   2.866  15.727  0.8907  0.9667  0.2228
11948TIP3    H257336   0.582   2.721  15.769  1.0167  0.9949  0.2977
11949TIP3   OH257337   3.461   5.411  11.945  0.0472  0.7348 -0.3061
11949TIP3    H157338   3.505   5.330  11.922  0.6867  1.3128 -1.1380
11949TIP3    H257339   3.389   5.419  11.882  1.1069  1.7369 -1.4271
11950TIP3   OH257340   6.526   6.443   1.171 -0.0075 -0.1504  0.3169
11950TIP3    H157341   6.487   6.365   1.133 -0.2891 -0.5019  1.3296
11950TIP3    H257342   6.456   6.483   1.222  0.1058  0.8224 -0.2774
11951TIP3   OH257343   2.243   3.950   4.691  0.8120  0.1167  0.0974
11951TIP3    H157344   2.272   3.968   4.602  0.3257  0.5004  0.0127
11951TIP3    H257345   2.165   3.895   4.681  1.1927 -0.4640  0.3070
11952TIP3   OH257346   3.901   6.168   0.349 -0.9894 -0.5090 -0.1220
11952TIP3    H157347   3.877   6.240   0.290 -0.6370 -0.1304  0.1922
11952TIP3    H257348   3.896   6.090   0.294  0.0444 -0.0757 -0.8586
11953TIP3   OH257349   2.795   2.634   2.128 -0.2344  0.2012 -0.2584
11953TIP3    H157350   2.829   2.571   2.192  1.0166  2.0229  0.9095
11953TIP3    H257351   2.869   2.690   2.107 -1.1336  0.8171 -1.8975
11954TIP3   OH257352   6.219   4.112  14.323 -0.1308  0.0915 -0.4049
11954TIP3    H157353   6.207   4.020  14.298  2.3722 -0.1380 -0.8644
11954TIP3    H257354   6.256   4.109  14.411  0.1033  0.6699 -0.4830
11955TIP3   OH257355   1.846   5.896  15.178  0.2843 -0.0007  0.4010
11955TIP3    H157356   1.876   5.898  15.088  0.3151  1.8471  0.4371
11955TIP3    H257357   1.893   5.822  15.218  0.7006 -0.4567 -0.9270
11956TIP3   OH257358   5.492   3.820   4.483 -0.4131  0.3259  0.0580
11956TIP3    H157359   5.558   3.751   4.475 -0.1635  0.7386 -1.7955
11956TIP3    H257360   5.538   3.893   4.526  0.0126  0.1932 -0.1688
11957TIP3   OH257361   5.674   1.747   0.908  0.3905 -0.0769  0.0272
11957TIP3    H157362   5.589   1.785   0.931  0.3196 -0.4281  0.3561
11957TIP3    H257363   5.663   1.654   0.925  1.2525  0.0544  1.3020
11958TIP3   OH257364   5.962   5.908   5.279 -0.1070  0.1385  0.2189
11958TIP3    H157365   5.905   5.983   5.295  0.8256  0.6781  1.1066
11958TIP3    H257366   5.903   5.834   5.269 -1.0340  1.0046 -0.6790
11959TIP3   OH257367   6.548   5.069  17.069  0.4020  0.3019 -0.2554
11959TIP3    H157368   6.463   5.064  17.025  0.4705  0.5131 -0.4117
11959TIP3    H257369   6.556   4.986  17.117  1.1878 -0.7924 -2.2161
11960TIP3   OH257370   6.760   1.138   5.272  0.3377 -0.0540  0.1027
11960TIP3    H157371   6.826   1.193   5.230  0.3181 -0.7681 -0.8886
11960TIP3    H257372   6.698   1.200   5.311 -0.4883  0.6683 -2.2754
11961TIP3   OH257373   4.258   1.740   3.886 -0.0432 -0.5130 -0.2558
11961TIP3    H157374   4.325   1.673   3.894 -0.4365 -0.9135 -0.3283
11961TIP3    H257375   4.286   1.794   3.812 -0.0070 -0.9110 -0.5321
11962TIP3   OH257376   4.940   5.847   3.496 -0.0616 -0.2319  0.0647
11962TIP3    H157377   4.973   5.798   3.571 -0.9645 -1.1030 -0.0920
11962TIP3    H257378   4.870   5.792   3.460  1.3407 -0.5415 -2.3110
11963TIP3   OH257379   1.417   5.766  15.693  0.2395  0.4114 -0.0764
11963TIP3    H157380   1.415   5.673  15.672  0.0945  0.2486  0.6575
11963TIP3    H257381   1.505   5.795  15.667  0.1249  0.1792 -0.7364
11964TIP3   OH257382   2.272   0.777   0.996 -0.7354  0.7229 -0.5549
11964TIP3    H157383   2.288   0.871   0.995  0.6548  0.4845 -1.5250
11964TIP3    H257384   2.178   0.768   0.984 -1.1976  2.0475  1.7854
11965TIP3   OH257385   5.848   4.820  12.806 -0.2474  0.3524  0.5723
11965TIP3    H157386   5.761   4.832  12.768  0.1591 -0.8322 -0.7656
11965TIP3    H257387   5.831   4.787  12.894 -1.1617  0.8677  0.5956
11966TIP3   OH257388   4.369   0.815  10.796  0.5829 -0.2779 -0.4653
11966TIP3    H157389   4.315   0.885  10.833  0.0203 -0.8246 -0.2502
11966TIP3    H257390   4.325   0.734  10.823  1.4744 -0.7242 -0.3435
11967TIP3   OH257391   6.395   3.682   3.696 -0.7241 -0.5498  0.1862
11967TIP3    H157392   6.378   3.653   3.786 -0.4486  0.2954  0.5141
11967TIP3    H257393   6.483   3.651   3.677 -0.2039  0.5341  0.7426
11968TIP3   OH257394   2.413   5.260   1.357  0.2364  0.1805 -0.5471
11968TIP3    H157395   2.435   5.184   1.302  1.4064  0.4410 -0.4621
11968TIP3    H257396   2.457   5.243   1.440  0.4686  0.9218 -0.5137
11969TIP3   OH257397   4.212   5.952   5.241  0.2844  0.2009 -0.0688
11969TIP3    H157398   4.279   5.912   5.187  0.4393  1.8822 -1.1896
11969TIP3    H257399   4.196   5.890   5.311  1.5780 -1.0991 -0.9076
11970TIP3   OH257400   2.396   3.685   4.680 -0.8953 -0.0869  0.3166
11970TIP3    H157401   2.318   3.724   4.721  0.1730  1.7700  0.6748
11970TIP3    H257402   2.433   3.757   4.628  0.3836 -1.0511 -0.1102
11971TIP3   OH257403   5.460   5.764  12.012 -0.0177 -0.6230 -0.0995
11971TIP3    H157404   5.539   5.813  11.989  0.1273 -0.3058  1.0251
11971TIP3    H257405   5.388   5.825  11.996  0.0961 -0.3425  0.4411
11972TIP3   OH257406   3.083   5.434   0.935 -0.3540 -0.2954  0.1349
11972TIP3    H157407   3.151   5.408   0.997 -0.7848  0.1342  0.8007
11972TIP3    H257408   3.030   5.356   0.924 -0.1579 -0.4331  0.1579
11973TIP3   OH257409   1.392   3.757   1.762 -0.3241 -0.0409 -0.4110
11973TIP3    H157410   1.382   3.702   1.685 -1.5810 -1.2218  0.5846
11973TIP3    H257411   1.392   3.847   1.728 -0.5747 -0.5695 -1.8046
11974TIP3   OH257412   0.354   6.159  14.346 -0.3103 -0.0168 -0.1124
11974TIP3    H157413   0.280   6.102  14.364 -0.5836  0.8303  1.5214
11974TIP3    H257414   0.411   6.152  14.423 -1.5654  3.7479  1.3149
11975TIP3   OH257415   1.919   4.034   5.086  0.4673  0.3379 -0.2795
11975TIP3    H157416   2.007   4.002   5.070  0.1782 -0.0978 -1.0066
11975TIP3    H257417   1.864   3.986   5.024 -0.6552 -1.2304  1.8799
11976TIP3   OH257418   5.150   0.483  15.831 -0.1326  0.5749 -0.5949
11976TIP3    H157419   5.168   0.476  15.924 -0.7856  1.7218 -0.3806
11976TIP3    H257420   5.163   0.394  15.797 -0.9574 -0.0655  0.7599
11977TIP3   OH257421   4.658   3.144   5.226 -0.4391 -0.5082 -0.9515
11977TIP3    H157422   4.644   3.053   5.253  0.5543 -0.0044  1.3508
11977TIP3    H257423   4.631   3.196   5.301  0.6312  1.0407 -1.6023
11978TIP3   OH257424   5.288   3.967   3.302  0.0547  0.0633  0.4975
11978TIP3    H157425   5.217   3.920   3.347  0.4881 -0.7876  0.3076
11978TIP3    H257426   5.244   4.026   3.242 -0.4968 -1.9685 -1.1496
11979TIP3   OH257427   5.201   4.199   2.251  0.4031 -0.2667 -0.3636
11979TIP3    H157428   5.282   4.195   2.201  0.0840  1.1116 -1.0315
11979TIP3    H257429   5.148   4.265   2.206 -1.0177 -1.0026  0.1663
11980TIP3   OH257430   0.577   1.578   5.554  0.1512  0.2817 -0.3410
11980TIP3    H157431   0.657   1.567   5.503  0.5104 -1.3344  0.5342
11980TIP3    H257432   0.593   1.656   5.606  0.8613  0.3918 -0.7074
11981TIP3   OH257433   2.792   5.665   5.942 -0.3165 -0.1295 -0.1702
11981TIP3    H157434   2.843   5.700   5.869 -1.4058  0.8531 -0.4792
11981TIP3    H257435   2.710   5.636   5.902 -1.0255  0.6550  0.6915
11982TIP3   OH257436   2.826   3.151   2.569 -0.0673 -0.7101 -0.2096
11982TIP3    H157437   2.852   3.216   2.634  1.1264  0.8087 -2.1351
11982TIP3    H257438   2.748   3.111   2.605 -0.2191  1.0631  1.5188
11983TIP3   OH257439   2.357   5.731  15.587  0.3353  0.3143  0.0975
11983TIP3    H157440   2.453   5.730  15.588  0.3169 -0.2535  1.5774
11983TIP3    H257441   2.331   5.646  15.622 -0.7321 -0.5507 -2.5986
11984TIP3   OH257442   1.158   3.550   3.813 -0.3828 -0.6007  0.2060
11984TIP3    H157443   1.090   3.617   3.817 -1.6189 -1.6533 -2.3183
11984TIP3    H257444   1.172   3.525   3.904 -1.4376  1.5408  0.9898
11985TIP3   OH257445   0.262   4.951   2.981 -0.2038 -0.3521  0.3465
11985TIP3    H157446   0.332   4.997   3.028 -0.3973 -0.7205  1.0083
11985TIP3    H257447   0.216   5.019   2.933 -0.0523  0.0402  0.7555
11986TIP3   OH257448   4.267   4.364  12.476 -0.2975  0.0760  0.4418
11986TIP3    H157449   4.264   4.312  12.396  0.4896  1.1025 -0.2745
11986TIP3    H257450   4.199   4.430  12.465  0.4750  0.8371  0.1730
11987TIP3   OH257451   2.317   1.898  13.806  0.2406  0.1588 -0.0713
11987TIP3    H157452   2.370   1.918  13.729  1.1409  0.7599  0.6856
11987TIP3    H257453   2.355   1.818  13.841 -0.0007  0.0299 -0.1043
11988TIP3   OH257454   6.088   1.961  17.142  0.0470 -0.7461  0.2573
11988TIP3    H157455   6.005   1.995  17.175 -1.3687 -2.0430 -1.8432
11988TIP3    H257456   6.097   1.875  17.182  1.2753  0.0911  1.8413
11989TIP3   OH257457   3.998   2.715  13.129  0.8979 -0.0930  0.0061
11989TIP3    H157458   3.905   2.697  13.115  0.7406  1.6064 -1.2404
11989TIP3    H257459   4.007   2.809  13.116  2.4633  0.0915  2.1061
11990TIP3   OH257460   3.672   1.412  16.339 -0.6667 -0.2104  0.5359
11990TIP3    H157461   3.615   1.353  16.388  1.0258 -0.9342  1.6747
11990TIP3    H257462   3.717   1.355  16.276  0.2493  0.0287  0.9735
11991TIP3   OH257463   4.436   2.977   0.777  0.0926 -0.4177  0.2517
11991TIP3    H157464   4.491   3.020   0.712 -0.4255 -0.0890  0.0271
11991TIP3    H257465   4.408   3.047   0.836  0.6074 -0.7257  0.8649
11992TIP3   OH257466   5.418   5.865   3.859  0.2728  0.5568  0.0250
11992TIP3    H157467   5.396   5.950   3.898 -0.8436 -0.3983  1.5250
11992TIP3    H257468   5.339   5.839   3.811 -1.5824 -2.2615  4.3227
11993TIP3   OH257469   2.305   0.262   4.526 -0.4368  0.0843  0.6777
11993TIP3    H157470   2.308   0.287   4.618 -2.0001 -1.6504  1.2297
11993TIP3    H257471   2.230   0.308   4.490  0.0966  0.6608  0.3012
11994TIP3   OH257472   4.265   3.683   4.769  0.0887 -0.3004 -0.4731
11994TIP3    H157473   4.201   3.697   4.840  0.4901  0.4911 -0.2557
11994TIP3    H257474   4.333   3.629   4.809 -0.8017 -1.7805 -0.9214
11995TIP3   OH257475   2.561   1.102   1.700 -0.2008 -0.4783 -0.1886
11995TIP3    H157476   2.624   1.066   1.638 -1.5485 -1.0773 -1.2178
11995TIP3    H257477   2.549   1.193   1.672  0.2289 -0.3561  0.0256
11996TIP3   OH257478   1.317   2.079   5.362 -0.1056 -0.0937  0.0929
11996TIP3    H157479   1.400   2.126   5.355 -0.4666  0.8368  1.8685
11996TIP3    H257480   1.343   1.987   5.374  0.6516  0.1178  0.1122
11997TIP3   OH257481   3.709   6.313   2.789  0.4209 -0.2313 -0.1598
11997TIP3    H157482   3.627   6.267   2.801 -0.1603  0.9442  0.4138
11997TIP3    H257483   3.745   6.278   2.707 -0.3284 -1.2055 -0.0679
11998TIP3   OH257484   0.313   5.806  14.899 -0.4044 -0.5975 -0.0963
11998TIP3    H157485   0.262   5.726  14.906  0.3945 -1.3101 -2.0852
11998TIP3    H257486   0.330   5.816  14.805  1.6582  0.5109  0.3528
11999TIP3   OH257487   4.979   4.937   3.543  0.0651 -0.1951  0.4014
11999TIP3    H157488   5.075   4.942   3.544  0.0207  0.6882  0.6387
11999TIP3    H257489   4.956   4.901   3.629  0.1346  0.7129  0.8115
12000TIP3   OH257490   3.972   6.630  11.666  0.1121 -0.1025  0.1473
12000TIP3    H157491   3.900   6.622  11.729  0.5387 -1.9143  0.4348
12000TIP3    H257492   4.041   6.574  11.701  0.9549  0.1321 -1.1079
12001TIP3   OH257493   4.624   2.593   5.539 -0.1335  0.5582 -0.4370
12001TIP3    H157494   4.562   2.572   5.469 -1.2342  0.7092  0.4701
12001TIP3    H257495   4.578   2.570   5.620  1.3210 -0.1093  0.2236
12002TIP3   OH257496   2.018   6.261   2.340  0.3155  0.7409 -0.0177
12002TIP3    H157497   1.954   6.254   2.268  0.4792  1.4147 -0.2320
12002TIP3    H257498   2.092   6.307   2.301  0.3512  1.2194  0.6227
12003TIP3   OH257499   1.030   3.456   2.313 -0.1233 -0.3107 -0.0459
12003TIP3    H157500   1.099   3.394   2.337  1.3413  2.0311  1.9667
12003TIP3    H257501   1.077   3.532   2.279 -1.7551  0.9967  0.5854
12004TIP3   OH257502   3.740   0.932  11.853 -0.4691 -0.0367 -0.7391
12004TIP3    H157503   3.646   0.947  11.866 -0.3230 -0.0535  0.3232
12004TIP3    H257504   3.756   0.962  11.763 -1.0837  1.8513 -0.2335
12005TIP3   OH257505   1.688   0.671  12.417 -0.5545 -0.4900  1.1091
12005TIP3    H157506   1.677   0.612  12.491 -0.8615 -1.1904  0.5139
12005TIP3    H257507   1.673   0.616  12.340 -1.0125  0.3939  0.5499
12006TIP3   OH257508   0.239   1.754   0.733  0.3142  0.1786 -0.0671
12006TIP3    H157509   0.293   1.818   0.781  0.8837  0.9426 -1.6899
12006TIP3    H257510   0.300   1.686   0.706 -0.0963 -0.5031  0.7020
12007TIP3   OH257511   4.786   3.592  16.478 -0.5973  0.5427  0.5723
12007TIP3    H157512   4.793   3.610  16.572 -1.5474 -0.5149  0.8615
12007TIP3    H257513   4.873   3.563  16.452 -0.2066  1.3072  1.0202
12008TIP3   OH257514   1.175   2.445  15.169  0.2404  0.1413  0.1214
12008TIP3    H157515   1.215   2.413  15.249  1.5702  0.8187 -0.2698
12008TIP3    H257516   1.161   2.367  15.116  0.3862 -0.1776  0.5549
12009TIP3   OH257517   2.457   4.379   4.873 -0.1385 -0.0874 -0.4897
12009TIP3    H157518   2.450   4.390   4.967 -0.0112 -1.2462 -0.3402
12009TIP3    H257519   2.371   4.401   4.839  0.1587  1.5355 -0.2272
12010TIP3   OH257520   5.741   1.987   1.233 -0.2355  0.0701 -0.1241
12010TIP3    H157521   5.787   2.017   1.311 -1.6743  0.1859  0.6995
12010TIP3    H257522   5.727   2.066   1.180  0.1348  0.0980 -0.1793
12011TIP3   OH257523   4.955   0.821  17.051 -0.1665 -0.3833 -0.0117
12011TIP3    H157524   4.885   0.780  17.102  0.1180 -1.3282 -0.3574
12011TIP3    H257525   4.911   0.848  16.970 -0.5405  0.7926  0.5752
12012TIP3   OH257526   3.365   1.723  15.646  0.5799  0.3750  0.7942
12012TIP3    H157527   3.271   1.737  15.631  0.8073 -0.9829 -2.3859
12012TIP3    H257528   3.405   1.808  15.630  0.0004  0.7233  1.1708
12013TIP3   OH257529   3.521   2.842  16.626 -0.3508  0.1962 -0.2789
12013TIP3    H157530   3.551   2.899  16.695 -0.2360 -0.1764 -0.0187
12013TIP3    H257531   3.580   2.859  16.553  1.5176 -1.6816  0.7429
12014TIP3   OH257532   5.994   1.137  10.826 -0.5537  0.3418  0.0891
12014TIP3    H157533   6.009   1.231  10.820 -1.2760  0.4496 -0.0515
12014TIP3    H257534   6.051   1.100  10.759 -0.6153  0.7167 -0.1739
12015TIP3   OH257535   5.236   3.295   4.640 -0.4496 -0.3595 -0.2886
12015TIP3    H157536   5.146   3.328   4.648 -0.7569 -0.6521 -2.2428
12015TIP3    H257537   5.227   3.219   4.582  1.0127 -0.6400 -0.1467
12016TIP3   OH257538   2.598   1.768   3.677  0.3610 -0.4279  0.1667
12016TIP3    H157539   2.553   1.811   3.749 -0.3592 -0.3453 -0.3248
12016TIP3    H257540   2.624   1.682   3.712  0.4782 -0.1850  0.6785
12017TIP3   OH257541   6.560   3.455  12.700  0.0922 -0.3872  0.4702
12017TIP3    H157542   6.538   3.521  12.766 -0.5282  0.4343 -0.5287
12017TIP3    H257543   6.479   3.444  12.650  0.5859 -0.9095 -0.2207
12018TIP3   OH257544   3.421   5.633  12.694  0.1255 -0.0655 -0.0313
12018TIP3    H157545   3.421   5.691  12.618  3.5870  0.1591  0.0374
12018TIP3    H257546   3.402   5.547  12.659 -0.9558  0.4520 -0.7428
12019TIP3   OH257547   3.443   0.140  15.387 -0.1370  0.0459 -0.1658
12019TIP3    H157548   3.467   0.149  15.480  1.1712  1.0043 -0.5836
12019TIP3    H257549   3.510   0.081  15.351  0.9167  1.7412 -1.0629
12020TIP3   OH257550   5.332   3.494   4.506 -0.4066  0.4223 -0.0082
12020TIP3    H157551   5.329   3.563   4.573 -0.5995  0.9389 -0.5477
12020TIP3    H257552   5.300   3.416   4.551 -0.0440  0.6485  0.6477
12021TIP3   OH257553   5.461   0.233   1.961  0.4403 -0.5702 -0.4173
12021TIP3    H157554   5.409   0.192   2.031 -0.8638  0.8216 -0.5516
12021TIP3    H257555   5.492   0.159   1.908 -1.3862 -1.4349 -0.3210
12022TIP3   OH257556   0.290   0.076  13.215 -0.5366 -0.1761 -0.0140
12022TIP3    H157557   0.224   0.038  13.157  0.2315 -0.6815 -0.5642
12022TIP3    H257558   0.300   0.013  13.286 -2.0707  0.8237  1.1198
12023TIP3   OH257559   1.011   6.233   2.877 -0.3032  0.3298 -0.4535
12023TIP3    H157560   0.931   6.191   2.911 -0.6536  2.7701  1.9751
12023TIP3    H257561   0.979   6.308   2.827  0.4301  0.0766 -1.3123
12024TIP3   OH257562   5.564   0.683  12.540  0.4806 -0.0329  0.5917
12024TIP3    H157563   5.512   0.605  12.558 -0.7180 -0.1929 -3.1401
12024TIP3    H257564   5.652   0.660  12.568 -0.5442 -1.3182  2.9799
12025TIP3   OH257565   1.549   2.855  15.620 -0.6732  0.0836 -0.2239
12025TIP3    H157566   1.483   2.840  15.688 -0.5656  0.6065  0.0003
12025TIP3    H257567   1.607   2.779  15.626 -1.4020 -0.5034 -0.5978
12026TIP3   OH257568   0.926   3.606   3.224  0.1388 -0.0155 -0.2373
12026TIP3    H157569   0.903   3.673   3.160  0.9244  1.8078  1.3376
12026TIP3    H257570   1.005   3.565   3.189  0.0150  0.2952 -0.8863
12027TIP3   OH257571   3.637   4.602  15.697  0.8114  0.6372  0.3416
12027TIP3    H157572   3.670   4.611  15.787 -1.6539  1.2149  1.2237
12027TIP3    H257573   3.570   4.534  15.702  1.1250  0.1881 -1.2182
12028TIP3   OH257574   5.916   1.543  17.018 -0.2727  0.0694  0.5097
12028TIP3    H157575   5.958   1.486  16.953  0.8559  1.3712  0.0931
12028TIP3    H257576   5.968   1.530  17.097 -1.1365 -0.8737  0.9302
12029TIP3   OH257577   6.407   3.870  15.360 -0.4255  0.1472  0.5600
12029TIP3    H157578   6.346   3.940  15.381 -2.1319 -1.4066  0.8905
12029TIP3    H257579   6.402   3.810  15.435  1.9813  0.2957  0.8961
12030TIP3   OH257580   3.296   5.439  13.356 -0.1202 -0.1480 -0.0321
12030TIP3    H157581   3.280   5.491  13.435  0.9019 -0.6577  0.5201
12030TIP3    H257582   3.234   5.367  13.361  0.8537 -0.9205  0.9946
12031TIP3   OH257583   2.322   0.803  12.513  0.2054  0.4529  0.5449
12031TIP3    H157584   2.311   0.852  12.432  1.9904 -1.6665 -1.0268
12031TIP3    H257585   2.360   0.719  12.486  0.9077 -0.2624  3.5755
12032TIP3   OH257586   5.089   5.495  17.240  0.4260  0.4868  0.4811
12032TIP3    H157587   5.050   5.411  17.216 -3.0599  1.5862  2.0570
12032TIP3    H257588   5.060   5.555  17.171  3.1976  0.3996 -0.8349
12033TIP3   OH257589   4.730   1.451   4.787  0.0544 -0.1209 -0.3773
12033TIP3    H157590   4.686   1.534   4.769 -1.3445 -0.5731  0.8074
12033TIP3    H257591   4.795   1.442   4.718 -1.4205  0.8169 -1.9212
12034TIP3   OH257592   6.244   1.551   0.696  0.0585  0.8569 -0.3411
12034TIP3    H157593   6.195   1.633   0.685 -0.5918  0.5753  0.4266
12034TIP3    H257594   6.179   1.482   0.682  0.8103  0.4399 -1.9775
12035TIP3   OH257595   3.271   0.934  15.098 -0.0797  0.3828 -0.2259
12035TIP3    H157596   3.286   0.922  15.192  2.8758 -1.0729 -0.8168
12035TIP3    H257597   3.242   0.848  15.068 -0.2988  0.6452 -0.7696
12036TIP3   OH257598   6.740   0.614   6.428 -0.0514 -0.0355 -0.3128
12036TIP3    H157599   6.706   0.530   6.459  0.6484 -0.4875 -0.7558
12036TIP3    H257600   6.764   0.661   6.507  2.0830 -1.3295 -0.1634
12037TIP3   OH257601   6.114   5.869   2.095 -0.3571 -0.0309  0.1618
12037TIP3    H157602   6.032   5.889   2.051 -0.2635  0.9056  0.3964
12037TIP3    H257603   6.181   5.872   2.027 -0.5036 -0.7576 -0.0223
12038TIP3   OH257604   3.846   3.503  11.100 -0.2661 -0.4175 -0.6307
12038TIP3    H157605   3.815   3.510  11.010 -0.1833  1.1335 -0.5550
12038TIP3    H257606   3.810   3.580  11.144  0.5189 -0.6249  0.3991
12039TIP3   OH257607   0.622   3.573   1.485  0.5248  0.3388  0.1704
12039TIP3    H157608   0.704   3.534   1.515 -0.3861 -0.9742  1.0446
12039TIP3    H257609   0.590   3.513   1.417 -0.5908 -0.1679  1.1055
12040TIP3   OH257610   4.346   4.413  12.994  0.5506  0.3056 -0.5425
12040TIP3    H157611   4.369   4.435  12.904  1.7920  2.9792  0.3885
12040TIP3    H257612   4.287   4.483  13.022  0.8708 -0.0216  1.0064
12041TIP3   OH257613   4.255   4.965   2.774 -0.7600  0.6449  0.3234
12041TIP3    H157614   4.296   5.047   2.747 -0.7685  0.0699 -1.5202
12041TIP3    H257615   4.263   4.964   2.869  0.8248  1.9374  0.2235
12042TIP3   OH257616   5.112   5.726   2.215 -0.1758  0.0500  0.3554
12042TIP3    H157617   5.176   5.727   2.144 -0.3378 -1.9978  0.1492
12042TIP3    H257618   5.162   5.701   2.293 -0.0490  2.0365  0.9380
12043TIP3   OH257619   5.413   5.161   4.554  0.0379  0.6208  0.1638
12043TIP3    H157620   5.369   5.076   4.554  0.3517  0.3591 -3.4628
12043TIP3    H257621   5.439   5.175   4.645  1.8826 -4.1403  0.5135
12044TIP3   OH257622   1.949   0.509   1.310  0.4209  0.1920  0.1549
12044TIP3    H157623   2.023   0.456   1.337 -0.4619 -1.1255 -0.0008
12044TIP3    H257624   1.980   0.555   1.231  2.0309  1.8871  1.7405
12045TIP3   OH257625   4.917   0.338   1.125 -0.0356  0.8864  0.3414
12045TIP3    H157626   4.954   0.355   1.038  0.0010  0.4528  0.2722
12045TIP3    H257627   4.982   0.285   1.169 -0.2429  0.7500  0.4843
12046TIP3   OH257628   6.123   1.301   3.583  0.2702  0.4498  0.4815
12046TIP3    H157629   6.197   1.253   3.546 -0.4569  0.3810 -0.9227
12046TIP3    H257630   6.123   1.278   3.676  1.5945 -0.0786  0.3597
12047TIP3   OH257631   2.475   3.062  12.146  0.3319  0.0842 -0.4223
12047TIP3    H157632   2.435   3.149  12.146 -1.1820 -0.5803 -2.5172
12047TIP3    H257633   2.569   3.078  12.160  0.3642  2.2021 -2.8745
12048TIP3   OH257634   6.367   3.954   5.489  0.1627  0.1573 -0.2549
12048TIP3    H157635   6.462   3.956   5.486  0.2584 -1.6360  0.4721
12048TIP3    H257636   6.340   3.927   5.401  0.3047  1.0932 -0.5839
12049TIP3   OH257637   2.952   0.971   6.164  0.2815  0.3753  0.1881
12049TIP3    H157638   3.002   0.996   6.242  1.1307  1.0446 -0.5608
12049TIP3    H257639   3.012   0.986   6.091 -0.1465 -1.2289 -0.5238
12050TIP3   OH257640   2.400   0.894  12.257  0.3866 -0.0360 -0.8018
12050TIP3    H157641   2.411   0.804  12.226 -0.3871 -0.1226 -0.8497
12050TIP3    H257642   2.461   0.946  12.205  2.2515 -0.8022  0.5656
12051TIP3   OH257643   5.201   0.843  12.883 -0.0880  0.2021  0.1483
12051TIP3    H157644   5.133   0.893  12.838  0.0058  0.2066  0.0108
12051TIP3    H257645   5.276   0.845  12.823  0.8140  2.1451  1.2796
12052TIP3   OH257646   6.298   1.561  13.854  0.2848 -0.4108 -0.9311
12052TIP3    H157647   6.300   1.638  13.911  1.7497 -1.1193 -0.0007
12052TIP3    H257648   6.244   1.498  13.900 -1.2071  0.1618 -1.8566
12053TIP3   OH257649   6.608   4.517  13.355 -0.4850  0.0991  0.3046
12053TIP3    H157650   6.634   4.572  13.281 -3.0951  1.7314  0.5404
12053TIP3    H257651   6.552   4.573  13.408  2.1933 -0.6599  4.1684
12054TIP3   OH257652   4.734   0.050  11.533  0.1815  0.3132 -0.3530
12054TIP3    H157653   4.656   0.090  11.494 -0.3134 -0.5668 -0.2849
12054TIP3    H257654   4.718   0.052  11.627 -0.5305 -1.4082 -0.4231
12055TIP3   OH257655   3.415   6.156   5.012  0.4368 -0.5002  0.1898
12055TIP3    H157656   3.330   6.156   4.969  0.4633  1.2452  0.1038
12055TIP3    H257657   3.462   6.229   4.972  1.6284 -0.8717  0.8997
12056TIP3   OH257658   5.329   3.100  10.380  0.1829  0.1734  0.0726
12056TIP3    H157659   5.250   3.094  10.326 -0.1291  0.5568  0.4923
12056TIP3    H257660   5.401   3.100  10.316 -0.2434  2.0002 -0.4296
12057TIP3   OH257661   1.090   0.328   5.344  0.3374 -0.3216  0.6539
12057TIP3    H157662   1.179   0.293   5.344  0.3221 -0.3880 -1.1936
12057TIP3    H257663   1.101   0.422   5.329 -0.0101 -0.6719 -1.9385
12058TIP3   OH257664   5.062   0.204  11.224  0.4724 -0.0460  0.4902
12058TIP3    H157665   5.018   0.131  11.267 -2.7462  0.8848 -1.0671
12058TIP3    H257666   5.085   0.263  11.295 -1.5240 -0.2019  1.2972
12059TIP3   OH257667   3.958   6.702  17.089  0.1370 -0.5340  0.3419
12059TIP3    H157668   3.956   6.627  17.029  0.8953  0.0210 -0.3850
12059TIP3    H257669   3.982   6.664  17.174  2.4482 -0.8693 -0.4292
12060TIP3   OH257670   3.723   3.747  17.171  0.0751 -0.3624  0.2808
12060TIP3    H157671   3.790   3.810  17.143  1.6378 -1.5341  1.3822
12060TIP3    H257672   3.668   3.797  17.231 -0.4343  0.7697 -1.0728
12061TIP3   OH257673   4.093   6.459  14.124 -0.1174  0.2371  0.1148
12061TIP3    H157674   4.033   6.402  14.172 -0.7856  0.1806 -0.7721
12061TIP3    H257675   4.104   6.416  14.039 -0.2596  1.1965 -0.3925
12062TIP3   OH257676   4.477   1.091  13.931 -0.0657 -0.2736  0.1374
12062TIP3    H157677   4.429   1.088  13.849  2.2391 -0.4353 -1.2368
12062TIP3    H257678   4.460   1.179  13.965 -3.0348 -1.0232  0.7883
12063TIP3   OH257679   2.933   3.978   4.963 -0.3890  0.4044 -0.0672
12063TIP3    H157680   2.927   3.920   5.040 -0.3972 -0.5054 -0.7450
12063TIP3    H257681   2.872   3.939   4.900  0.0261  0.8480 -0.7374
12064TIP3   OH257682   2.961   6.783   2.532 -0.3227  0.2780 -0.0407
12064TIP3    H157683   3.017   6.841   2.480  1.2787  0.3037  1.6309
12064TIP3    H257684   2.896   6.841   2.571  0.7791  0.8551  0.9779
12065TIP3   OH257685   5.732   4.420   1.139  0.4887 -0.6426 -0.4963
12065TIP3    H157686   5.649   4.423   1.091 -0.6958 -0.9548  1.5066
12065TIP3    H257687   5.750   4.512   1.161 -0.1972 -0.7544  0.5391
12066TIP3   OH257688   5.951   6.245   4.780  0.9303 -0.2794  0.2675
12066TIP3    H157689   5.891   6.196   4.724  1.6248 -2.0411  1.0413
12066TIP3    H257690   6.031   6.194   4.780  1.8861  1.1756  0.6233
12067TIP3   OH257691   3.480   2.160  16.200  0.1645 -0.0988 -0.1705
12067TIP3    H157692   3.540   2.085  16.204 -0.7048 -0.7776  0.3883
12067TIP3    H257693   3.532   2.231  16.164  2.6237  0.6151  4.4538
12068TIP3   OH257694   5.740   4.092   2.279 -0.4295  0.1322 -0.5300
12068TIP3    H157695   5.719   4.001   2.258 -3.0326  0.5099  0.1695
12068TIP3    H257696   5.767   4.091   2.371 -3.0283  0.3601  0.2864
12069TIP3   OH257697   4.011   2.928  15.721 -0.4792  0.1963 -0.0498
12069TIP3    H157698   3.985   2.838  15.741  1.0604 -0.2055  0.1648
12069TIP3    H257699   3.936   2.965  15.674 -0.7458 -1.4971 -0.9785
12070TIP3   OH257700   1.328   6.709  14.950 -0.1374 -0.0058 -0.0521
12070TIP3    H157701   1.303   6.644  15.016  0.4580  1.1797  1.3773
12070TIP3    H257702   1.408   6.674  14.911  0.2082 -0.1092  0.7478
12071TIP3   OH257703   0.784   4.289   6.623 -0.4484 -0.1597  0.1968
12071TIP3    H157704   0.695   4.259   6.642 -1.0318  1.3002 -0.1609
12071TIP3    H257705   0.771   4.370   6.573  1.0838  0.1170  0.2469
12072TIP3   OH257706   3.231   5.388  14.335 -0.2909  0.9350 -0.1327
12072TIP3    H157707   3.202   5.394  14.244 -3.5688 -0.4160  0.7776
12072TIP3    H257708   3.192   5.465  14.378  1.5677  1.7898  0.0807
12073TIP3   OH257709   0.343   0.636  15.509  0.4230 -0.1456 -0.0838
12073TIP3    H157710   0.323   0.557  15.460 -2.5777  0.6639 -0.2270
12073TIP3    H257711   0.405   0.684  15.453  1.8688 -2.1049 -0.2194
12074TIP3   OH257712   6.748   3.578  16.569 -0.1496 -0.1867  0.5682
12074TIP3    H157713   6.824   3.630  16.592 -0.4215  0.9202 -0.9513
12074TIP3    H257714   6.686   3.641  16.532 -0.6599 -1.4949 -0.8924
12075TIP3   OH257715   2.228   5.697  12.336  0.1474  0.0133 -0.3053
12075TIP3    H157716   2.285   5.735  12.403  0.0390 -2.0827  1.0557
12075TIP3    H257717   2.145   5.745  12.345  0.7489  1.0398 -0.2407
12076TIP3   OH257718   3.974   4.587  15.428  0.6210  0.3429 -0.3686
12076TIP3    H157719   4.066   4.611  15.437  0.4578  0.1283  2.2194
12076TIP3    H257720   3.926   4.652  15.479 -0.7440  0.8603 -2.2615
12077TIP3   OH257721   0.681   0.498   0.580  0.0088 -0.4741 -0.0603
12077TIP3    H157722   0.593   0.464   0.599  0.7630 -2.5770 -0.1597
12077TIP3    H257723   0.667   0.565   0.513 -1.4486 -1.2567 -0.5663
12078TIP3   OH257724   4.080   3.044   0.527 -0.6073 -0.2040 -0.2368
12078TIP3    H157725   4.090   3.101   0.451 -0.2091 -0.0959 -0.1046
12078TIP3    H257726   4.108   2.957   0.496 -1.3700 -0.3630 -0.4842
12079TIP3   OH257727   3.773   2.671  11.144 -0.0148  0.7325  0.3770
12079TIP3    H157728   3.775   2.766  11.153  1.7492  0.4826  3.4828
12079TIP3    H257729   3.863   2.647  11.122 -0.3367 -0.2656  0.1129
12080TIP3   OH257730   1.931   1.807  13.050 -0.0538  0.3549  0.1206
12080TIP3    H157731   1.981   1.861  12.989 -1.2272  1.7724  0.3597
12080TIP3    H257732   1.865   1.764  12.995  0.3583 -0.1773  0.0479
12081TIP3   OH257733   0.030   6.087  11.268 -0.2101  0.4032  0.2710
12081TIP3    H157734   0.086   6.137  11.329 -0.5917  2.0713 -0.6996
12081TIP3    H257735  -0.039   6.149  11.244 -0.1922 -0.3125 -1.6703
12082TIP3   OH257736   6.332   1.762   2.665  0.0451 -0.2560 -0.1013
12082TIP3    H157737   6.270   1.752   2.593  0.6463  0.3019 -0.7037
12082TIP3    H257738   6.278   1.759   2.744 -0.7589  0.3328 -0.6255
12083TIP3   OH257739   3.566   2.627   3.527  0.4706 -0.4935 -0.1649
12083TIP3    H157740   3.593   2.600   3.615  2.8767  1.6190 -0.1986
12083TIP3    H257741   3.550   2.545   3.480  0.3647 -1.6694  1.8502
12084TIP3   OH257742   4.714   0.208   4.045  0.1112 -0.2788  0.1366
12084TIP3    H157743   4.777   0.188   3.976 -1.7833  2.8914 -2.6888
12084TIP3    H257744   4.653   0.135   4.044  1.5062 -1.4648  0.2180
12085TIP3   OH257745   6.628   2.523   0.730  0.2238 -0.1256  0.7589
12085TIP3    H157746   6.623   2.619   0.735 -4.0376 -0.1507 -1.0268
12085TIP3    H257747   6.594   2.493   0.814  0.0021 -0.0964  0.6791
12086TIP3   OH257748   1.913   5.427   3.939 -0.1632  0.4143  0.1331
12086TIP3    H157749   2.000   5.396   3.916  0.0355  0.3351  0.9726
12086TIP3    H257750   1.924   5.471   4.023 -0.5539  2.2277 -0.7265
12087TIP3   OH257751   2.021   2.233   5.605 -0.4665  0.0220  0.0297
12087TIP3    H157752   2.083   2.160   5.598 -1.1219 -0.5620  0.2884
12087TIP3    H257753   1.962   2.208   5.676 -1.1811  0.4395 -0.4140
12088TIP3   OH257754   2.507   4.415  12.928  0.0901 -0.5630 -0.1116
12088TIP3    H157755   2.563   4.460  12.991  0.4612 -0.2287 -0.6713
12088TIP3    H257756   2.428   4.394  12.977  0.5004 -0.5807  0.5444
12089TIP3   OH257757   2.215   5.957  17.169  0.2633 -0.1579 -0.4327
12089TIP3    H157758   2.167   5.877  17.147  0.7912 -0.9929  1.4381
12089TIP3    H257759   2.281   5.964  17.100 -2.0450  0.6226 -2.6410
12090TIP3   OH257760   0.203   5.785  13.687 -0.0235 -0.0337 -0.5678
12090TIP3    H157761   0.194   5.845  13.613 -0.4293 -0.3026 -0.7417
12090TIP3    H257762   0.286   5.809  13.728 -0.2662  0.7522 -0.5335
12091TIP3   OH257763   2.677   3.582   6.522  0.3481 -0.0670  0.2820
12091TIP3    H157764   2.681   3.516   6.453  0.9159  0.7095 -0.4298
12091TIP3    H257765   2.597   3.560   6.571 -0.3395 -0.3072 -0.9237
12092TIP3   OH257766   4.894   6.041  16.002  0.7265  0.0699  0.0587
12092TIP3    H157767   4.870   6.113  16.060  0.7832  1.3582 -1.4677
12092TIP3    H257768   4.978   6.068  15.964 -0.3177  0.2484 -2.1880
12093TIP3   OH257769   0.685   4.240   2.158 -0.3932  0.3243  0.1443
12093TIP3    H157770   0.719   4.328   2.173 -0.8685  0.6394 -0.5898
12093TIP3    H257771   0.763   4.185   2.147 -0.1179  1.2220 -2.5400
12094TIP3   OH257772   5.874   6.147   2.583  0.1470 -0.3106  0.2925
12094TIP3    H157773   5.926   6.086   2.635 -0.7507 -1.7087 -0.3989
12094TIP3    H257774   5.791   6.156   2.631  0.2681  0.3647  0.3831
12095TIP3   OH257775   6.249   5.021   3.472  0.1185  0.0972 -0.0040
12095TIP3    H157776   6.250   5.045   3.564  5.4773 -2.8224  0.9501
12095TIP3    H257777   6.208   4.934   3.469  0.4976 -0.0808 -0.2338
12096TIP3   OH257778   2.613   6.144  15.214  0.6444  0.2954  0.2014
12096TIP3    H157779   2.595   6.215  15.276  0.0424 -1.2416  1.8189
12096TIP3    H257780   2.553   6.161  15.140 -0.1011  0.9815  0.9536
12097TIP3   OH257781   2.038   2.708  14.418 -0.4197  0.0518  0.3846
12097TIP3    H157782   2.022   2.627  14.369 -0.9671  0.7599 -0.6351
12097TIP3    H257783   1.951   2.744  14.433 -0.1642  0.5728  0.6314
12098TIP3   OH257784   0.530   4.604  13.005  0.5759  0.1618 -0.5128
12098TIP3    H157785   0.455   4.556  13.040  1.5528  0.4408  2.0460
12098TIP3    H257786   0.497   4.644  12.924 -2.5553  1.6411  1.3856
12099TIP3   OH257787   0.208   3.551   3.824  0.1884  0.4846 -0.3507
12099TIP3    H157788   0.174   3.465   3.801 -2.5052  0.9560  1.6445
12099TIP3    H257789   0.226   3.545   3.918 -1.3663  2.4737  0.1156
12100TIP3   OH257790   1.958   1.011  13.880 -0.5939  0.7460 -0.1570
12100TIP3    H157791   1.948   1.100  13.846 -0.9005  1.0796  0.7813
12100TIP3    H257792   1.986   1.023  13.971 -0.7014 -0.1073 -0.0055
12101TIP3   OH257793   4.548   4.665  17.062 -0.2631 -0.0065  0.1232
12101TIP3    H157794   4.472   4.635  17.012  0.8361  2.6137 -3.2488
12101TIP3    H257795   4.621   4.616  17.026 -0.1173 -1.6767  2.5880
12102TIP3   OH257796   3.260   0.288  12.676  0.8566  0.7400 -0.6471
12102TIP3    H157797   3.200   0.218  12.652  1.9654 -0.4104 -0.1223
12102TIP3    H257798   3.300   0.315  12.593  1.3626 -0.1399 -0.7001
12103TIP3   OH257799   2.487   2.578  16.050 -0.1530  0.2723  0.2066
12103TIP3    H157800   2.455   2.541  15.968 -1.3128 -0.4345  0.9693
12103TIP3    H257801   2.473   2.509  16.115  2.2099  0.2348  0.7169
12104TIP3   OH257802   0.865   0.271  16.590 -0.3062  0.0396  0.3099
12104TIP3    H157803   0.808   0.288  16.515 -0.7832 -0.6136  0.5237
12104TIP3    H257804   0.887   0.178  16.583 -0.3072 -0.0082  0.9449
12105TIP3   OH257805   3.539   5.478  17.025 -0.5287 -1.0057  0.4238
12105TIP3    H157806   3.521   5.567  17.054  0.9460  0.0153 -1.7055
12105TIP3    H257807   3.452   5.441  17.008 -1.0612  1.2515 -2.1394
12106TIP3   OH257808   5.071   0.696  12.154 -0.1194 -0.8819  0.0212
12106TIP3    H157809   5.137   0.716  12.221 -0.3589  0.1146 -0.0367
12106TIP3    H257810   5.039   0.781  12.125 -0.0849 -1.3061 -1.3050
12107TIP3   OH257811   6.570   4.284  11.811  0.7529 -0.0756  0.3878
12107TIP3    H157812   6.533   4.364  11.773  0.2065 -0.5596 -0.1316
12107TIP3    H257813   6.653   4.272  11.765 -0.2049 -1.0036 -1.1436
12108TIP3   OH257814   0.907   1.951  12.793 -0.5774  0.2818  0.0024
12108TIP3    H157815   0.814   1.950  12.770 -0.7583 -2.2407  0.7581
12108TIP3    H257816   0.931   1.859  12.805  1.9540  0.9057  0.1160
12109TIP3   OH257817   3.831   1.846   0.077 -0.4348  0.0238 -0.4190
12109TIP3    H157818   3.759   1.808   0.128  0.6114 -0.8576  0.4236
12109TIP3    H257819   3.794   1.861  -0.010 -1.4843 -0.9066 -0.1379
12110TIP3   OH257820   4.006   2.146   5.301  0.8183 -0.4157 -0.1103
12110TIP3    H157821   3.988   2.214   5.366  1.4782 -2.5023  2.3375
12110TIP3    H257822   3.934   2.085   5.310  0.1267 -0.0024 -2.4425
12111TIP3   OH257823   1.559   1.631   4.663 -0.2750 -0.2622 -0.2196
12111TIP3    H157824   1.508   1.605   4.586 -0.5223 -0.2857 -0.0476
12111TIP3    H257825   1.494   1.646   4.731 -0.0467 -0.3439  0.0176
12112TIP3   OH257826   1.863   6.612  14.077 -0.4938 -0.0884 -0.5611
12112TIP3    H157827   1.890   6.670  14.148  0.6321 -0.7967 -0.4043
12112TIP3    H257828   1.768   6.602  14.090 -0.2582 -0.4386  1.0219
12113TIP3   OH257829   1.135   3.012   5.742 -0.1993 -0.1946 -0.0255
12113TIP3    H157830   1.115   2.929   5.786  0.8486 -0.0756  0.6972
12113TIP3    H257831   1.161   3.070   5.813 -0.0948  0.4973 -0.6321
12114TIP3   OH257832   1.292   1.156   2.865 -0.1327  0.0053 -0.0431
12114TIP3    H157833   1.344   1.098   2.810  1.9056  0.6512  1.1190
12114TIP3    H257834   1.206   1.115   2.869  0.2511 -1.0800 -2.0688
12115TIP3   OH257835   1.203   0.623  16.015 -0.7379  0.0797  0.7956
12115TIP3    H157836   1.245   0.603  16.099 -0.8885  1.5408  1.2325
12115TIP3    H257837   1.116   0.584  16.023 -1.4296  1.8426  2.0735
12116TIP3   OH257838   4.231   5.024  15.839 -0.1439  0.4518 -0.2871
12116TIP3    H157839   4.308   4.996  15.790 -0.1606  0.2252 -0.1849
12116TIP3    H257840   4.220   5.116  15.815  0.8573  0.8237  0.6030
12117TIP3   OH257841   2.556   1.029  12.075  0.3177  0.1816  0.1471
12117TIP3    H157842   2.638   1.009  12.029 -0.6747 -0.9459 -1.1998
12117TIP3    H257843   2.493   1.045  12.004 -0.6802  0.8301  1.1681
12118TIP3   OH257844   1.240   1.979   6.449  0.7926 -0.0383  0.7312
12118TIP3    H157845   1.215   1.894   6.413 -0.7082  1.6307 -2.4029
12118TIP3    H257846   1.319   2.003   6.401  0.1891  1.0815  0.2570
12119TIP3   OH257847   0.314   5.833  15.172 -0.2196  0.4824  0.1072
12119TIP3    H157848   0.315   5.928  15.184 -1.4172  0.4678  0.4025
12119TIP3    H257849   0.343   5.819  15.082 -0.4058  1.1586 -0.0597
12120TIP3   OH257850   2.986   5.426  17.190  0.0035 -0.1608 -0.6630
12120TIP3    H157851   3.064   5.433  17.135 -0.3189 -1.2206 -1.2645
12120TIP3    H257852   3.017   5.447  17.278  0.9855 -0.6681 -0.8838
12121TIP3   OH257853   3.519   3.178  10.459 -0.0343  0.6543 -0.4995
12121TIP3    H157854   3.544   3.209  10.546  0.7001 -1.7891  0.1875
12121TIP3    H257855   3.427   3.154  10.468  0.0486  0.3778 -0.4024
12122TIP3   OH257856   5.149   6.308   4.085  0.8949  0.4089 -0.0110
12122TIP3    H157857   5.100   6.265   4.155  0.7491 -1.2120 -1.0830
12122TIP3    H257858   5.082   6.350   4.031  0.9077  0.6456  0.1597
12123TIP3   OH257859   5.243   6.261   1.622  0.3271  0.2158 -0.1217
12123TIP3    H157860   5.196   6.292   1.698  1.8947  1.6626  0.2931
12123TIP3    H257861   5.334   6.256   1.650  0.8817  0.4448 -1.7860
12124TIP3   OH257862   3.024   5.551   3.131 -0.2635  0.2358  0.4021
12124TIP3    H157863   3.021   5.647   3.132 -0.1570  0.2767 -1.2253
12124TIP3    H257864   3.044   5.529   3.040 -1.1194 -1.3590  0.5796
12125TIP3   OH257865   2.782   5.345  14.240 -0.1599 -0.4749  0.4162
12125TIP3    H157866   2.720   5.276  14.263 -0.8966  0.2791  0.7565
12125TIP3    H257867   2.819   5.373  14.324  0.9561 -1.2007  0.1758
12126TIP3   OH257868   3.211   3.771   3.117  0.3058 -0.0711 -0.1849
12126TIP3    H157869   3.223   3.679   3.142 -0.4426 -0.2574 -0.4950
12126TIP3    H257870   3.122   3.775   3.084  1.0762  0.3165 -2.2726
12127TIP3   OH257871   0.021   4.871   0.033  0.0834 -0.4250 -0.2477
12127TIP3    H157872  -0.004   4.944   0.089  1.0976 -0.1612 -0.1318
12127TIP3    H257873  -0.060   4.845  -0.011 -0.8936 -1.1412  1.9151
12128TIP3   OH257874   4.726   5.122  14.332 -0.3073 -0.0706  0.6950
12128TIP3    H157875   4.797   5.139  14.269 -1.2005 -2.5857 -1.0436
12128TIP3    H257876   4.653   5.093  14.278 -1.4544 -1.2109  2.8231
12129TIP3   OH257877   6.220   5.796  14.381  0.4855  0.1772 -0.0250
12129TIP3    H157878   6.292   5.753  14.335 -1.9783 -1.1791 -2.8337
12129TIP3    H257879   6.165   5.724  14.412 -1.4303  1.2031 -0.9361
12130TIP3   OH257880   2.950   1.659  13.407  0.0192  0.0020 -0.4461
12130TIP3    H157881   2.925   1.571  13.434 -0.1156  0.1205 -0.1740
12130TIP3    H257882   2.909   1.716  13.472  1.4106  0.1710  0.2940
12131TIP3   OH257883   5.359   6.093  16.382 -0.3577 -0.2052 -0.0420
12131TIP3    H157884   5.308   6.083  16.302 -0.2535  0.1279 -0.1491
12131TIP3    H257885   5.372   6.187  16.391 -3.6329  0.1300  2.3597
12132TIP3   OH257886   5.533   4.282  15.200 -0.3752  0.0987  0.1588
12132TIP3    H157887   5.472   4.339  15.153 -1.6430 -2.1734 -1.1107
12132TIP3    H257888   5.493   4.270  15.286 -0.1780  0.9877  0.3802
12133TIP3   OH257889   4.738   4.411   4.444 -0.2545 -0.2135  0.0210
12133TIP3    H157890   4.647   4.421   4.415  0.3101  1.0811 -1.3597
12133TIP3    H257891   4.748   4.477   4.512 -1.2467 -2.4895  2.4526
12134TIP3   OH257892   3.449   0.143  16.986  0.0547 -0.1241 -0.1690
12134TIP3    H157893   3.495   0.203  16.927 -1.1427  0.7217 -0.2576
12134TIP3    H257894   3.411   0.077  16.928  0.5990 -0.4493 -0.1583
12135TIP3   OH257895   1.762   1.138   3.134 -0.2771 -0.6792 -0.7247
12135TIP3    H157896   1.793   1.095   3.213 -1.8973 -2.4569 -1.0108
12135TIP3    H257897   1.823   1.109   3.066  2.3533  2.4783  0.1775
12136TIP3   OH257898   2.865   5.030   4.936  0.2308  0.1199  0.3950
12136TIP3    H157899   2.822   5.094   4.880  1.2011  0.5056  0.0894
12136TIP3    H257900   2.928   4.986   4.879  1.4181  0.6995  1.2427
12137TIP3   OH257901   4.379   3.170  17.184 -0.1414  0.0783 -0.1585
12137TIP3    H157902   4.471   3.152  17.163  0.0849 -0.1344  0.9682
12137TIP3    H257903   4.379   3.260  17.217 -0.3563  0.1190 -0.2714
12138TIP3   OH257904   6.514   0.066  12.024 -0.0117  0.0136  0.3471
12138TIP3    H157905   6.538  -0.016  12.068 -1.1855  0.6143  2.1781
12138TIP3    H257906   6.427   0.086  12.058 -0.5758  0.9901 -1.6198
12139TIP3   OH257907   4.192   2.322   0.525 -0.0388  0.0115  0.4818
12139TIP3    H157908   4.227   2.277   0.449  1.6711 -0.3465  1.4570
12139TIP3    H257909   4.226   2.411   0.518  0.3853 -0.1073  0.9813
12140TIP3   OH257910   0.379   3.602   1.657  0.4018  0.1289  0.3308
12140TIP3    H157911   0.337   3.685   1.681  0.2071  0.1057  0.0681
12140TIP3    H257912   0.441   3.625   1.588  0.6005  0.1112  0.5010
12141TIP3   OH257913   0.061   5.112   0.642  0.2999 -0.0535  0.0494
12141TIP3    H157914   0.139   5.159   0.610  0.7079 -0.4958  0.3890
12141TIP3    H257915   0.081   5.020   0.625 -0.8101 -0.0678 -1.3090
12142TIP3   OH257916   0.692   2.535   4.813 -0.9087  0.3776 -0.4176
12142TIP3    H157917   0.729   2.478   4.882 -2.3509 -0.0028  0.0486
12142TIP3    H257918   0.663   2.613   4.860 -1.5553  0.2773 -0.6573
12143TIP3   OH257919   3.438   4.797  13.193 -0.0405  0.8150 -0.8567
12143TIP3    H157920   3.457   4.755  13.109 -0.2767  0.7694 -0.8867
12143TIP3    H257921   3.511   4.857  13.207 -0.1970  1.1030 -1.2787
12144TIP3   OH257922   5.799   2.012   0.492  0.1871 -0.1707 -0.2565
12144TIP3    H157923   5.742   2.057   0.430 -0.3801 -1.1546 -0.4728
12144TIP3    H257924   5.739   1.956   0.542  0.6449  0.5291  1.1083
12145TIP3   OH257925   6.525   2.311   5.752  0.5508  0.0468  0.1208
12145TIP3    H157926   6.513   2.285   5.661  1.2000 -1.6507  0.5005
12145TIP3    H257927   6.609   2.357   5.754  1.6054 -1.8551  0.2384
12146TIP3   OH257928   3.360   2.385  14.602 -0.2000  0.0252 -0.2250
12146TIP3    H157929   3.435   2.358  14.654 -0.5138 -0.3774  0.0271
12146TIP3    H257930   3.395   2.446  14.537  0.3509 -0.2118 -0.1455
12147TIP3   OH257931   4.929   0.911  14.131  0.8123  0.2643  0.5618
12147TIP3    H157932   4.845   0.871  14.112  1.5466 -1.4731  0.8480
12147TIP3    H257933   4.910   1.003  14.145 -1.0712 -0.1612  0.8388
12148TIP3   OH257934   0.901   5.159  16.225 -0.8054 -0.3426  0.4688
12148TIP3    H157935   0.922   5.117  16.141 -1.1231  0.7021 -0.1538
12148TIP3    H257936   0.845   5.097  16.270  1.1028 -1.8511  0.8264
12149TIP3   OH257937   5.496   2.372   0.892 -0.0456 -0.1435 -0.0336
12149TIP3    H157938   5.582   2.376   0.851 -0.0639 -0.2261 -0.0775
12149TIP3    H257939   5.435   2.401   0.824  0.1534  1.7637  0.5710
12150TIP3   OH257940   0.367   6.411   0.812  0.1028  0.1016  0.4410
12150TIP3    H157941   0.306   6.427   0.884 -0.1673 -1.7414  0.6414
12150TIP3    H257942   0.372   6.495   0.765 -2.0082  0.4805  0.8583
12151TIP3   OH257943   1.268   2.994   3.214  0.0684  0.3660 -0.5566
12151TIP3    H157944   1.251   3.029   3.301 -0.4216  0.5134 -0.7108
12151TIP3    H257945   1.192   2.940   3.194  0.3758 -0.0096 -0.7184
12152TIP3   OH257946   6.239   5.591  13.301  1.2293 -0.8828  0.2108
12152TIP3    H157947   6.189   5.672  13.289  1.4376 -0.5282  1.6361
12152TIP3    H257948   6.243   5.552  13.214 -0.0955 -0.0678 -0.2310
12153TIP3   OH257949   2.418   1.755   4.873  0.1484  0.4318 -0.0980
12153TIP3    H157950   2.336   1.706   4.879 -0.3593  1.1609 -0.9654
12153TIP3    H257951   2.451   1.756   4.963 -1.5195  1.3547  0.5363
12154TIP3   OH257952   0.794   6.107   2.414 -0.0640  0.2761  0.1096
12154TIP3    H157953   0.769   6.095   2.322 -0.3166 -0.6459  0.2913
12154TIP3    H257954   0.820   6.199   2.420  1.9643 -0.1696 -1.3572
12155TIP3   OH257955   1.565   0.509   5.795  0.3653 -0.2888  0.3494
12155TIP3    H157956   1.611   0.455   5.859 -0.2085 -1.2930 -0.0788
12155TIP3    H257957   1.479   0.523   5.833  0.4591  0.2055  0.3872
12156TIP3   OH257958   2.900   5.684  14.247  0.2684 -0.1167 -0.0596
12156TIP3    H157959   2.869   5.645  14.165 -0.9778  1.8365 -0.5575
12156TIP3    H257960   2.822   5.691  14.301  0.5206  1.3473  0.1428
12157TIP3   OH257961   0.842   6.345   1.735 -0.5557 -0.1215  0.0894
12157TIP3    H157962   0.869   6.365   1.824 -0.5947  1.0561 -0.1561
12157TIP3    H257963   0.914   6.294   1.699 -1.1211 -1.7408  1.2093
12158TIP3   OH257964   0.019   4.639  16.560 -0.0184 -0.5905  0.1391
12158TIP3    H157965   0.004   4.546  16.577 -0.5398 -0.4219  0.6354
12158TIP3    H257966   0.060   4.641  16.474 -0.5079 -1.2430 -0.1172
12159TIP3   OH257967   6.003   3.087   2.224 -0.2737  0.1597 -0.5855
12159TIP3    H157968   5.920   3.040   2.230 -0.7114  0.9426 -0.4103
12159TIP3    H257969   6.028   3.105   2.314  0.0032  0.0647 -0.6427
12160TIP3   OH257970   1.896   6.131  16.231  0.1544  0.0467  0.1118
12160TIP3    H157971   1.881   6.110  16.139 -0.7365  0.2966  0.1916
12160TIP3    H257972   1.920   6.048  16.272 -1.5238 -0.4744  0.0673
12161TIP3   OH257973   3.811   5.564  13.465 -0.0588 -0.0175  0.1599
12161TIP3    H157974   3.882   5.513  13.504  0.2737 -1.2093 -1.9126
12161TIP3    H257975   3.732   5.513  13.484 -0.1019  0.2203  0.6315
12162TIP3   OH257976   3.843   1.774   3.976  0.1608 -0.0994 -0.4364
12162TIP3    H157977   3.750   1.749   3.979  0.1847 -0.1122  0.5443
12162TIP3    H257978   3.841   1.870   3.978  0.1262 -0.0627 -2.0732
12163TIP3   OH257979   2.042   2.763  14.810  0.1840 -0.2391  0.5863
12163TIP3    H157980   1.996   2.799  14.735  0.2892 -2.0752 -0.3755
12163TIP3    H257981   1.978   2.767  14.881 -0.2157  0.6466  0.1836
12164TIP3   OH257982   5.144   1.976   0.226 -0.0549  0.0253  0.2719
12164TIP3    H157983   5.141   1.881   0.224 -0.1256  0.0216  0.5401
12164TIP3    H257984   5.059   2.002   0.263  0.0040  0.1878  0.2927
12165TIP3   OH257985   0.700   2.834  12.287 -0.4612 -0.2608  0.7828
12165TIP3    H157986   0.629   2.773  12.307  0.0598 -0.6953  1.3379
12165TIP3    H257987   0.662   2.896  12.224 -1.3753 -0.3828  1.2114
12166TIP3   OH257988   2.523   0.050  14.983 -0.2793  0.0565 -0.3239
12166TIP3    H157989   2.520  -0.038  14.946 -2.6325  0.5008 -1.3283
12166TIP3    H257990   2.432   0.070  15.003  0.0784  2.6573 -1.0980
12167TIP3   OH257991   4.943   1.050   4.404 -0.6726 -0.7099  0.2692
12167TIP3    H157992   4.895   1.116   4.354  0.9022  1.4432  1.5311
12167TIP3    H257993   4.886   1.030   4.478 -1.3716 -1.1566 -0.3836
12168TIP3   OH257994   1.548   1.509  16.197 -0.2119  0.2678  0.5832
12168TIP3    H157995   1.576   1.422  16.169 -0.8048  0.7194 -1.5328
12168TIP3    H257996   1.453   1.503  16.206 -0.0537  0.1896  2.3716
12169TIP3   OH257997   6.033   2.804   1.974 -0.4193  0.4040 -0.2334
12169TIP3    H157998   6.102   2.757   2.020  0.0421 -0.3079 -1.6447
12169TIP3    H257999   6.061   2.896   1.975 -0.1813  0.3228  0.4849
12170TIP3   OH258000   4.970   5.440   2.533 -0.0583 -0.5903  0.5019
12170TIP3    H158001   4.985   5.352   2.500  1.7189  0.0762 -0.5160
12170TIP3    H258002   4.932   5.488   2.460  0.2982 -0.1329  0.6121
12171TIP3   OH258003   1.462   2.420   0.304 -0.0691 -0.3331 -0.4408
12171TIP3    H158004   1.495   2.433   0.215  2.7081  1.8761  0.8249
12171TIP3    H258005   1.528   2.364   0.346 -0.9668 -0.7303  0.4462
12172TIP3   OH258006   0.681   6.207  14.889 -0.1455  0.6699 -0.3623
12172TIP3    H158007   0.743   6.261  14.938  0.4003 -2.3975  2.5219
12172TIP3    H258008   0.595   6.247  14.906  0.2377  0.6268  1.7899
12173TIP3   OH258009   3.249   6.485  11.645 -0.3432  0.0915  0.7289
12173TIP3    H158010   3.191   6.499  11.719  0.2060  0.3632  1.1140
12173TIP3    H258011   3.191   6.483  11.569 -0.6287  3.0525  0.8088
12174TIP3   OH258012   5.712   6.686  15.488 -0.2531  0.1417  0.0303
12174TIP3    H158013   5.751   6.772  15.501 -0.0553  0.3582 -1.9375
12174TIP3    H258014   5.731   6.639  15.570  4.1489  0.2627 -0.8038
12175TIP3   OH258015   0.717   6.486   2.723 -0.1673 -0.1235  0.6814
12175TIP3    H158016   0.710   6.488   2.818 -1.0528  0.3147  0.6078
12175TIP3    H258017   0.811   6.484   2.706  0.0453  1.5417  1.5406
12176TIP3   OH258018   0.949   3.231  12.731  0.1294  0.0131  0.4441
12176TIP3    H158019   0.950   3.285  12.652  0.0738 -0.6446 -0.0082
12176TIP3    H258020   1.038   3.238  12.766  0.9755 -1.8889 -1.1905
12177TIP3   OH258021   0.749   3.684   4.640 -0.0431 -0.6435  0.5170
12177TIP3    H158022   0.682   3.712   4.578 -2.5261 -0.7730  3.0452
12177TIP3    H258023   0.781   3.765   4.678  3.3077 -0.3609 -2.6103
12178TIP3   OH258024   0.995   1.562   4.962  0.3966  0.0170  0.5890
12178TIP3    H158025   1.008   1.475   4.925 -3.3004  0.1919 -1.4082
12178TIP3    H258026   1.012   1.551   5.056  1.1796 -2.5587  0.1837
12179TIP3   OH258027   4.831   0.650  16.210 -0.0329 -0.3869 -0.2451
12179TIP3    H158028   4.848   0.557  16.198 -1.4226 -0.7330  0.3977
12179TIP3    H258029   4.846   0.688  16.123 -1.6165 -1.5520 -1.0447
12180TIP3   OH258030   0.732   1.259   6.363 -0.7369  0.3961 -0.0107
12180TIP3    H158031   0.724   1.217   6.449 -0.3057  0.7920  0.2253
12180TIP3    H258032   0.645   1.250   6.324 -2.0100  3.4131  1.9583
12181TIP3   OH258033   5.539   1.256   2.613 -0.1075  0.3834  0.4231
12181TIP3    H158034   5.460   1.214   2.647 -0.5195 -0.0158 -0.9819
12181TIP3    H258035   5.591   1.278   2.691 -0.9129 -0.7085  1.2736
12182TIP3   OH258036   3.002   2.121   1.576 -0.6160  0.0514 -0.0515
12182TIP3    H158037   2.925   2.177   1.564 -0.5706 -0.1567 -1.4520
12182TIP3    H258038   2.967   2.036   1.601 -0.7076  0.5899  1.6744
12183TIP3   OH258039   1.314   2.251  13.109 -0.4907 -0.0868 -1.1296
12183TIP3    H158040   1.229   2.221  13.142  0.8856 -2.1121  0.7448
12183TIP3    H258041   1.374   2.238  13.183  1.0398  3.4401 -1.6631
12184TIP3   OH258042   4.747   1.139  11.477 -0.7418  0.0249  0.5720
12184TIP3    H158043   4.737   1.117  11.569  1.9450  0.5321  1.0171
12184TIP3    H258044   4.689   1.079  11.431 -1.8699 -0.4342  2.5635
12185TIP3   OH258045   0.939   3.346   4.122 -0.3567  0.1978  0.1044
12185TIP3    H158046   0.890   3.396   4.057  1.5388  1.5577 -0.3232
12185TIP3    H258047   1.029   3.345   4.088  0.3949 -0.1830  2.0621
12186TIP3   OH258048   3.195   1.002   1.162 -0.0240 -0.4876  0.0706
12186TIP3    H158049   3.264   1.048   1.210 -1.1633  2.4231 -0.9732
12186TIP3    H258050   3.119   1.005   1.220 -0.7497  1.0139 -0.9236
12187TIP3   OH258051   6.789   2.533  13.616 -0.2847 -0.1977 -0.3017
12187TIP3    H158052   6.750   2.617  13.590  0.8115  0.1428 -0.8602
12187TIP3    H258053   6.714   2.477  13.635 -1.0387  1.0859  0.6478
12188TIP3   OH258054   0.420   4.472  13.940 -0.2300 -0.2060 -0.0052
12188TIP3    H158055   0.403   4.565  13.923  1.5793 -0.0664 -1.1808
12188TIP3    H258056   0.354   4.447  14.005 -0.5075  1.9905  0.5977
12189TIP3   OH258057   5.799   3.022   0.252  0.4271 -0.2586  0.0305
12189TIP3    H158058   5.832   2.971   0.178 -0.1848  0.3568 -0.6718
12189TIP3    H258059   5.720   2.975   0.281  0.4970 -0.3322  0.1023
12190TIP3   OH258060   5.946   5.618   1.934 -0.2351  0.7147 -0.0953
12190TIP3    H158061   5.955   5.572   2.018 -2.3706  0.0884 -0.1764
12190TIP3    H258062   5.947   5.711   1.958  0.5170  0.5753  0.4559
12191TIP3   OH258063   2.521   5.075   1.190 -0.2672  0.1749 -0.5386
12191TIP3    H158064   2.491   4.986   1.208 -0.5732  0.2531 -0.6609
12191TIP3    H258065   2.578   5.097   1.264 -2.1764  0.8017  0.7871
12192TIP3   OH258066   4.158   3.850   3.133  0.2968  0.4138  0.2006
12192TIP3    H158067   4.104   3.928   3.120 -0.8538 -0.3880  0.0943
12192TIP3    H258068   4.150   3.830   3.226 -1.2232 -0.8615 -0.1820
12193TIP3   OH258069   6.522   6.322   3.484  0.5231 -0.0908  0.5046
12193TIP3    H158070   6.521   6.278   3.569 -1.8139  1.2543  1.1994
12193TIP3    H258071   6.497   6.254   3.422 -1.3517 -0.1886  1.3478
12194TIP3   OH258072   6.800   6.076  12.008 -0.0374 -0.2306 -0.1123
12194TIP3    H158073   6.814   6.096  11.915  0.0641 -0.1064 -0.0704
12194TIP3    H258074   6.887   6.058  12.042  0.1121  1.2369  0.3060
12195TIP3   OH258075   0.292   1.916   3.032  0.1264 -0.4568 -0.4547
12195TIP3    H158076   0.263   1.970   2.958 -0.4568 -0.4650 -0.2343
12195TIP3    H258077   0.344   1.975   3.086 -1.0327  0.0619  0.1123
12196TIP3   OH258078   3.293   2.496  16.098 -0.2419 -0.5173 -0.0090
12196TIP3    H158079   3.233   2.567  16.121  1.4173  0.7824  0.4241
12196TIP3    H258080   3.278   2.482  16.004  0.8808  1.8930 -0.5988
12197TIP3   OH258081   2.632   1.252   2.685  0.0499 -0.2689 -0.6051
12197TIP3    H158082   2.573   1.177   2.678  0.5209 -0.7722  0.8144
12197TIP3    H258083   2.577   1.323   2.718  0.6381 -1.2712  2.7126
12198TIP3   OH258084   1.818   3.313  17.176 -0.5825 -0.3458  0.0012
12198TIP3    H158085   1.813   3.392  17.122  0.9717 -0.2200 -0.0023
12198TIP3    H258086   1.911   3.307  17.200 -0.8375 -1.7072  0.6948
12199TIP3   OH258087   1.246   0.676   4.987 -0.0382 -0.0833  0.0731
12199TIP3    H158088   1.179   0.734   5.023  0.0058 -0.9106  1.4843
12199TIP3    H258089   1.198   0.622   4.923 -0.4438  0.2601  0.0828
12200TIP3   OH258090   1.444   1.612  16.557 -0.6255  0.2136  0.2029
12200TIP3    H158091   1.485   1.694  16.581 -0.0402 -0.3184  1.0556
12200TIP3    H258092   1.515   1.548  16.558 -1.3140 -0.5607  0.9049
12201TIP3   OH258093   1.913   1.599  13.787  0.0885 -0.1022 -0.0341
12201TIP3    H158094   1.962   1.605  13.870  0.2645 -0.8768 -0.0782
12201TIP3    H258095   1.861   1.679  13.784 -0.1986 -0.2399  1.0096
12202TIP3   OH258096   4.202   1.218   2.654  0.0474  0.2679 -0.0203
12202TIP3    H158097   4.227   1.197   2.564  0.2027 -1.6589  0.4296
12202TIP3    H258098   4.142   1.292   2.646  0.0367  0.1019 -1.7098
12203TIP3   OH258099   5.310   2.275  14.027  0.3249  0.3774 -0.0759
12203TIP3    H158100   5.275   2.284  14.115  1.1966  0.9130  0.2231
12203TIP3    H258101   5.242   2.230  13.978 -0.5386  0.9036  0.6400
12204TIP3   OH258102   3.523   2.870  10.124 -0.0160 -0.1174 -0.2317
12204TIP3    H158103   3.458   2.817  10.170  0.9725 -0.7100  0.5130
12204TIP3    H258104   3.473   2.920  10.061 -1.0558 -1.5416 -0.5676
12205TIP3   OH258105   3.598   3.685  12.175 -0.2182  0.1578  0.5818
12205TIP3    H158106   3.687   3.679  12.140 -0.5233  0.4380 -0.2639
12205TIP3    H258107   3.546   3.722  12.103 -1.4236 -1.8750  0.3661
12206TIP3   OH258108   4.647   5.882  15.429 -1.2846  0.3128  0.0075
12206TIP3    H158109   4.703   5.860  15.354  0.1677 -0.7603  1.3875
12206TIP3    H258110   4.589   5.951  15.395 -0.0758  0.4692 -1.8498
12207TIP3   OH258111   6.313   1.459  16.257  0.1365 -0.3027 -0.0618
12207TIP3    H158112   6.228   1.476  16.299  0.9694  1.7882  0.8105
12207TIP3    H258113   6.352   1.390  16.311  0.1032  0.5876  1.1357
12208TIP3   OH258114   4.433   0.962   6.128 -0.1967  0.3448 -0.8805
12208TIP3    H158115   4.499   1.016   6.084 -0.0682  1.1142  0.2470
12208TIP3    H258116   4.485   0.903   6.183 -0.4839  2.3375  1.6096
12209TIP3   OH258117   5.025   5.864   3.932  0.1955  0.5718  0.0949
12209TIP3    H158118   4.977   5.782   3.921  0.1321  0.5157  0.8172
12209TIP3    H258119   5.019   5.906   3.846  2.6452 -1.4823 -1.1767
12210TIP3   OH258120   1.101   2.356   3.142 -0.3729 -0.1908 -0.0445
12210TIP3    H158121   1.145   2.271   3.130 -1.0134 -0.5462  0.1086
12210TIP3    H258122   1.161   2.405   3.199  0.2893 -0.3150 -0.6233
12211TIP3   OH258123   6.786   2.943  15.883 -0.0507  0.6185  0.1052
12211TIP3    H158124   6.795   2.853  15.914  1.7069  0.4143 -0.9563
12211TIP3    H258125   6.693   2.952  15.861 -0.1751 -1.0269 -0.0795
12212TIP3   OH258126   5.921   5.186   5.563  0.3570 -0.1244 -0.6138
12212TIP3    H158127   5.926   5.215   5.654  0.4010  2.0220 -1.2724
12212TIP3    H258128   5.842   5.132   5.559  0.1756  0.0484  0.6289
12213TIP3   OH258129   6.804   2.697  16.049  0.1918 -0.2809 -0.2680
12213TIP3    H158130   6.889   2.654  16.050  1.3823  1.8979  3.4204
12213TIP3    H258131   6.763   2.671  16.132 -1.4230  1.1347 -0.5762
12214TIP3   OH258132   3.177   6.095   5.520  0.4359  0.0285 -0.0707
12214TIP3    H158133   3.216   6.124   5.438  1.4174  0.5143  0.5527
12214TIP3    H258134   3.201   6.163   5.583 -0.4576 -0.2482  0.5734
12215TIP3   OH258135   0.779   0.473  12.800 -0.1619 -0.1360 -0.1089
12215TIP3    H158136   0.784   0.498  12.892  0.6185 -2.4339  0.5001
12215TIP3    H258137   0.694   0.428  12.792  0.3666 -1.1268 -0.1944
12216TIP3   OH258138   0.334   5.282   5.513 -0.2959 -0.4139 -0.1356
12216TIP3    H158139   0.312   5.332   5.591  2.4280 -0.1334  0.5141
12216TIP3    H258140   0.260   5.294   5.454 -2.8176 -1.3467  2.7246
12217TIP3   OH258141   1.458   5.718   4.049  0.5310 -0.4764 -0.6447
12217TIP3    H158142   1.374   5.716   4.003  0.2130 -1.6741 -0.0255
12217TIP3    H258143   1.453   5.646   4.112 -0.0310  2.5374  2.9660
12218TIP3   OH258144   6.045   2.808   1.706 -0.4329 -0.2147  0.5233
12218TIP3    H158145   5.960   2.835   1.671 -0.2711  0.7904  0.8886
12218TIP3    H258146   6.031   2.797   1.800  0.5355  2.8882  1.0675
12219TIP3   OH258147   2.352   5.246   0.889  0.7066 -0.2359  0.4838
12219TIP3    H158148   2.440   5.282   0.902  0.1559  1.3217  0.0832
12219TIP3    H258149   2.346   5.234   0.794  0.3666  0.0146  0.4714
12220TIP3   OH258150   5.648   0.449   5.339 -0.4221  0.1807 -0.4207
12220TIP3    H158151   5.741   0.428   5.328  0.0701  1.2538  1.4330
12220TIP3    H258152   5.629   0.511   5.269  0.8841  1.7363  0.5567
12221TIP3   OH258153   4.701   2.847  15.062 -0.3131  0.3273 -0.1872
12221TIP3    H158154   4.627   2.810  15.013  0.1067  1.2201 -1.5143
12221TIP3    H258155   4.760   2.773  15.074 -0.9612 -0.1695  0.0213
12222TIP3   OH258156   0.461   0.708   0.503 -0.6515 -0.1042 -0.3794
12222TIP3    H158157   0.405   0.677   0.574 -2.9192  2.1553 -1.0783
12222TIP3    H258158   0.529   0.759   0.546  0.0245 -1.6175  0.3774
12223TIP3   OH258159   6.729   2.506   3.294 -0.0451  0.0875 -0.1265
12223TIP3    H158160   6.649   2.553   3.315  0.1350 -0.4231  1.7993
12223TIP3    H258161   6.768   2.486   3.379  0.9776 -1.6358 -0.9766
12224TIP3   OH258162   4.829   1.532  15.393 -0.0681 -0.5640  0.2490
12224TIP3    H158163   4.811   1.620  15.360 -1.3361 -1.2930 -1.0524
12224TIP3    H258164   4.746   1.486  15.385  0.5825 -1.8792  0.9569
12225TIP3   OH258165   1.174   4.267  14.524  0.2030  0.8646 -0.4777
12225TIP3    H158166   1.085   4.256  14.560  0.6309  0.5023  0.5000
12225TIP3    H258167   1.215   4.331  14.582  1.5457 -1.1907  0.9103
12226TIP3   OH258168   5.017   3.693   4.385  0.3495 -0.3013  0.4200
12226TIP3    H158169   5.072   3.625   4.346 -1.3041 -0.9137 -0.9183
12226TIP3    H258170   5.014   3.761   4.318  1.2511  0.7196  1.3879
12227TIP3   OH258171   0.783   3.968  12.826  0.2145 -0.2413 -0.0463
12227TIP3    H158172   0.762   3.895  12.769  0.4194  0.2728 -0.7792
12227TIP3    H258173   0.719   3.961  12.897  1.1945 -2.0082  0.6903
12228TIP3   OH258174   3.380   5.930  13.344  0.5713 -0.3619  0.1250
12228TIP3    H158175   3.458   5.874  13.351  0.4014 -0.4991  1.0628
12228TIP3    H258176   3.400   6.006  13.399  0.0884 -0.3506  0.2845
12229TIP3   OH258177   0.952   4.507  15.004 -0.3049  0.0511 -0.1343
12229TIP3    H158178   1.045   4.527  14.990 -0.2391  0.5826  0.9810
12229TIP3    H258179   0.931   4.552  15.086 -1.5622 -0.0278 -0.4136
12230TIP3   OH258180   3.598   4.898   0.044  0.7838  0.1688 -0.4616
12230TIP3    H158181   3.574   4.817  -0.002 -2.2840  1.1624 -0.7242
12230TIP3    H258182   3.591   4.875   0.137 -0.2447  0.1401 -0.5364
12231TIP3   OH258183   5.147   2.386  11.543  0.4913 -0.3290  0.4201
12231TIP3    H158184   5.144   2.359  11.635  0.8685  1.9033  1.1258
12231TIP3    H258185   5.064   2.433  11.530  0.3180 -0.8772 -0.4572
12232TIP3   OH258186   3.686   5.537  12.043 -0.4857 -0.4024 -0.0600
12232TIP3    H158187   3.614   5.481  12.015  0.0957 -1.3633  0.3452
12232TIP3    H258188   3.694   5.520  12.137  0.9137 -1.0491 -0.2873
12233TIP3   OH258189   4.678   1.824  16.327  0.5042  0.3309  0.0044
12233TIP3    H158190   4.765   1.826  16.288  1.0124 -1.3151  1.0109
12233TIP3    H258191   4.646   1.735  16.310  0.4057 -0.1746  2.5757
12234TIP3   OH258192   5.092   0.069  17.136  1.0209  0.1272  0.3689
12234TIP3    H158193   5.175   0.113  17.117  0.5429  1.2770  0.8509
12234TIP3    H258194   5.105  -0.022  17.108  2.5428  0.2248  0.7222
12235TIP3   OH258195   3.643   6.192   4.292  0.1519  0.0135  0.0151
12235TIP3    H158196   3.736   6.209   4.309 -0.1605  1.5059  0.2962
12235TIP3    H258197   3.627   6.233   4.207 -0.0689 -0.9446 -0.4141
12236TIP3   OH258198   6.740   0.129  13.264 -0.0108 -0.0465  0.1185
12236TIP3    H158199   6.747   0.102  13.356 -0.1215  1.7635  0.6880
12236TIP3    H258200   6.774   0.218  13.263 -0.6517  0.1934 -1.4856
12237TIP3   OH258201   5.896   2.755  17.087 -0.2307  0.0242 -0.2695
12237TIP3    H158202   5.947   2.832  17.065  0.3510 -0.5900 -1.0992
12237TIP3    H258203   5.956   2.681  17.075 -1.2797 -0.7007 -1.1869
12238TIP3   OH258204   5.108   5.628   3.330  0.2769  0.6978  0.3348
12238TIP3    H158205   5.101   5.720   3.307  0.1329  0.8694  1.0397
12238TIP3    H258206   5.177   5.594   3.273 -0.7225  0.8787 -0.9911
12239TIP3   OH258207   0.380   0.017  11.529  0.0019  0.0718 -0.7726
12239TIP3    H158208   0.291   0.007  11.494  0.1251  1.2095 -1.4316
12239TIP3    H258209   0.373  -0.012  11.620 -0.8610 -0.6347 -1.0580
12240TIP3   OH258210   0.374   2.365   5.626 -0.8322  0.3303  0.1936
12240TIP3    H158211   0.285   2.389   5.599 -0.6422  1.6562  0.7119
12240TIP3    H258212   0.428   2.438   5.596  0.5138 -1.6335 -2.4580
12241TIP3   OH258213   3.756   4.651  14.925  0.0671 -0.1905  0.7088
12241TIP3    H158214   3.794   4.734  14.897 -2.1788  1.0896  1.3639
12241TIP3    H258215   3.819   4.585  14.896  2.4078  1.8040  1.1332
12242TIP3   OH258216   5.577   3.278   5.683 -0.0228 -0.2488 -0.4224
12242TIP3    H158217   5.536   3.360   5.655  1.6805  0.4188 -1.0183
12242TIP3    H258218   5.555   3.215   5.615  0.6418  0.3295 -1.1879
12243TIP3   OH258219   1.936   0.748  11.155  0.9392 -0.1181  0.3109
12243TIP3    H158220   1.904   0.688  11.088 -3.5665  1.9486  0.4539
12243TIP3    H258221   1.966   0.824  11.105  1.5765 -0.2908  0.4273
12244TIP3   OH258222   0.732   2.100  16.883 -0.2200  0.0444 -0.3637
12244TIP3    H158223   0.778   2.043  16.945 -1.6713  0.4951  1.1520
12244TIP3    H258224   0.657   2.048  16.854 -0.3125  0.3565 -0.6847
12245TIP3   OH258225   4.646   4.552  10.900 -0.3387 -0.2612  0.0330
12245TIP3    H158226   4.632   4.636  10.943  0.0267  0.1648 -0.6793
12245TIP3    H258227   4.558   4.518  10.883 -0.4945 -0.9036  2.0212
12246TIP3   OH258228   1.325   5.765  14.374  0.7119 -0.8062 -0.0149
12246TIP3    H158229   1.280   5.741  14.293  1.8054 -0.8975 -0.5988
12246TIP3    H258230   1.327   5.861  14.373  0.3185 -0.7951  0.1329
12247TIP3   OH258231   2.994   4.789  17.292  0.2169  0.2517  0.0113
12247TIP3    H158232   2.941   4.869  17.283  0.5528  0.4886  0.1250
12247TIP3    H258233   3.076   4.819  17.332  1.4415  0.2941 -2.4403
12248TIP3   OH258234   4.892   5.099  13.078 -0.4794 -0.2381  0.3391
12248TIP3    H158235   4.800   5.088  13.054 -0.8411  1.5875  0.7623
12248TIP3    H258236   4.917   5.182  13.038  0.4034  0.2495  1.8394
12249TIP3   OH258237   5.986   2.610  13.098 -0.4010  0.5234 -0.4360
12249TIP3    H158238   6.001   2.545  13.167  0.8800  1.4189  0.1712
12249TIP3    H258239   5.978   2.559  13.018  1.1861 -0.3709 -0.0576
12250TIP3   OH258240   0.262   2.710  11.527 -0.8584 -0.3593 -0.7433
12250TIP3    H158241   0.327   2.658  11.481 -0.0890 -1.4338  1.5236
12250TIP3    H258242   0.211   2.751  11.457  1.6632 -0.1868 -2.5523
12251TIP3   OH258243   1.719   6.256  15.769  0.6227  0.0762 -1.0884
12251TIP3    H158244   1.752   6.313  15.838 -0.6193 -0.1354 -0.2923
12251TIP3    H258245   1.770   6.176  15.778  0.8502  0.2558 -0.7700
12252TIP3   OH258246   6.155   0.914   2.764 -0.3760  0.2233 -0.3340
12252TIP3    H158247   6.086   0.858   2.729  0.0066 -0.8888  0.6754
12252TIP3    H258248   6.109   0.984   2.809 -0.8466 -0.5071  0.3194
12253TIP3   OH258249   0.951   3.586   1.947 -0.1399  0.1864 -0.1239
12253TIP3    H158250   0.941   3.543   2.032  0.5777  2.6299  1.2541
12253TIP3    H258251   1.031   3.549   1.910 -1.1440 -1.8142 -0.3151
12254TIP3   OH258252   2.155   2.219  15.229 -0.2480  0.1123  0.3039
12254TIP3    H158253   2.076   2.209  15.175 -1.1388  1.2466  1.3930
12254TIP3    H258254   2.226   2.223  15.165 -1.1538  0.0648 -0.7357
12255TIP3   OH258255   3.165   2.954  15.012  0.0289  0.1827 -0.6397
12255TIP3    H158256   3.154   3.046  15.035  1.9538  0.3793 -0.4343
12255TIP3    H258257   3.140   2.906  15.092  1.3511  0.6433  0.0751
12256TIP3   OH258258   1.410   1.904   1.303 -0.0446  0.0446 -0.2551
12256TIP3    H158259   1.445   1.989   1.274 -0.9035  0.6686  0.5100
12256TIP3    H258260   1.449   1.841   1.242  2.3773  0.7039  0.5606
12257TIP3   OH258261   4.487   3.250  15.637 -0.0224 -0.1640 -0.4148
12257TIP3    H158262   4.555   3.287  15.582 -0.2858 -1.0469 -1.3583
12257TIP3    H258263   4.429   3.323  15.657  2.5506  1.1780  2.5258
12258TIP3   OH258264   2.959   4.391  14.459  0.1206 -0.1777  0.0813
12258TIP3    H158265   2.961   4.361  14.550 -0.5083 -2.0090 -0.4954
12258TIP3    H258266   2.992   4.481  14.463  0.0052 -0.2004  2.1306
12259TIP3   OH258267   5.165   0.578  13.003  0.1859  0.5821 -0.1473
12259TIP3    H158268   5.137   0.568  12.912  3.0989 -0.0868 -1.0323
12259TIP3    H258269   5.165   0.673  13.017 -0.7556  0.6689 -0.6914
12260TIP3   OH258270   2.150   0.963   4.761 -0.5042  0.3521 -0.4238
12260TIP3    H158271   2.178   0.872   4.771  0.9581  0.8453  0.1436
12260TIP3    H258272   2.228   1.014   4.782 -0.7309  1.7045 -2.7626
12261TIP3   OH258273   3.144   6.227   4.354 -0.1327  0.7056  0.1316
12261TIP3    H158274   3.152   6.302   4.296 -1.1534 -1.0153 -2.3000
12261TIP3    H258275   3.050   6.218   4.370 -0.1681 -0.9358 -0.8405
12262TIP3   OH258276   3.587   2.944  15.408  0.3538 -0.0977  0.3783
12262TIP3    H158277   3.648   2.967  15.338 -1.0952  0.1849 -0.8216
12262TIP3    H258278   3.513   2.902  15.363 -1.0187  0.9298  1.6172
12263TIP3   OH258279   4.234   3.249  13.705 -0.6285  0.1944  0.1980
12263TIP3    H158280   4.197   3.166  13.735  2.0172 -1.1851 -0.2326
12263TIP3    H258281   4.250   3.236  13.612  3.0243 -0.0673  0.8088
12264TIP3   OH258282   6.585   1.564  13.962  0.1882 -0.2790 -0.1647
12264TIP3    H158283   6.520   1.620  14.004 -0.5932 -1.4559  0.2123
12264TIP3    H258284   6.559   1.560  13.870 -2.3788 -3.5716  0.6020
12265TIP3   OH258285   1.847   3.133   5.050 -0.0179  0.5741 -0.1922
12265TIP3    H158286   1.813   3.132   5.139 -1.0377 -0.6812 -0.5789
12265TIP3    H258287   1.881   3.045   5.035 -0.0046  0.7186 -1.0974
12266TIP3   OH258288   2.877   3.487   6.279  0.0205  0.6129 -0.3293
12266TIP3    H158289   2.832   3.507   6.196  3.1979  0.6464 -2.1106
12266TIP3    H258290   2.813   3.435   6.328 -0.9079 -2.0588 -4.0557
12267TIP3   OH258291   6.630   4.201   0.080 -0.0307  0.0430  0.0874
12267TIP3    H158292   6.559   4.149   0.118 -0.0638 -1.0222 -1.4136
12267TIP3    H258293   6.708   4.147   0.089  0.3117  0.5676  0.3147
12268TIP3   OH258294   4.502   5.637   2.022  0.3610  0.2267 -0.5125
12268TIP3    H158295   4.535   5.553   2.052  0.3441  0.7353  0.9283
12268TIP3    H258296   4.580   5.692   2.012  0.4295 -0.1129 -1.9871
12269TIP3   OH258297   1.495   2.518  15.187  0.0141  0.0313 -0.1947
12269TIP3    H158298   1.421   2.563  15.146  0.6701  0.3364 -1.0652
12269TIP3    H258299   1.518   2.449  15.126  2.0985  1.5648 -1.1893
12270TIP3   OH258300   0.399   4.608  11.863 -0.3022  0.2840  0.2465
12270TIP3    H158301   0.467   4.664  11.899  3.2544 -1.5905 -3.1498
12270TIP3    H258302   0.444   4.526  11.841 -3.2336 -0.4222 -3.7203
12271TIP3   OH258303   6.656   2.734  16.429  0.3951  0.1395  0.1133
12271TIP3    H158304   6.725   2.767  16.487  2.4134 -1.5352 -1.2694
12271TIP3    H258305   6.632   2.810  16.375  3.5485 -0.0577 -1.6559
12272TIP3   OH258306   0.516   1.520  11.144  0.3060 -0.0606  0.2553
12272TIP3    H158307   0.525   1.589  11.211 -0.5902 -1.6049  2.0165
12272TIP3    H258308   0.579   1.453  11.170  0.0700 -0.5967 -0.5561
12273TIP3   OH258309   4.158   4.093   4.374  0.1139 -0.0754 -0.0135
12273TIP3    H158310   4.139   4.088   4.281 -0.4204  0.9149  0.0354
12273TIP3    H258311   4.220   4.022   4.390  0.2155 -0.2426 -1.1215
12274TIP3   OH258312   1.436   2.748   6.610  0.7969 -0.0955 -0.9352
12274TIP3    H158313   1.403   2.693   6.682  0.7551  0.3985 -0.5745
12274TIP3    H258314   1.501   2.693   6.566  2.6409  0.4704  0.9913
12275TIP3   OH258315   1.940   0.787   4.537  0.1970  0.5694 -0.0196
12275TIP3    H158316   2.025   0.771   4.495  0.7910  2.1803  0.5115
12275TIP3    H258317   1.893   0.842   4.473 -0.2694  0.0681 -0.1090
12276TIP3   OH258318   0.689   1.339   2.027  0.3448 -0.1259 -0.0785
12276TIP3    H158319   0.694   1.246   2.050  0.8573  0.4295  2.2052
12276TIP3    H258320   0.659   1.382   2.108 -2.3454  1.4146 -1.8364
12277TIP3   OH258321   1.598   5.385  16.532 -0.0584  0.0525 -0.1275
12277TIP3    H158322   1.592   5.332  16.612 -1.7170 -0.1689 -0.3854
12277TIP3    H258323   1.692   5.392  16.515  0.2713 -0.7300  1.2883
12278TIP3   OH258324   6.081   6.672   5.686  0.3970  0.3378 -0.0339
12278TIP3    H158325   6.009   6.616   5.655 -0.6602  1.9129 -0.4761
12278TIP3    H258326   6.042   6.724   5.756  1.7542 -0.4391  1.3371
12279TIP3   OH258327   3.226   6.480  12.335 -0.5496 -0.2393 -0.6979
12279TIP3    H158328   3.293   6.485  12.402  0.5473 -0.8098 -1.7414
12279TIP3    H258329   3.164   6.550  12.357 -1.0751 -1.4684  1.8434
12280TIP3   OH258330   5.575   0.411  16.485  0.3183 -0.5485  0.1887
12280TIP3    H158331   5.506   0.454  16.434  0.9128  0.4683  0.2329
12280TIP3    H258332   5.606   0.479  16.545  0.4472 -1.3918  1.0893
12281TIP3   OH258333   0.276   6.084  11.152  0.4296 -0.3788 -0.2532
12281TIP3    H158334   0.190   6.080  11.194  0.4553 -0.3494 -0.1981
12281TIP3    H258335   0.268   6.156  11.089  0.1137 -0.9944 -0.9299
12282TIP3   OH258336   1.300   1.371  16.137  0.1518 -0.0322  0.1818
12282TIP3    H158337   1.269   1.323  16.060 -1.5610 -0.8734  1.3561
12282TIP3    H258338   1.266   1.321  16.211  2.3558  0.3770  1.5096
12283TIP3   OH258339   3.764   1.498  13.350 -0.1388 -0.2663  0.1244
12283TIP3    H158340   3.725   1.456  13.427  1.5022  0.4407  1.3634
12283TIP3    H258341   3.790   1.425  13.293 -0.2150 -0.8374  0.8145
12284TIP3   OH258342   6.264   4.204   0.264 -0.0197  0.1872 -0.1287
12284TIP3    H158343   6.212   4.261   0.208 -2.4460 -1.6321  0.1689
12284TIP3    H258344   6.200   4.160   0.319  2.0432 -0.6275  1.6850
12285TIP3   OH258345   2.437   4.602   3.725  0.2238  0.3247  0.0264
12285TIP3    H158346   2.438   4.695   3.704 -1.3256  0.4770  0.5635
12285TIP3    H258347   2.521   4.569   3.692  0.6531  1.8409 -0.4361
12286TIP3   OH258348   3.863   0.006  13.309  0.6007 -0.6484  0.2218
12286TIP3    H158349   3.857  -0.059  13.238  2.1167 -0.8466  0.2718
12286TIP3    H258350   3.844  -0.044  13.388 -1.7198 -0.3039 -0.0755
12287TIP3   OH258351   1.103   1.047   3.442  0.0164 -0.1616 -0.3437
12287TIP3    H158352   1.119   1.047   3.537  1.0189 -1.5684 -0.4980
12287TIP3    H258353   1.155   1.120   3.409  0.1917 -0.0788  0.1030
12288TIP3   OH258354   2.740   5.511   0.009 -0.1564  0.3722  0.0053
12288TIP3    H158355   2.769   5.600   0.027  1.1920 -0.3573  1.6556
12288TIP3    H258356   2.817   5.468  -0.028 -0.8751 -0.0385 -1.0310
12289TIP3   OH258357   2.071   1.838   0.672 -0.1242  0.0775 -0.0742
12289TIP3    H158358   2.027   1.811   0.753 -0.5501 -1.3300 -0.7387
12289TIP3    H258359   2.000   1.844   0.608  0.5254 -1.4721 -0.9781
12290TIP3   OH258360   1.135   1.930  14.722 -0.0642 -0.1666 -0.3209
12290TIP3    H158361   1.126   2.009  14.668  0.5963  1.0437  1.3191
12290TIP3    H258362   1.079   1.946  14.798  1.0895 -0.7222  0.6586
12291TIP3   OH258363   4.173   0.732   5.168  0.3868  0.1860  0.0474
12291TIP3    H158364   4.168   0.637   5.160 -2.4948  0.4429 -1.9593
12291TIP3    H258365   4.140   0.750   5.256  0.6998 -0.6584  0.3403
12292TIP3   OH258366   4.332   1.714  16.418 -0.7195  0.0547  0.0440
12292TIP3    H158367   4.277   1.787  16.448 -1.6830 -0.9461  0.7497
12292TIP3    H258368   4.294   1.689  16.334  0.8281  1.6370 -1.1554
12293TIP3   OH258369   2.975   1.017   5.253 -0.2680  0.6144  0.0382
12293TIP3    H158370   2.887   1.035   5.220  0.2040  1.7496 -0.6492
12293TIP3    H258371   3.004   1.101   5.288  0.7450  0.3869 -0.2444
12294TIP3   OH258372   6.635   3.036   4.067  0.4567  0.2656 -0.9260
12294TIP3    H158373   6.683   2.956   4.046 -0.4608  0.0617 -2.3707
12294TIP3    H258374   6.550   3.025   4.023 -0.6846  0.8759  1.0898
12295TIP3   OH258375   2.381   1.408  16.945 -0.3641 -0.4433  0.5867
12295TIP3    H158376   2.290   1.391  16.969 -0.8238 -2.9529 -2.6162
12295TIP3    H258377   2.381   1.499  16.915 -1.9569 -0.6123  0.0203
12296TIP3   OH258378   5.458   1.748  16.894 -0.2236 -0.0852  0.4048
12296TIP3    H158379   5.452   1.843  16.887 -1.2729  0.0045  2.1947
12296TIP3    H258380   5.552   1.730  16.898 -0.0533  1.0677  2.1883
12297TIP3   OH258381   6.113   4.506  13.056 -1.2601 -0.4397 -0.5744
12297TIP3    H158382   6.188   4.447  13.047 -1.1023 -0.0987 -1.5024
12297TIP3    H258383   6.037   4.448  13.051 -1.0497 -0.9562  1.6551
12298TIP3   OH258384   5.871   2.324  14.787 -0.0823 -0.2084 -0.2101
12298TIP3    H158385   5.918   2.343  14.706 -0.0912  1.4889  0.1622
12298TIP3    H258386   5.780   2.314  14.761 -0.4974  2.8589 -0.1168
12299TIP3   OH258387   2.247   6.097   3.182 -0.5504  0.2322  0.6189
12299TIP3    H158388   2.174   6.096   3.119 -0.8386  0.9792  0.9341
12299TIP3    H258389   2.287   6.183   3.172  0.6410 -0.3855  0.0604
12300TIP3   OH258390   0.441   2.660   5.229 -0.2417 -0.8392 -0.3085
12300TIP3    H158391   0.510   2.683   5.167 -0.7591 -1.4269 -1.1119
12300TIP3    H258392   0.369   2.629   5.174 -0.8043 -1.1064  0.5722
12301TIP3   OH258393   2.486   0.983  12.990  0.0624  0.2416  0.5897
12301TIP3    H158394   2.430   1.059  12.982 -1.2178 -0.7666 -0.1583
12301TIP3    H258395   2.542   1.002  13.065 -0.9637  1.4417  1.0587
12302TIP3   OH258396   6.391   3.636  12.483 -0.0010 -0.4312 -0.3748
12302TIP3    H158397   6.484   3.646  12.506  0.1719  0.7843 -1.5624
12302TIP3    H258398   6.390   3.571  12.413 -0.1187 -0.9032  0.0582
12303TIP3   OH258399   6.424   3.635   1.585 -0.8591 -0.4698 -0.3783
12303TIP3    H158400   6.469   3.657   1.504  1.0607 -0.2312  0.7286
12303TIP3    H258401   6.353   3.698   1.591  1.1746  1.8484 -0.0833
12304TIP3   OH258402   4.325   2.514  10.834 -0.3661 -0.0239  0.2563
12304TIP3    H158403   4.406   2.479  10.796 -0.9761 -3.8093  2.2074
12304TIP3    H258404   4.260   2.505  10.764  0.0630 -0.5715 -0.0773
12305TIP3   OH258405   2.475   4.112  12.202  0.3448  0.7551  0.1040
12305TIP3    H158406   2.546   4.055  12.231 -0.2694  0.1354  0.4341
12305TIP3    H258407   2.462   4.091  12.110  0.0374  0.2653  0.2569
12306TIP3   OH258408   6.609   3.453   1.197  0.4040  0.1516 -0.2597
12306TIP3    H158409   6.552   3.420   1.266  0.7438 -2.2040 -1.0403
12306TIP3    H258410   6.634   3.541   1.226 -0.6407 -0.2174  1.8738
12307TIP3   OH258411   3.092   4.281  12.372  0.1883  0.3918 -0.0894
12307TIP3    H158412   3.152   4.311  12.303  0.2452  0.0338 -0.1939
12307TIP3    H258413   3.128   4.318  12.452 -0.7478  2.1107 -0.4431
12308TIP3   OH258414   0.679   6.227  17.250  0.0679  0.0494  0.1459
12308TIP3    H158415   0.673   6.323  17.249  0.4328  0.0657 -0.8990
12308TIP3    H258416   0.649   6.200  17.162 -0.2827 -0.8066  0.5204
12309TIP3   OH258417   1.109   1.836   5.231  0.0270 -0.5888 -0.5296
12309TIP3    H158418   1.087   1.792   5.313 -1.2601  1.7754  0.4409
12309TIP3    H258419   1.050   1.911   5.227  3.1804  1.9589 -1.3422
12310TIP3   OH258420   4.240   3.186  10.020  0.2653 -0.3484 -0.0885
12310TIP3    H158421   4.184   3.108  10.019  0.3565 -0.4351  0.9465
12310TIP3    H258422   4.178   3.259  10.018  0.1829 -0.4352 -1.2245
12311TIP3   OH258423   6.562   4.181   6.352 -0.1511  0.2933 -0.4946
12311TIP3    H158424   6.611   4.263   6.357  0.3276  0.1443 -2.5311
12311TIP3    H258425   6.522   4.182   6.265  0.8538 -2.1932 -1.0141
12312TIP3   OH258426   1.130   4.984   1.687  0.2146 -0.0707  0.4687
12312TIP3    H158427   1.173   5.055   1.639 -1.4423  0.0510 -0.9158
12312TIP3    H258428   1.079   5.029   1.755 -0.0564  0.0236  0.2107
12313TIP3   OH258429   5.831   1.232   0.135 -0.5614  0.8209  0.4529
12313TIP3    H158430   5.841   1.204   0.044 -1.5865  0.2174  0.5213
12313TIP3    H258431   5.760   1.178   0.169  0.5233  0.3151  1.9226
12314TIP3   OH258432   4.957   6.752  10.985  0.4512 -0.6269 -0.4197
12314TIP3    H158433   4.936   6.832  10.936 -0.7260 -0.7773 -0.1797
12314TIP3    H258434   4.885   6.693  10.965 -0.2072 -0.5834  1.7167
12315TIP3   OH258435   4.661   4.256  10.431  0.2682 -0.1845  0.2723
12315TIP3    H158436   4.585   4.197  10.435  0.2862 -0.3247 -1.0269
12315TIP3    H258437   4.624   4.340  10.404  0.7313 -0.6218 -1.8566
12316TIP3   OH258438   4.329   0.818   1.740 -0.5809 -0.4725 -0.3022
12316TIP3    H158439   4.261   0.884   1.727  0.5609  0.8385  0.2410
12316TIP3    H258440   4.365   0.803   1.652 -0.1651  0.3814 -0.2814
12317TIP3   OH258441   3.270   3.741   5.378  0.2612 -0.1498 -0.4154
12317TIP3    H158442   3.319   3.781   5.307 -0.6514  0.2715 -0.8199
12317TIP3    H258443   3.256   3.813   5.441 -1.2206  0.1441 -1.0561
12318TIP3   OH258444   1.004   6.788  16.870 -0.1805  0.8561 -0.1665
12318TIP3    H158445   1.074   6.775  16.935 -2.9932 -1.1946  2.5887
12318TIP3    H258446   0.955   6.864  16.903 -2.4570 -1.0502  0.9404
12319TIP3   OH258447   2.803   2.451  16.285  0.0408 -0.3973  0.4465
12319TIP3    H158448   2.851   2.370  16.305  1.5424  0.0994 -0.9749
12319TIP3    H258449   2.833   2.513  16.351 -1.2995 -1.0386  1.6913
12320TIP3   OH258450   2.394   5.431   5.332  0.9078 -0.2658  0.6612
12320TIP3    H158451   2.450   5.459   5.259 -1.0022 -0.6657 -0.9985
12320TIP3    H258452   2.401   5.335   5.332 -2.6125 -0.6227 -1.9817
12321TIP3   OH258453   0.069   4.459   3.010  0.0644  0.0156  0.2392
12321TIP3    H158454   0.157   4.423   2.997 -0.0733  0.0583 -0.8555
12321TIP3    H258455   0.084   4.541   3.057  0.3980 -1.2822  2.4183
12322TIP3   OH258456   4.043   2.423  11.333 -0.0225 -0.3405 -0.2510
12322TIP3    H158457   4.108   2.483  11.370 -0.0771 -0.3666 -0.1108
12322TIP3    H258458   4.057   2.341  11.380 -1.1241  0.0722  0.8086
12323TIP3   OH258459   5.097   4.529   2.535 -0.0159  0.3787 -0.4748
12323TIP3    H158460   5.175   4.530   2.479  0.0904 -0.4738 -0.3504
12323TIP3    H258461   5.057   4.615   2.523 -1.2305 -0.5827 -3.5896
12324TIP3   OH258462   3.749   4.135  13.756 -0.1490  0.0749 -0.5166
12324TIP3    H158463   3.782   4.132  13.846 -1.2092  0.0006 -0.1276
12324TIP3    H258464   3.689   4.061  13.750  0.7360 -0.5677 -1.6188
12325TIP3   OH258465   4.228   3.987  14.136  0.0882 -0.4472 -0.6068
12325TIP3    H158466   4.254   4.066  14.088  0.8427  0.1022  0.6647
12325TIP3    H258467   4.299   3.973  14.199  0.0247 -2.2353 -0.9136
12326TIP3   OH258468   5.742   2.396   3.325  0.1918 -0.0331 -0.5473
12326TIP3    H158469   5.807   2.447   3.375  0.1773 -0.5688  0.0164
12326TIP3    H258470   5.784   2.312   3.310 -1.2664 -1.2036  1.8146
12327TIP3   OH258471   0.148   2.033  14.975 -0.5554  0.1024  0.0928
12327TIP3    H158472   0.100   2.113  14.952 -1.0265 -0.2090 -0.0180
12327TIP3    H258473   0.089   1.986  15.035  0.4480  0.6538  1.5187
12328TIP3   OH258474   6.055   6.511  15.773  0.4566  0.2353  0.0676
12328TIP3    H158475   6.137   6.556  15.750  0.5383  0.2530  0.4018
12328TIP3    H258476   6.043   6.529  15.866  1.0563 -1.3292  0.4587
12329TIP3   OH258477   5.917   4.240  15.922 -0.4647 -0.1144 -0.3376
12329TIP3    H158478   5.840   4.194  15.956 -0.3265  0.5988  0.9478
12329TIP3    H258479   5.985   4.172  15.918 -1.4527 -1.0495 -2.6523
12330TIP3   OH258480   1.890   4.945   3.092  0.3863 -0.3996 -0.1273
12330TIP3    H158481   1.829   4.983   3.156  1.4306  0.1981  0.5169
12330TIP3    H258482   1.977   4.967   3.125  0.9431 -0.3216 -1.6188
12331TIP3   OH258483   1.424   2.608   4.833 -0.0923 -0.4946  1.4084
12331TIP3    H158484   1.449   2.523   4.870 -2.5554 -0.6008  2.9004
12331TIP3    H258485   1.366   2.647   4.898 -2.1000  0.6660 -0.9825
12332TIP3   OH258486   2.017   0.524  14.230  0.0032 -0.2061  0.3811
12332TIP3    H158487   2.087   0.583  14.203  0.7356 -0.2501  2.1423
12332TIP3    H258488   1.984   0.560  14.312 -2.3309  0.0337 -0.6215
12333TIP3   OH258489   2.030   5.928  12.941 -0.0353 -0.5665 -0.3642
12333TIP3    H158490   2.108   5.874  12.954  0.4686  0.9046  3.3041
12333TIP3    H258491   1.957   5.870  12.962  0.4003 -0.4853  1.5002
12334TIP3   OH258492   0.880   5.461  10.976  0.7881  0.1881  0.1727
12334TIP3    H158493   0.844   5.439  10.890 -0.6403 -2.6209  1.4076
12334TIP3    H258494   0.804   5.474  11.032  1.6379 -1.4188  1.7740
12335TIP3   OH258495   4.155   6.413   3.403 -0.2085  0.2479 -0.2066
12335TIP3    H158496   4.162   6.320   3.425  1.2974  0.7302  1.4873
12335TIP3    H258497   4.112   6.453   3.478 -1.6878  0.8085 -1.3173
12336TIP3   OH258498   0.704   5.607  13.330  0.4753 -0.2046 -0.0730
12336TIP3    H158499   0.784   5.621  13.380  0.2532  2.0863 -0.2665
12336TIP3    H258500   0.653   5.687  13.345 -1.0497 -0.9310 -1.2483
12337TIP3   OH258501   0.482   2.031   5.858 -0.6159 -0.7806 -0.1111
12337TIP3    H158502   0.500   2.125   5.859  0.4963 -0.9771 -0.6704
12337TIP3    H258503   0.403   2.021   5.911 -0.0030  0.3229  1.0435
12338TIP3   OH258504   6.408   4.391  17.180  0.5525 -0.3424 -0.6609
12338TIP3    H158505   6.371   4.423  17.262  1.5709  0.9229 -0.6762
12338TIP3    H258506   6.336   4.342  17.139 -1.4593  2.8600 -1.1262
12339TIP3   OH258507   3.023   1.033  13.364 -0.1624 -0.3134 -0.1395
12339TIP3    H158508   3.109   1.052  13.402 -0.0070  0.3998 -0.8500
12339TIP3    H258509   3.022   0.938  13.355 -0.1090 -0.4899  1.4399
12340TIP3   OH258510   0.899   4.227  15.366  0.3578  0.2703 -0.0098
12340TIP3    H158511   0.974   4.190  15.412 -0.5803  0.9633  2.1430
12340TIP3    H258512   0.866   4.296  15.424 -1.5648  0.4065 -1.2033
12341TIP3   OH258513   6.494   0.723  13.206 -0.0385  0.0067 -0.6066
12341TIP3    H158514   6.488   0.685  13.118 -1.3520  1.0941 -1.0044
12341TIP3    H258515   6.437   0.800  13.202 -0.2101 -0.0181  1.2421
12342TIP3   OH258516   1.783   0.418   2.371 -0.2188  0.3247  0.9984
12342TIP3    H158517   1.796   0.380   2.458 -2.9826  0.4920  1.5126
12342TIP3    H258518   1.707   0.371   2.335 -0.9977  2.3603 -0.0856
12343TIP3   OH258519   3.447   0.835   1.240 -0.1563  0.2416 -0.0847
12343TIP3    H158520   3.530   0.859   1.198  0.2294  0.2131  0.6515
12343TIP3    H258521   3.385   0.825   1.168  0.8655 -1.2814 -0.7833
12344TIP3   OH258522   2.336   6.575  16.340  0.0062  0.0750  0.1757
12344TIP3    H158523   2.299   6.488  16.326 -0.7274  0.7343 -2.2630
12344TIP3    H258524   2.267   6.635  16.310  0.6916  1.4772  1.3570
12345TIP3   OH258525   2.485   1.230   1.040  0.4577  0.6057  0.2820
12345TIP3    H158526   2.476   1.246   1.133  1.8932 -1.5006  0.8158
12345TIP3    H258527   2.553   1.291   1.011  1.4290 -0.1029  1.0283
12346TIP3   OH258528   5.963   4.781  14.663  0.2946 -0.1843  0.0537
12346TIP3    H158529   5.986   4.801  14.754 -0.1583  1.1282 -0.1127
12346TIP3    H258530   5.872   4.809  14.655  0.5704  0.4311 -1.0127
12347TIP3   OH258531   3.391   2.447  12.194 -0.1219 -0.0747 -0.1605
12347TIP3    H158532   3.336   2.524  12.213  0.5561  0.5831 -0.8038
12347TIP3    H258533   3.474   2.484  12.164  0.2176 -1.0673 -0.4653
12348TIP3   OH258534   0.966   4.670   0.730  0.2876 -0.5978  0.2242
12348TIP3    H158535   0.960   4.724   0.809 -0.9967  2.0300 -1.5822
12348TIP3    H258536   0.877   4.671   0.694  1.0465 -1.0090 -1.7138
12349TIP3   OH258537   5.198   1.715  11.931  0.1183 -0.1162 -0.4182
12349TIP3    H158538   5.178   1.678  12.016 -0.5624 -0.4766 -0.7289
12349TIP3    H258539   5.118   1.762  11.905  0.5980  0.6750 -0.4996
12350TIP3   OH258540   1.954   3.715   3.242 -0.5116 -0.2826 -0.1331
12350TIP3    H158541   1.928   3.765   3.318  0.3349 -0.1808  0.0915
12350TIP3    H258542   2.031   3.760   3.208  1.9122 -2.9446  1.6525
12351TIP3   OH258543   2.124   2.831   0.616 -0.2818  0.3940  0.1204
12351TIP3    H158544   2.071   2.811   0.539 -0.5680  1.5878  0.0102
12351TIP3    H258545   2.072   2.893   0.667 -0.5266 -1.0930  1.7756
12352TIP3   OH258546   0.648   4.755  15.934 -0.2859  0.3503  0.1306
12352TIP3    H158547   0.697   4.673  15.927 -1.3828 -0.3878  0.9355
12352TIP3    H258548   0.671   4.804  15.855  0.0567 -0.9113 -0.5593
12353TIP3   OH258549   5.060   0.661   5.548 -0.5738 -0.0639 -0.8597
12353TIP3    H158550   5.151   0.631   5.554 -0.5135  0.0097 -1.3518
12353TIP3    H258551   5.011   0.603   5.605 -0.2872 -0.4071 -0.9649
12354TIP3   OH258552   3.530   6.569  16.256  0.6368  0.1190  0.3787
12354TIP3    H158553   3.565   6.657  16.274 -0.5442  0.6647  0.0731
12354TIP3    H258554   3.496   6.575  16.167  0.7103 -0.7129  0.2942
12355TIP3   OH258555   4.191   6.359  14.399 -0.4314  0.4541 -0.4679
12355TIP3    H158556   4.177   6.336  14.491 -2.6437  1.1768 -0.5887
12355TIP3    H258557   4.180   6.454  14.396 -1.1845  0.3506 -1.5925
12356TIP3   OH258558   0.504   5.583   2.478 -0.0376 -0.5498  0.4309
12356TIP3    H158559   0.579   5.641   2.487 -0.8696  0.3891  1.5461
12356TIP3    H258560   0.541   5.495   2.483  1.0331 -0.1040  0.5550
12357TIP3   OH258561   2.744   3.773  15.154 -0.5632 -0.2927 -0.1951
12357TIP3    H158562   2.838   3.757  15.163 -0.2848  1.3252 -0.0396
12357TIP3    H258563   2.703   3.690  15.178  0.7998 -0.7257  0.6958
12358TIP3   OH258564   5.633   4.959  15.428  0.0552  0.1309 -0.0979
12358TIP3    H158565   5.630   5.048  15.463  0.1134  0.4724 -0.9458
12358TIP3    H258566   5.725   4.934  15.432  0.2456  0.6523 -1.1954
12359TIP3   OH258567   5.295   3.881  12.863 -0.0026  0.3608  0.4744
12359TIP3    H158568   5.389   3.873  12.847 -0.3830  0.9025 -2.3450
12359TIP3    H258569   5.265   3.791  12.877  0.3813 -0.2141 -2.1781
12360TIP3   OH258570   2.384   3.639  15.359 -0.2927  0.2145  0.4075
12360TIP3    H158571   2.475   3.648  15.388 -0.3282  1.6876  0.1256
12360TIP3    H258572   2.354   3.557  15.398  0.8924  0.1504  1.2155
12361TIP3   OH258573   2.663   1.603   2.304  0.1389  0.5496 -0.0842
12361TIP3    H158574   2.737   1.597   2.244  0.6072  0.9038  0.4529
12361TIP3    H258575   2.688   1.548   2.379 -1.0354 -1.0269 -0.8176
12362TIP3   OH258576   2.459   4.841  11.376  0.4690  0.2479  0.0697
12362TIP3    H158577   2.404   4.862  11.451  0.8157  2.7027 -0.3206
12362TIP3    H258578   2.459   4.921  11.323  1.7054 -0.8303 -1.6130
12363TIP3   OH258579   3.243   4.177   0.496 -0.0762  0.3618  0.1591
12363TIP3    H158580   3.176   4.117   0.529  2.7321 -2.1630  1.4173
12363TIP3    H258581   3.270   4.227   0.573  1.3115 -0.4331  0.1901
12364TIP3   OH258582   5.056   6.266   2.550  1.3113  0.2019 -0.7619
12364TIP3    H158583   5.047   6.338   2.612  0.7520 -1.3911  1.0144
12364TIP3    H258584   5.058   6.309   2.464 -1.4615  2.1512  0.1106
12365TIP3   OH258585   4.943   5.745   4.870 -0.4425  0.3092  0.0512
12365TIP3    H158586   4.991   5.672   4.833  0.3257  0.6239  0.4021
12365TIP3    H258587   5.006   5.817   4.871 -0.8420  0.6561  0.7580
12366TIP3   OH258588   0.964   5.702   6.779 -0.2831 -0.2399 -0.1604
12366TIP3    H158589   1.045   5.720   6.826  1.0533  1.8858 -3.1083
12366TIP3    H258590   0.896   5.700   6.847  1.6094  2.4347  1.8807
12367TIP3   OH258591   2.326   0.701  15.334 -0.1463  0.4731 -0.7944
12367TIP3    H158592   2.361   0.650  15.406 -1.8400  0.0354 -0.2677
12367TIP3    H258593   2.404   0.734  15.288  0.9545  1.7818  1.9235
12368TIP3   OH258594   5.222   5.695  16.052  0.2390  0.0198  0.3933
12368TIP3    H158595   5.127   5.684  16.053  0.4400 -2.6069 -1.8340
12368TIP3    H258596   5.254   5.642  16.126  0.1796 -2.5735 -1.3562
12369TIP3   OH258597   6.328   5.096   3.062 -0.2292 -0.2529  1.1053
12369TIP3    H158598   6.367   5.156   2.998 -0.1581 -0.0898  1.3021
12369TIP3    H258599   6.387   5.098   3.136 -0.4977 -0.1770  1.3171
12370TIP3   OH258600   3.879   3.418   0.534  0.5107 -0.1444  0.2216
12370TIP3    H158601   3.904   3.332   0.501 -1.1666 -0.8683  0.7624
12370TIP3    H258602   3.807   3.445   0.478  0.5824  0.6111  0.4912
12371TIP3   OH258603   1.221   1.285  13.068  0.5419  0.3299  0.1372
12371TIP3    H158604   1.316   1.276  13.065  0.7111  2.0762 -0.1887
12371TIP3    H258605   1.205   1.346  13.141 -0.1136  2.5001 -1.7674
12372TIP3   OH258606   3.772   0.267  13.340  0.1452 -0.4697 -0.5515
12372TIP3    H158607   3.745   0.238  13.253 -1.6701  0.9738 -0.5100
12372TIP3    H258608   3.820   0.193  13.376  0.4197 -1.3167 -2.5452
12373TIP3   OH258609   3.022   3.344   2.742 -0.3332 -0.4940 -0.4501
12373TIP3    H158610   3.053   3.309   2.825 -0.2219 -0.6362 -0.5499
12373TIP3    H258611   3.023   3.439   2.753 -1.7167 -0.5539  0.2103
12374TIP3   OH258612   5.139   3.191   2.600  0.0358  0.8867 -0.2268
12374TIP3    H158613   5.071   3.162   2.661  0.5436  1.3549  0.5725
12374TIP3    H258614   5.115   3.281   2.579 -0.9344  0.2578 -1.8525
12375TIP3   OH258615   5.465   2.462   5.989  0.0639 -0.0154 -0.3233
12375TIP3    H158616   5.380   2.506   5.986  0.6527  1.2304  0.9619
12375TIP3    H258617   5.450   2.385   6.045 -0.4692 -0.3824 -0.9605
12376TIP3   OH258618   6.656   3.841  16.742  0.2367 -0.5855 -0.4321
12376TIP3    H158619   6.641   3.867  16.651 -1.7557 -0.5244 -0.1151
12376TIP3    H258620   6.605   3.760  16.752 -0.0409 -0.2726  0.7792
12377TIP3   OH258621   5.516   6.301   4.481  0.1633  0.7913 -0.1123
12377TIP3    H158622   5.591   6.341   4.438 -0.2740  2.1263  0.3240
12377TIP3    H258623   5.493   6.226   4.426  1.2074  0.9442 -0.7690
12378TIP3   OH258624   0.812   4.065   0.187 -0.9687 -0.1689 -0.1152
12378TIP3    H158625   0.855   3.997   0.239 -1.3990 -0.0611  0.3841
12378TIP3    H258626   0.880   4.095   0.126 -0.2046  0.2791  0.9347
12379TIP3   OH258627   3.650   1.549  13.702 -0.3511 -0.0955  0.0627
12379TIP3    H158628   3.580   1.525  13.642 -0.5568 -0.4184  0.4315
12379TIP3    H258629   3.673   1.467  13.746  0.2712  0.0037 -0.0737
12380TIP3   OH258630   4.907   0.555  16.512  0.1441  0.1592 -0.0759
12380TIP3    H158631   4.971   0.487  16.530  2.1115  1.7439 -0.8784
12380TIP3    H258632   4.932   0.627  16.570 -2.7403 -0.2494  1.7614
12381TIP3   OH258633   3.860   4.631   4.324  0.4207  0.0735 -0.4603
12381TIP3    H158634   3.795   4.608   4.390  0.2815 -2.8773 -1.5857
12381TIP3    H258635   3.816   4.618   4.240  1.1108  2.2050 -1.1943
12382TIP3   OH258636   5.510   5.469  15.126  0.4067 -0.3695 -0.7101
12382TIP3    H158637   5.434   5.450  15.181  0.4671  0.6037 -0.2868
12382TIP3    H258638   5.478   5.531  15.060  0.2102 -1.9140 -2.0997
12383TIP3   OH258639   4.644   2.461  13.157 -0.2315 -0.4395  0.6272
12383TIP3    H158640   4.702   2.388  13.180  0.0765 -0.2745  0.3695
12383TIP3    H258641   4.700   2.523  13.111 -0.6669 -0.3986  0.1454
12384TIP3   OH258642   4.076   2.419  15.348 -0.9088  0.2572 -0.4939
12384TIP3    H158643   4.106   2.334  15.381 -1.3952  1.3659  3.0660
12384TIP3    H258644   3.985   2.404  15.323 -1.2659 -0.1133  0.9523
12385TIP3   OH258645   3.368   4.101  11.304 -0.2861  0.0566 -0.0043
12385TIP3    H158646   3.365   4.037  11.375  0.6739 -0.4576 -0.4023
12385TIP3    H258647   3.399   4.182  11.345  0.5511 -0.3204  0.1130
12386TIP3   OH258648   5.875   4.406  11.281  0.4292  0.0351  0.6336
12386TIP3    H158649   5.862   4.480  11.221  0.2610 -0.1501  0.4433
12386TIP3    H258650   5.912   4.337  11.227 -0.2856 -0.3376  0.6113
12387TIP3   OH258651   4.615   1.058   5.085 -0.1140  0.0468 -0.5497
12387TIP3    H158652   4.672   1.098   5.019  1.1695 -0.3652  0.3005
12387TIP3    H258653   4.666   1.061   5.166 -1.8908  1.0590  0.5608
12388TIP3   OH258654   6.705   4.470  14.618 -0.1654 -0.0293 -0.3085
12388TIP3    H158655   6.640   4.414  14.575 -0.2483 -1.7587  1.9780
12388TIP3    H258656   6.788   4.444  14.579 -0.2266 -1.6840  0.5969
12389TIP3   OH258657   5.290   0.243  10.851  0.4536 -0.0921 -0.7818
12389TIP3    H158658   5.224   0.174  10.841 -0.2450  0.4827 -0.1987
12389TIP3    H258659   5.247   0.310  10.904  1.0810  0.8442 -1.4326
12390TIP3   OH258660   1.096   5.899   6.424 -0.0178  0.0239  0.2118
12390TIP3    H158661   1.028   5.843   6.462 -1.0166  1.4829  0.5924
12390TIP3    H258662   1.169   5.893   6.486  0.2782 -1.6530 -0.2672
12391TIP3   OH258663   3.007   1.292  16.732 -0.5494 -0.2707  0.1963
12391TIP3    H158664   2.961   1.270  16.651 -0.6176 -1.1390  0.4633
12391TIP3    H258665   3.047   1.377  16.714 -0.1730 -0.6679 -0.9159
12392TIP3   OH258666   5.685   5.398   4.498  0.1152  0.9207  0.4151
12392TIP3    H158667   5.754   5.340   4.468  0.9305  0.9439  2.2197
12392TIP3    H258668   5.678   5.465   4.429  0.6312 -0.0988 -0.6341
12393TIP3   OH258669   5.072   4.627   5.794 -0.1547  0.5470 -0.5782
12393TIP3    H158670   5.036   4.564   5.857 -1.1980 -0.1062 -1.8104
12393TIP3    H258671   4.995   4.670   5.757  0.4953  1.4750 -0.8616
12394TIP3   OH258672   2.224   3.205  14.964  0.1321  0.2876  0.4245
12394TIP3    H158673   2.180   3.129  15.000  0.1167 -0.0024 -0.1950
12394TIP3    H258674   2.242   3.261  15.040 -1.9406  0.7632  0.5960
12395TIP3   OH258675   2.806   0.073  13.283 -0.1642  0.3389  0.8746
12395TIP3    H158676   2.893   0.035  13.268 -0.5790 -0.0632 -0.5857
12395TIP3    H258677   2.779   0.104  13.197 -2.5163 -1.7196  0.8416
12396TIP3   OH258678   4.625   1.871   3.814  0.4952 -0.6542  0.0519
12396TIP3    H158679   4.605   1.851   3.722 -0.6657 -1.4367  0.4717
12396TIP3    H258680   4.645   1.786   3.853 -0.5694 -0.5267  0.8976
12397TIP3   OH258681   3.211   4.409   2.071  0.4193 -0.4519  0.9470
12397TIP3    H158682   3.250   4.413   2.158 -0.9941  1.0690  1.5264
12397TIP3    H258683   3.126   4.368   2.084  0.6120 -1.1329  0.1250
12398TIP3   OH258684   5.579   5.743   3.626  0.1035  0.1403  0.2757
12398TIP3    H158685   5.600   5.828   3.664  2.0428  0.2927 -1.0711
12398TIP3    H258686   5.500   5.760   3.573  0.7443  1.2167 -0.3624
12399TIP3   OH258687   3.998   3.492  12.569  0.0265 -0.5461  0.3410
12399TIP3    H158688   4.061   3.498  12.641  1.2891  0.3455 -0.8374
12399TIP3    H258689   3.957   3.579  12.566  1.3864  0.0462 -1.2934
12400TIP3   OH258690   2.215   0.760  17.048  0.1273 -0.2201  0.0154
12400TIP3    H158691   2.129   0.719  17.056  0.6479 -1.2412  0.3716
12400TIP3    H258692   2.275   0.699  17.088  0.9414  0.8261  0.4145
12401TIP3   OH258693   5.841   5.848   6.149  0.4642  0.0080  0.2780
12401TIP3    H158694   5.809   5.790   6.218  0.0004  0.3527  0.3523
12401TIP3    H258695   5.908   5.901   6.191 -2.8629  3.3047  1.6588
12402TIP3   OH258696   0.387   6.365   0.494 -0.3708  0.2835 -0.4980
12402TIP3    H158697   0.392   6.271   0.475  0.9123  0.7659 -2.7546
12402TIP3    H258698   0.478   6.393   0.499 -0.7396  1.3150  0.8300
12403TIP3   OH258699   1.309   3.299   1.381 -0.1939 -0.2754  0.0904
12403TIP3    H158700   1.377   3.366   1.390  0.7156 -1.2905  0.8302
12403TIP3    H258701   1.274   3.312   1.293  0.1821  0.9818  0.1198
12404TIP3   OH258702   2.122   5.897   1.458  0.0927  0.2903  0.5282
12404TIP3    H158703   2.060   5.847   1.512 -0.9630  1.2731  0.2431
12404TIP3    H258704   2.169   5.831   1.409 -1.6396 -0.4280 -0.2174
12405TIP3   OH258705   2.799   6.173   6.814  0.1522  0.1294  0.1534
12405TIP3    H158706   2.812   6.237   6.744  0.5690  0.3421  0.4265
12405TIP3    H258707   2.762   6.223   6.886 -0.0883 -0.0546  0.1605
12406TIP3   OH258708   3.099   3.448   0.575 -0.4426  0.0780 -0.1992
12406TIP3    H158709   3.113   3.439   0.480  0.3149  1.1714 -0.2012
12406TIP3    H258710   3.024   3.391   0.593  0.3405 -1.3140 -1.1992
12407TIP3   OH258711   4.801   5.949   0.387  0.3255  0.3900  0.3042
12407TIP3    H158712   4.737   5.917   0.323 -1.2452 -0.9125  2.4493
12407TIP3    H258713   4.811   5.876   0.448  2.7385  1.1534  0.8486
12408TIP3   OH258714   0.090   5.037  13.054 -0.0612  0.1964 -0.1465
12408TIP3    H158715   0.144   4.966  13.021  0.6016  0.2287  0.8630
12408TIP3    H258716   0.124   5.115  13.011  1.0261  0.2877  0.8675
12409TIP3   OH258717   2.184   4.632  12.929 -0.1986  0.6962  0.0820
12409TIP3    H158718   2.155   4.657  12.841  0.3244  0.7685 -0.0695
12409TIP3    H258719   2.120   4.566  12.957 -1.1437  1.6347  0.1818
12410TIP3   OH258720   2.244   0.573  14.009 -0.0730  0.2057  0.5743
12410TIP3    H158721   2.305   0.597  13.938 -1.3089  2.5537  0.2496
12410TIP3    H258722   2.166   0.541  13.963  0.0291 -0.5819  0.9441
12411TIP3   OH258723   6.548   1.693   6.019 -0.5369  0.3946 -0.4384
12411TIP3    H158724   6.589   1.629   6.078 -0.3970  1.0418  0.1668
12411TIP3    H258725   6.497   1.749   6.076 -1.1834  0.4315 -1.0491
12412TIP3   OH258726   3.319   3.635  12.513 -0.6134  0.6696 -0.8298
12412TIP3    H158727   3.371   3.619  12.592  0.6481  2.2490 -1.3268
12412TIP3    H258728   3.359   3.580  12.446  0.7130  2.2316 -1.3274
12413TIP3   OH258729   6.703   4.616   1.803  0.3409 -0.6461  0.2635
12413TIP3    H158730   6.757   4.686   1.767  0.1999  0.4037  2.0564
12413TIP3    H258731   6.766   4.550   1.832  0.7107  0.6096  2.4209
12414TIP3   OH258732   2.678   6.137  13.077  0.4853  0.2891  0.3914
12414TIP3    H158733   2.749   6.127  13.141  0.2082 -1.0999  0.5099
12414TIP3    H258734   2.628   6.055  13.085 -0.4241  0.7468 -0.5467
12415TIP3   OH258735   0.850   2.230  16.336  0.2343 -0.1918 -0.2592
12415TIP3    H158736   0.820   2.142  16.357  1.2923 -0.4098  0.3528
12415TIP3    H258737   0.944   2.229  16.355 -0.2620  1.9168  2.6317
12416TIP3   OH258738   3.520   2.687  14.035  0.0253 -0.7327 -0.5786
12416TIP3    H158739   3.588   2.625  14.009  0.7251 -0.4364  0.5088
12416TIP3    H258740   3.500   2.736  13.955  0.1527 -1.7023 -1.2091
12417TIP3   OH258741   4.822   3.115   2.032  0.1319 -0.1287  0.3184
12417TIP3    H158742   4.839   3.154   2.118 -0.6033 -0.7482  0.7609
12417TIP3    H258743   4.732   3.083   2.038 -0.3153  0.8389 -1.0889
12418TIP3   OH258744   2.834   0.138   5.267  0.1444  0.1669  0.1069
12418TIP3    H158745   2.850   0.063   5.324 -2.0142 -2.4342 -2.5017
12418TIP3    H258746   2.741   0.157   5.279  0.2230  1.1348 -0.7614
12419TIP3   OH258747   0.442   3.397  13.919 -0.3353 -0.5523  0.6650
12419TIP3    H158748   0.385   3.366  13.848  2.0825  1.4703 -2.3043
12419TIP3    H258749   0.507   3.327  13.929 -0.7737 -0.9132  1.0409
12420TIP3   OH258750   3.631   1.098   1.317 -0.5186 -0.4076 -0.1892
12420TIP3    H158751   3.664   1.184   1.342 -1.2879 -0.4360  1.0296
12420TIP3    H258752   3.659   1.085   1.227  2.7676 -0.4530  0.7958
12421TIP3   OH258753   1.133   6.052   2.696 -0.0310 -0.1711  0.9533
12421TIP3    H158754   1.141   5.977   2.756  0.2507 -1.2891 -0.4553
12421TIP3    H258755   1.103   6.123   2.752  1.6839 -0.7789  2.7293
12422TIP3   OH258756   6.696   1.214   2.595  0.1403 -0.1756  0.1504
12422TIP3    H158757   6.754   1.212   2.518 -1.7428 -1.2269 -1.2596
12422TIP3    H258758   6.615   1.174   2.566 -0.4278 -1.1459  2.8789
12423TIP3   OH258759   0.572   6.294   5.103  0.1478 -0.1549  0.1104
12423TIP3    H158760   0.502   6.357   5.119  0.0482 -1.0354  3.4190
12423TIP3    H258761   0.527   6.214   5.077 -0.0846 -0.6623  2.0373
12424TIP3   OH258762   2.256   6.449   6.261  0.0459  0.0273 -0.5713
12424TIP3    H158763   2.268   6.424   6.352 -0.6930 -1.0961 -0.7737
12424TIP3    H258764   2.211   6.534   6.265 -2.5899 -1.3416  0.1367
12425TIP3   OH258765   6.275   4.185   5.630  0.7552 -0.2858  0.2061
12425TIP3    H158766   6.297   4.098   5.599 -1.4916 -0.5606 -0.7174
12425TIP3    H258767   6.344   4.207   5.692  2.3484 -1.9513 -0.9480
12426TIP3   OH258768   3.404   2.312   1.153 -0.0783 -0.1871 -0.6274
12426TIP3    H158769   3.352   2.392   1.142  1.4324  0.7769 -0.8961
12426TIP3    H258770   3.481   2.326   1.098  1.5423 -0.6376  1.4736
12427TIP3   OH258771   4.826   4.945  14.980  0.2633 -0.1261  0.3838
12427TIP3    H158772   4.894   5.012  14.990  1.0839 -0.8556 -0.2235
12427TIP3    H258773   4.813   4.939  14.885  1.4103 -2.0068  0.3167
12428TIP3   OH258774   6.051   5.626  14.889  0.0598 -0.2139 -0.3192
12428TIP3    H158775   5.981   5.681  14.924  0.7115  0.4977 -0.1272
12428TIP3    H258776   6.064   5.659  14.800  0.8963  0.3872  0.0147
12429TIP3   OH258777   2.768   0.036  13.910 -0.0941 -0.8871 -0.2224
12429TIP3    H158778   2.735  -0.043  13.869 -0.3824  0.1765 -2.1180
12429TIP3    H258779   2.701   0.103  13.891  1.0296  0.2437 -0.2864
12430TIP3   OH258780   1.945   3.030  11.518 -0.1394  1.0309 -0.2370
12430TIP3    H158781   1.915   3.111  11.478  0.1736  2.3183  2.1036
12430TIP3    H258782   1.893   3.021  11.598  2.0703  0.6044  1.1944
12431TIP3   OH258783   5.453   6.212  12.785 -0.3307  0.1187 -0.0367
12431TIP3    H158784   5.380   6.253  12.830  0.8739  2.5718 -0.2572
12431TIP3    H258785   5.428   6.214  12.692 -0.1699  0.5929 -0.0715
12432TIP3   OH258786   5.763   5.063   4.415  0.3276 -0.3488 -0.0098
12432TIP3    H158787   5.798   5.152   4.419 -0.3948 -0.0325 -0.5340
12432TIP3    H258788   5.832   5.008   4.452  0.8144  0.4179  0.2349
12433TIP3   OH258789   5.054   3.881   3.455 -0.2022  0.0794 -0.2584
12433TIP3    H158790   4.970   3.909   3.492 -0.3246  1.9854 -1.9275
12433TIP3    H258791   5.060   3.787   3.477 -1.2843  0.6207  2.6218
12434TIP3   OH258792   3.104   2.396   2.311 -0.2139 -0.4172  0.1100
12434TIP3    H158793   3.199   2.386   2.317 -0.0960  0.7982  0.4681
12434TIP3    H258794   3.073   2.314   2.273  1.1173 -0.2410 -1.3677
12435TIP3   OH258795   4.066   5.936   1.942 -0.0824  0.0029 -0.5168
12435TIP3    H158796   4.090   5.989   2.017  1.5475  0.0515 -1.0494
12435TIP3    H258797   4.150   5.910   1.903 -0.8438 -2.1511 -0.8214
12436TIP3   OH258798   3.144   2.187   0.585  0.1824  0.0726  0.1958
12436TIP3    H158799   3.232   2.223   0.597  0.5538 -0.7161 -0.1300
12436TIP3    H258800   3.088   2.264   0.579  0.6841  0.5649  1.5826
12437TIP3   OH258801   3.267   4.252  16.940 -0.0457  0.1034  0.6854
12437TIP3    H158802   3.287   4.333  16.986  3.0504 -0.5181  0.4933
12437TIP3    H258803   3.285   4.272  16.848 -0.0738 -0.5458  0.5346
12438TIP3   OH258804   4.287   4.614   0.429  0.0089 -0.1844  0.4295
12438TIP3    H158805   4.199   4.627   0.463  0.1151  0.4969  0.4466
12438TIP3    H258806   4.336   4.579   0.504 -0.4134 -1.2379  0.2266
12439TIP3   OH258807   0.408   3.442  13.138  0.1782  0.6648  0.1964
12439TIP3    H158808   0.469   3.514  13.117 -0.9278  2.2402  2.2074
12439TIP3    H258809   0.341   3.447  13.069 -0.0500  1.7656  0.4821
12440TIP3   OH258810   5.537   1.682   2.450 -0.1861  0.3482 -0.1422
12440TIP3    H158811   5.568   1.692   2.540 -0.0810 -0.6886 -0.0655
12440TIP3    H258812   5.468   1.748   2.442  0.8042  1.4686  0.2270
12441TIP3   OH258813   5.122   6.492  15.713  0.1564 -0.5639  0.0751
12441TIP3    H158814   5.047   6.530  15.759 -1.1663 -1.2904 -1.4289
12441TIP3    H258815   5.198   6.519  15.764 -1.1187  0.3321  1.5330
12442TIP3   OH258816   6.151   6.628  13.118 -0.0884  0.7700  0.7359
12442TIP3    H158817   6.226   6.652  13.173 -0.0115  1.1292  0.4806
12442TIP3    H258818   6.183   6.557  13.063  0.1811  1.1751  0.3642
12443TIP3   OH258819   6.105   2.457   0.301 -0.1730  0.7203  0.5868
12443TIP3    H158820   6.191   2.427   0.333  0.0876  1.5861  0.7254
12443TIP3    H258821   6.077   2.389   0.240  1.5601  1.4133 -1.0458
12444TIP3   OH258822   2.732   6.810   6.112  0.1149  0.4414 -0.1756
12444TIP3    H158823   2.788   6.748   6.066 -0.1233  0.6948 -0.8246
12444TIP3    H258824   2.788   6.886   6.128  0.3421  0.1522  0.4160
12445TIP3   OH258825   3.856   3.430   1.167  0.3601  0.3120 -0.3013
12445TIP3    H158826   3.805   3.416   1.088 -1.3443 -2.5061  1.2114
12445TIP3    H258827   3.946   3.442   1.137 -0.3114 -0.3725 -2.6387
12446TIP3   OH258828   0.090   3.722  14.126  0.1307  0.4927  0.2210
12446TIP3    H158829   0.182   3.748  14.118  0.4080  0.4096  2.8252
12446TIP3    H258830   0.059   3.718  14.036  2.8610 -0.1146 -0.7546
12447TIP3   OH258831   4.134   2.819  10.858 -0.2299  0.4062 -0.3002
12447TIP3    H158832   4.181   2.774  10.927 -0.5095 -0.6899 -0.8122
12447TIP3    H258833   4.101   2.899  10.899  0.1944  0.0994  0.6406
12448TIP3   OH258834   1.486   4.891   3.426  0.6488 -0.2930  0.1520
12448TIP3    H158835   1.469   4.813   3.373  2.7844 -0.5246 -0.2383
12448TIP3    H258836   1.581   4.891   3.439  0.5113  1.4707  1.3578
12449TIP3   OH258837   4.490   3.596  14.267  0.8585  0.1164 -0.1433
12449TIP3    H158838   4.568   3.649  14.280  2.5262 -2.2106 -0.2819
12449TIP3    H258839   4.519   3.506  14.284 -1.6260 -0.8613 -0.8286
12450TIP3   OH258840   2.444   5.793  11.837 -0.0999 -0.5152  0.0959
12450TIP3    H158841   2.487   5.710  11.817  0.4304 -0.1082 -0.4654
12450TIP3    H258842   2.481   5.818  11.922  0.9419 -0.0670 -0.4757
12451TIP3   OH258843   2.924   1.221  11.424  0.1599  0.4429  0.5576
12451TIP3    H158844   2.848   1.277  11.407 -0.1255  0.0832  0.6505
12451TIP3    H258845   2.893   1.156  11.487 -0.0339 -0.9289 -0.9155
12452TIP3   OH258846   3.092   0.391  13.713  0.6011  0.0977 -0.4206
12452TIP3    H158847   2.998   0.402  13.726  0.7081  0.3433  0.1580
12452TIP3    H258848   3.116   0.316  13.767  0.9602  0.8180  0.4414
12453TIP3   OH258849   3.642   5.588  14.509 -0.2738  0.2645 -0.3135
12453TIP3    H158850   3.611   5.676  14.532  0.9571  0.9298 -1.1497
12453TIP3    H258851   3.718   5.603  14.454 -0.8774 -1.3332 -1.6392
12454TIP3   OH258852   0.780   1.929  14.424 -0.3246 -0.1101 -0.0744
12454TIP3    H158853   0.738   1.901  14.343 -0.6038 -1.9262  0.6930
12454TIP3    H258854   0.872   1.941  14.399 -0.7187  1.0826 -1.0586
12455TIP3   OH258855   2.241   0.070   3.338 -0.1712 -0.3948  0.1467
12455TIP3    H158856   2.212   0.157   3.365 -1.0975  0.1518 -2.4354
12455TIP3    H258857   2.172   0.039   3.279 -0.2081 -3.1935  1.5668
12456TIP3   OH258858   4.259   2.166   6.013  0.3560 -0.2206 -0.1250
12456TIP3    H158859   4.301   2.131   6.092  1.3587  0.1340 -0.4920
12456TIP3    H258860   4.299   2.252   6.000 -1.3972  0.6722  0.2217
12457TIP3   OH258861   1.515   2.172  12.925  0.2078 -0.0816 -0.1932
12457TIP3    H158862   1.448   2.216  12.977 -0.5956 -0.6803 -0.7086
12457TIP3    H258863   1.592   2.169  12.983 -1.5899 -3.5734  2.2720
12458TIP3   OH258864   1.337   6.799   2.185  0.4599 -0.4253 -0.4715
12458TIP3    H158865   1.412   6.768   2.135  1.3980  1.3260 -0.1823
12458TIP3    H258866   1.368   6.800   2.276 -0.5300 -1.4915 -0.1061
12459TIP3   OH258867   2.682   1.354  12.216 -0.0946 -0.1868 -0.3173
12459TIP3    H158868   2.755   1.341  12.155 -0.2647 -0.1942 -0.5190
12459TIP3    H258869   2.605   1.359  12.160 -0.0343  1.7525 -0.2675
12460TIP3   OH258870   5.457   1.962  15.299  0.3470  0.6965  0.0609
12460TIP3    H158871   5.398   1.901  15.342  0.8001 -1.3081 -2.0358
12460TIP3    H258872   5.543   1.942  15.335  0.7087 -0.9064 -1.5664
12461TIP3   OH258873   6.333   6.328  13.115  0.0879 -0.7840  0.0774
12461TIP3    H158874   6.342   6.236  13.138 -0.3206 -0.5928  1.0289
12461TIP3    H258875   6.332   6.329  13.019 -1.7722 -1.9566  0.0734
12462TIP3   OH258876   3.174   4.350  16.132 -0.0639 -0.6393  0.0048
12462TIP3    H158877   3.166   4.434  16.087 -0.7561 -1.8537 -2.1815
12462TIP3    H258878   3.263   4.349  16.166 -0.6054  1.7556  1.6924
12463TIP3   OH258879   2.121   2.135   1.732 -0.1190 -0.4160 -0.1868
12463TIP3    H158880   2.040   2.099   1.768 -1.7941  1.0216 -2.3913
12463TIP3    H258881   2.125   2.224   1.768  0.9838 -0.7879  0.6415
12464TIP3   OH258882   4.238   6.450   6.118 -0.0872  0.3924  0.1307
12464TIP3    H158883   4.162   6.444   6.060 -0.6337  1.6349  0.6863
12464TIP3    H258884   4.207   6.419   6.202  0.4678 -0.5984 -0.0271
12465TIP3   OH258885   3.096   6.520  15.661  0.3913  0.1346  0.4936
12465TIP3    H158886   3.089   6.465  15.739  3.5882  0.1163  0.8335
12465TIP3    H258887   3.152   6.471  15.601 -2.4618 -0.0900 -2.0913
12466TIP3   OH258888   5.520   4.715   0.983 -0.0592  0.3237 -0.5733
12466TIP3    H158889   5.586   4.782   0.966  1.1539  0.0529  2.6771
12466TIP3    H258890   5.528   4.654   0.910  1.1279  1.9503 -1.8357
12467TIP3   OH258891   4.336   5.273  13.034  0.0391 -0.6221 -0.0943
12467TIP3    H158892   4.367   5.361  13.056  1.2259 -0.6860 -1.3996
12467TIP3    H258893   4.266   5.288  12.970 -0.7870 -0.5756  0.8162
12468TIP3   OH258894   3.088   5.990   4.215 -0.1775 -0.2047  0.5366
12468TIP3    H158895   3.148   6.012   4.143  0.8041 -0.0612  1.3895
12468TIP3    H258896   3.107   6.055   4.283 -0.5030 -0.8572  1.2597
12469TIP3   OH258897   5.560   6.153   1.118 -0.0478 -0.1366  0.2212
12469TIP3    H158898   5.503   6.093   1.069 -1.6110  1.6501 -0.2221
12469TIP3    H258899   5.509   6.178   1.195  0.8819  0.0622  0.7844
12470TIP3   OH258900   3.123   5.229  13.173 -0.2955 -0.4702  0.1525
12470TIP3    H158901   3.150   5.137  13.176  0.6327 -0.1948  0.1941
12470TIP3    H258902   3.042   5.231  13.223 -0.1236 -1.2017  0.4678
12471TIP3   OH258903   0.078   2.850   6.433  0.3566  0.4309 -0.5841
12471TIP3    H158904   0.153   2.908   6.420  0.9166 -0.0691  0.3114
12471TIP3    H258905   0.016   2.902   6.483  0.2873  0.7037 -0.9526
12472TIP3   OH258906   4.052   5.597   3.202 -0.1966  0.1419  0.2536
12472TIP3    H158907   4.070   5.622   3.293 -2.1214  2.6288 -0.0043
12472TIP3    H258908   3.960   5.572   3.201 -0.4473  1.0857 -1.2216
12473TIP3   OH258909   5.517   6.213  13.573 -0.6269 -0.0504  0.6243
12473TIP3    H158910   5.503   6.186  13.482 -1.2804  1.3578  0.2893
12473TIP3    H258911   5.499   6.307  13.572  4.2562  1.0000  1.1783
12474TIP3   OH258912   3.175   1.291  15.911 -0.2161 -0.1824 -0.2115
12474TIP3    H158913   3.097   1.347  15.913 -1.1644 -1.4744  0.4630
12474TIP3    H258914   3.163   1.237  15.833 -0.9954 -1.7290  0.9476
12475TIP3   OH258915   4.045   4.704   0.156  0.2587 -0.2806 -0.1575
12475TIP3    H158916   4.038   4.794   0.188  0.4505 -0.1674 -0.4372
12475TIP3    H258917   4.023   4.710   0.063  1.9699 -0.2551 -0.5710
12476TIP3   OH258918   2.392   3.183  13.567  0.3124  0.0517 -0.0927
12476TIP3    H158919   2.405   3.108  13.625 -0.0030  0.2740  0.2590
12476TIP3    H258920   2.349   3.249  13.621 -1.8275 -0.4725 -1.1137
12477TIP3   OH258921   0.751   5.254   0.659  0.0302  0.4560 -0.1971
12477TIP3    H158922   0.706   5.175   0.630 -0.6680  1.3714 -1.6248
12477TIP3    H258923   0.680   5.313   0.686  0.4348  1.4225 -1.2367
12478TIP3   OH258924   2.666   5.116   1.874  0.2115  0.2959 -0.3789
12478TIP3    H158925   2.581   5.159   1.864 -0.3904 -0.5371  1.0298
12478TIP3    H258926   2.673   5.058   1.799 -2.2992 -2.6703  1.5862
12479TIP3   OH258927   6.163   4.757  17.141  0.3541 -0.4491  0.6847
12479TIP3    H158928   6.165   4.829  17.079  1.8411 -1.1951 -0.1590
12479TIP3    H258929   6.154   4.678  17.087  0.3696 -1.0237  1.5000
12480TIP3   OH258930   5.944   4.109   2.875  0.1338  0.0398  0.4292
12480TIP3    H158931   5.965   4.080   2.964  1.0426  0.5699  0.3893
12480TIP3    H258932   5.911   4.031   2.832 -0.8271 -0.0954  1.3955
12481TIP3   OH258933   5.083   5.434   5.886 -0.0748  0.2015  0.4913
12481TIP3    H158934   5.040   5.479   5.814  0.0916 -3.6306 -2.1305
12481TIP3    H258935   5.176   5.449   5.873 -0.0904  0.1543  0.3282
12482TIP3   OH258936   4.579   6.144  12.870 -0.4590 -0.2293  0.7533
12482TIP3    H158937   4.623   6.079  12.924 -0.3634 -1.3491 -0.6245
12482TIP3    H258938   4.503   6.098  12.835 -1.0293  0.7613  0.6893
12483TIP3   OH258939   3.871   1.779  16.854  0.6817 -0.8373  0.0576
12483TIP3    H158940   3.938   1.745  16.913 -0.4690 -1.6649  0.9064
12483TIP3    H258941   3.862   1.713  16.786 -1.3538 -2.1643  1.5565
12484TIP3   OH258942   0.969   2.575   0.454 -0.0792  0.1058 -0.1396
12484TIP3    H158943   1.021   2.638   0.405 -0.5379  0.6824  0.1048
12484TIP3    H258944   1.033   2.513   0.489  0.3293  0.1792 -0.7535
12485TIP3   OH258945   5.848   1.442  15.575 -0.3263 -0.2831 -0.2784
12485TIP3    H158946   5.845   1.538  15.577  2.0832 -0.1451 -1.3431
12485TIP3    H258947   5.799   1.418  15.496 -1.3327  0.0294  0.2409
12486TIP3   OH258948   1.735   5.118   6.478 -0.2070 -0.0795 -0.1134
12486TIP3    H158949   1.717   5.198   6.428  1.8221 -0.6443 -1.8086
12486TIP3    H258950   1.717   5.142   6.568 -3.6810  1.0610 -1.0094
12487TIP3   OH258951   1.782   3.380   2.719  0.7169 -0.1026 -0.5554
12487TIP3    H158952   1.789   3.350   2.629  1.1090  2.2713 -1.3511
12487TIP3    H258953   1.868   3.418   2.738 -0.6428  3.2164 -0.6515
12488TIP3   OH258954   5.850   1.847  13.140  0.0882 -0.5713 -0.2834
12488TIP3    H158955   5.932   1.813  13.106  0.5252 -0.3072  0.4831
12488TIP3    H258956   5.860   1.841  13.235  0.1687  1.6660 -0.1329
12489TIP3   OH258957   1.221   1.380   5.924  0.4322  0.1820 -0.2794
12489TIP3    H158958   1.171   1.314   5.876  1.7150  0.0853 -1.5229
12489TIP3    H258959   1.289   1.408   5.863  1.2820  1.0380  1.0274
12490TIP3   OH258960   3.621   5.923  14.320  0.4926 -0.9966  1.1475
12490TIP3    H158961   3.653   6.010  14.345  1.7449 -0.7996 -0.9692
12490TIP3    H258962   3.526   5.931  14.321  0.5952  0.4752  0.7820
12491TIP3   OH258963   0.428   5.228   0.832  0.2464  0.4533  0.5434
12491TIP3    H158964   0.506   5.264   0.790  0.3281  0.5255  0.7549
12491TIP3    H258965   0.354   5.267   0.786  0.3255 -0.9945 -0.8619
12492TIP3   OH258966   2.430   0.245   2.693 -0.6968  0.4121  0.8609
12492TIP3    H158967   2.391   0.188   2.626 -2.6379  1.3030  1.1888
12492TIP3    H258968   2.425   0.194   2.774 -0.6222  0.2797  0.7819
12493TIP3   OH258969   2.761   3.318  13.199 -0.2781 -0.7697 -0.4004
12493TIP3    H158970   2.691   3.258  13.172 -0.4071 -0.7892 -0.0266
12493TIP3    H258971   2.720   3.405  13.194 -1.0539 -0.9447  2.0233
12494TIP3   OH258972   2.128   1.266  11.462 -0.3502 -0.7403  0.3492
12494TIP3    H158973   2.144   1.356  11.491  0.7926 -1.1185  0.9178
12494TIP3    H258974   2.033   1.262  11.447 -0.3223  0.7431 -0.3374
12495TIP3   OH258975   2.014   1.733   2.108  0.1011  0.2999 -0.1390
12495TIP3    H158976   1.945   1.799   2.110 -1.4514 -1.2898  0.1704
12495TIP3    H258977   2.008   1.689   2.192 -0.4569 -1.7853 -1.2317
12496TIP3   OH258978   3.620   4.565   4.246 -1.0103  0.4233  0.2063
12496TIP3    H158979   3.566   4.486   4.255 -1.0690  0.6435  1.7757
12496TIP3    H258980   3.557   4.637   4.255 -0.6343  0.6696  0.8544
12497TIP3   OH258981   1.811   3.195   3.843 -0.1623  0.2723  0.4291
12497TIP3    H158982   1.898   3.232   3.827 -0.6986  0.8528 -1.2393
12497TIP3    H258983   1.798   3.133   3.770 -1.1059  0.1102  0.7322
12498TIP3   OH258984   0.155   4.333   4.775 -0.0654 -0.4723  0.2439
12498TIP3    H158985   0.107   4.269   4.827 -1.8418 -0.6566 -1.5254
12498TIP3    H258986   0.201   4.281   4.709  0.0094 -0.0699 -0.0268
12499TIP3   OH258987   3.116   2.102  11.212 -0.5983  0.4072  0.0611
12499TIP3    H158988   3.039   2.146  11.247  0.2862  0.4849  1.9372
12499TIP3    H258989   3.167   2.172  11.172 -0.0962  0.8249  1.4056
12500TIP3   OH258990   2.438   3.277   5.686  0.0228  0.0313 -0.2063
12500TIP3    H158991   2.452   3.213   5.616 -1.7236  0.9030 -1.3783
12500TIP3    H258992   2.414   3.357   5.641  1.1367  1.2562  1.3043
12501TIP3   OH258993   4.085   3.654  13.150  0.3564 -0.7342 -0.1761
12501TIP3    H158994   4.155   3.701  13.197 -1.0949  0.7546  0.5428
12501TIP3    H258995   4.058   3.714  13.081 -0.2697 -1.2891 -0.4167
12502TIP3   OH258996   6.475   0.306  15.121  0.0502 -0.0107 -0.4985
12502TIP3    H158997   6.390   0.348  15.134 -0.4087 -1.2931  0.8457
12502TIP3    H258998   6.538   0.373  15.147 -0.6722 -0.2148  1.9460
12503TIP3   OH258999   0.942   5.284  17.249 -0.4884 -0.2270  0.1169
12503TIP3    H159000   0.980   5.228  17.316  0.4115 -1.4037 -1.3523
12503TIP3    H259001   0.918   5.224  17.178 -2.3187  0.8726 -0.2308
12504TIP3   OH259002   1.052   6.487  16.686 -0.0199  0.4605  0.3627
12504TIP3    H159003   1.089   6.454  16.768  0.0972 -0.7420 -0.1720
12504TIP3    H259004   1.076   6.580  16.685  0.4178  0.3661  1.4412
12505TIP3   OH259005   6.373   4.902  16.660 -0.5434 -0.3771 -0.5852
12505TIP3    H159006   6.449   4.872  16.710 -0.0481  0.3065 -0.9263
12505TIP3    H259007   6.307   4.834  16.674 -1.0211  0.6382  2.3815
12506TIP3   OH259008   5.406   0.709   0.939 -0.3243  0.0639  0.6375
12506TIP3    H159009   5.468   0.657   0.991 -0.3984 -0.3720  0.2974
12506TIP3    H259010   5.388   0.786   0.992  2.1766  1.2588 -0.1717
12507TIP3   OH259011   4.075   0.176   6.354  0.7380 -0.6367  0.7709
12507TIP3    H159012   4.032   0.098   6.321  1.3912 -0.5813 -0.2212
12507TIP3    H259013   4.012   0.247   6.338  1.5513 -0.4096 -1.5083
12508TIP3   OH259014   0.410   1.169  16.898 -0.3804  0.1920 -0.3114
12508TIP3    H159015   0.469   1.158  16.973 -1.2529 -0.5403  0.2864
12508TIP3    H259016   0.326   1.135  16.930 -1.2894  1.8557 -0.9148
12509TIP3   OH259017   5.685   5.954   4.762 -0.2564 -0.5260 -0.9816
12509TIP3    H159018   5.739   5.951   4.841  0.7756 -0.3417 -1.6673
12509TIP3    H259019   5.662   5.863   4.746 -0.9701 -0.4994 -0.1331
12510TIP3   OH259020   5.978   4.039   4.237  0.4665  0.2563  0.0310
12510TIP3    H159021   6.044   4.074   4.176  0.5683 -1.0051 -0.6057
12510TIP3    H259022   5.907   4.010   4.180  0.4659 -0.7379  0.5444
12511TIP3   OH259023   2.316   6.734   4.907 -0.0709 -0.3516  0.0035
12511TIP3    H159024   2.267   6.755   4.827  0.0935  3.5592  0.8083
12511TIP3    H259025   2.278   6.652   4.938 -1.5465 -0.8520 -2.9629
12512TIP3   OH259026   0.974   4.404  14.755 -0.1128  0.0474  0.0318
12512TIP3    H159027   1.061   4.444  14.746 -0.6223  0.8434 -1.4570
12512TIP3    H259028   0.936   4.447  14.832  0.8537 -0.4018  0.7724
12513TIP3   OH259029   5.711   0.153  11.323  0.5619  0.1470 -0.1905
12513TIP3    H159030   5.636   0.107  11.286 -0.1847  1.3032 -0.1682
12513TIP3    H259031   5.693   0.156  11.417  0.7745  0.1701 -0.1508
12514TIP3   OH259032   0.840   4.779   1.805  0.2876 -0.5661  0.5003
12514TIP3    H159033   0.782   4.845   1.766  0.2958 -0.7696  0.1419
12514TIP3    H259034   0.869   4.818   1.887 -2.5840 -1.6089  2.0655
12515TIP3   OH259035   2.510   2.841   3.383  0.0160 -0.5600  0.5057
12515TIP3    H159036   2.462   2.874   3.306  0.0714  0.5975  0.9530
12515TIP3    H259037   2.472   2.889   3.457  0.0282 -1.6051  1.1970
12516TIP3   OH259038   6.104   4.352   1.882  0.0763  0.2054  0.1082
12516TIP3    H159039   6.077   4.444   1.877  0.6095  0.2654 -2.1821
12516TIP3    H259040   6.098   4.321   1.792 -1.4198 -2.4038  1.0607
12517TIP3   OH259041   5.682   4.447  14.590  0.0574  0.0812  0.5125
12517TIP3    H159042   5.739   4.483  14.522  0.8271  0.9629  1.6063
12517TIP3    H259043   5.734   4.379  14.632 -0.5567 -0.7304 -0.0184
12518TIP3   OH259044   3.503   5.706   0.512 -0.3604 -0.1707  0.1059
12518TIP3    H159045   3.576   5.710   0.575 -1.3018 -1.7140  1.3321
12518TIP3    H259046   3.440   5.770   0.545 -0.6047 -0.5622  0.3908
12519TIP3   OH259047   5.195   6.131   1.189 -0.5045  0.1262  0.6335
12519TIP3    H159048   5.258   6.072   1.230 -1.1553 -0.6365  0.5638
12519TIP3    H259049   5.170   6.192   1.258 -1.0437 -0.6980  1.1900
12520TIP3   OH259050   1.252   0.818  12.650 -0.6064 -0.1470 -0.1811
12520TIP3    H159051   1.289   0.769  12.724  0.0524 -0.1146 -0.4808
12520TIP3    H259052   1.287   0.774  12.572 -1.2208 -0.1211 -0.4708
12521TIP3   OH259053   0.401   6.200  15.424  0.0001  0.1708  0.3729
12521TIP3    H159054   0.343   6.164  15.491 -0.6991  0.9021  0.1579
12521TIP3    H259055   0.484   6.215  15.471 -0.4641  0.6240  1.0549
12522TIP3   OH259056   4.901   4.839  14.045  0.0868  0.4937 -0.2854
12522TIP3    H159057   4.905   4.799  13.958  1.8481  0.7144 -0.3267
12522TIP3    H259058   4.856   4.922  14.032 -2.5870 -0.9222 -0.4007
12523TIP3   OH259059   2.139   0.250  16.656 -0.2664 -0.4301  0.2916
12523TIP3    H159060   2.112   0.312  16.724  0.2808  1.5694 -1.2699
12523TIP3    H259061   2.193   0.301  16.596 -0.1169 -2.3258 -1.2587
12524TIP3   OH259062   3.734   6.587  13.401 -0.3731  0.4287  0.0466
12524TIP3    H159063   3.737   6.504  13.448  0.2828  1.0030  1.0458
12524TIP3    H259064   3.774   6.568  13.316 -0.4006 -0.3280  0.2006
12525TIP3   OH259065   6.600   3.643  11.557 -0.0885 -0.2121  0.4684
12525TIP3    H159066   6.544   3.575  11.594 -0.1128  0.9267  2.6380
12525TIP3    H259067   6.678   3.597  11.528 -1.8035 -1.7073 -1.9254
12526TIP3   OH259068   1.194   1.149  11.745  0.1849 -0.1684  0.2087
12526TIP3    H159069   1.109   1.154  11.700  1.0202  1.0417 -1.2818
12526TIP3    H259070   1.189   1.068  11.796 -1.1941 -1.0725 -1.2840
12527TIP3   OH259071   0.176   5.376  12.407 -0.1707 -0.4028  0.3978
12527TIP3    H159072   0.257   5.377  12.458  0.2125 -1.1709 -0.1626
12527TIP3    H259073   0.106   5.381  12.471  0.2696 -2.6091  1.1044
12528TIP3   OH259074   5.450   4.926   4.949 -0.1750  0.3723 -0.0429
12528TIP3    H159075   5.460   4.910   5.042  0.2304  2.5127  0.3097
12528TIP3    H259076   5.516   4.871   4.907 -1.6855 -2.1338  0.7674
12529TIP3   OH259077   0.691   0.717   3.775 -0.3384  0.3456 -0.6057
12529TIP3    H159078   0.655   0.630   3.791 -0.9089  0.7509  0.4225
12529TIP3    H259079   0.750   0.732   3.849 -0.5582  0.9858 -0.5567
12530TIP3   OH259080   3.431   3.356  14.460 -0.1135 -0.1926 -0.6503
12530TIP3    H159081   3.419   3.308  14.377 -2.5001  0.8952 -0.9965
12530TIP3    H259082   3.355   3.331  14.512 -0.3570  1.6900 -0.0806
12531TIP3   OH259083   5.424   0.964  17.246  0.3201  0.1443  0.4408
12531TIP3    H159084   5.397   0.911  17.321 -0.9184 -0.2610 -0.2900
12531TIP3    H259085   5.362   0.942  17.177  0.6937  1.4578 -0.3275
12532TIP3   OH259086   5.622   6.009  11.007 -0.2344 -0.2295  0.6059
12532TIP3    H159087   5.564   6.085  11.008 -0.8008 -0.6428 -0.0690
12532TIP3    H259088   5.563   5.934  10.998  0.4489 -0.5796 -1.2937
12533TIP3   OH259089   3.658   5.655  15.805  0.2506 -0.0156  0.4700
12533TIP3    H159090   3.717   5.668  15.730 -0.8132 -2.4861 -0.8623
12533TIP3    H259091   3.689   5.716  15.871  1.4805  1.9733 -1.8488
12534TIP3   OH259092   0.822   1.628  13.482 -0.7196  0.3477  0.0371
12534TIP3    H159093   0.812   1.718  13.451 -0.7271  1.0617  2.0258
12534TIP3    H259094   0.735   1.605  13.516 -0.3087  0.1752  0.9964
12535TIP3   OH259095   4.697   5.114  12.196 -0.1576  0.2407  0.0979
12535TIP3    H159096   4.684   5.155  12.111 -0.1283 -0.8223 -0.4310
12535TIP3    H259097   4.625   5.052  12.205  1.1776 -1.3885 -0.2292
12536TIP3   OH259098   5.416   4.075   5.507 -0.6600  0.7990  0.1934
12536TIP3    H159099   5.472   4.143   5.471 -0.5614  0.2472 -0.7137
12536TIP3    H259100   5.400   4.102   5.597  0.9274  1.0487  0.4100
12537TIP3   OH259101   6.193   2.933   1.525 -0.1361  0.3005 -0.2809
12537TIP3    H159102   6.275   2.972   1.556  0.9898 -1.6694 -0.6192
12537TIP3    H259103   6.156   2.892   1.603  0.8220 -1.4877 -0.7307
12538TIP3   OH259104   5.477   2.039  16.736 -0.2872  0.5389  0.3581
12538TIP3    H159105   5.423   2.109  16.772 -0.2872 -0.4802  2.4489
12538TIP3    H259106   5.470   2.048  16.641 -2.2432  1.8465  0.6110
12539TIP3   OH259107   6.721   5.739   1.356 -0.0716 -0.1730  0.3820
12539TIP3    H159108   6.626   5.747   1.348 -0.0611  0.7354  1.2068
12539TIP3    H259109   6.737   5.645   1.346 -0.9849 -0.2592 -0.4293
12540TIP3   OH259110   0.473   1.999   1.531  0.2242  0.1684 -0.1674
12540TIP3    H159111   0.549   2.001   1.590 -1.6049  0.3325  2.2649
12540TIP3    H259112   0.484   2.076   1.475  0.7747  1.4052  1.5859
12541TIP3   OH259113   5.501   1.118   4.078 -0.5503 -0.1494 -0.0520
12541TIP3    H159114   5.483   1.118   4.172 -0.0036 -2.2040  0.0924
12541TIP3    H259115   5.498   1.025   4.053 -1.6097  0.4248 -2.2499
12542TIP3   OH259116   5.166   4.768  11.966 -0.6178 -0.1274  0.2813
12542TIP3    H159117   5.115   4.706  11.914 -0.1928 -0.2189 -0.0269
12542TIP3    H259118   5.257   4.740  11.955 -0.6037 -0.7785  1.8996
12543TIP3   OH259119   0.221   1.689   2.098 -0.0559 -0.8610 -0.2501
12543TIP3    H159120   0.193   1.775   2.130  0.1048 -0.6121 -0.7668
12543TIP3    H259121   0.140   1.639   2.089 -0.3786 -0.0639 -1.9667
12544TIP3   OH259122   5.954   0.936  15.124 -0.1112  0.3239  0.4607
12544TIP3    H159123   5.883   1.001  15.122 -0.7271 -0.3344  0.6262
12544TIP3    H259124   6.015   0.965  15.057 -0.7057  0.7125  0.0766
12545TIP3   OH259125   2.227   1.244  15.701 -0.2067  0.4579 -0.4580
12545TIP3    H159126   2.229   1.291  15.784  0.5369 -0.6846  0.1783
12545TIP3    H259127   2.136   1.251  15.672 -0.1651  2.0751 -0.2679
12546TIP3   OH259128   1.279   4.931   2.260  0.1602 -0.2173  0.2849
12546TIP3    H159129   1.349   4.868   2.243 -0.0804 -0.6349  0.8120
12546TIP3    H259130   1.211   4.880   2.304 -0.4334  0.2107 -0.1376
12547TIP3   OH259131   5.012   1.620  14.331  0.5490 -0.3824  0.0351
12547TIP3    H159132   5.014   1.674  14.252 -1.5551  0.4470  0.5181
12547TIP3    H259133   5.026   1.531  14.299 -0.4694 -0.0807 -1.2982
12548TIP3   OH259134   0.768   0.860  11.747  0.2193  0.7546 -0.7024
12548TIP3    H159135   0.819   0.934  11.779  0.8202  0.0931 -0.0914
12548TIP3    H259136   0.727   0.891  11.667 -3.0767  3.1620  1.8020
12549TIP3   OH259137   5.596   6.691  16.352 -0.2223  0.2892 -0.6076
12549TIP3    H159138   5.549   6.638  16.417 -0.4273  0.3418 -0.7140
12549TIP3    H259139   5.662   6.737  16.403 -0.5746  0.5550 -0.3868
12550TIP3   OH259140   1.064   0.791   7.223 -0.1821  0.2200 -0.0902
12550TIP3    H159141   1.061   0.769   7.130  0.5904 -0.9836  0.1527
12550TIP3    H259142   1.077   0.707   7.267  0.5782  0.9106  1.0359
12551TIP3   OH259143   5.142   1.365  14.802  0.2678 -0.1566 -0.0174
12551TIP3    H159144   5.161   1.459  14.807 -0.6799  0.0270  0.3718
12551TIP3    H259145   5.228   1.323  14.800  0.7025  0.7039  0.2449
12552TIP3   OH259146   2.313   4.866  12.645  0.1599 -0.8063  0.9756
12552TIP3    H159147   2.372   4.798  12.677 -1.1598 -2.7570 -0.6131
12552TIP3    H259148   2.225   4.829  12.658 -0.7493  1.8545  2.8734
12553TIP3   OH259149   6.688   1.757  14.160  0.2451 -0.8765 -0.5723
12553TIP3    H159150   6.753   1.826  14.156 -0.7504  0.0190 -1.7223
12553TIP3    H259151   6.646   1.759  14.074  0.9457 -3.6468 -1.0335
12554TIP3   OH259152   4.903   6.482   4.915  0.0423  0.1762 -0.0132
12554TIP3    H159153   4.902   6.501   4.821  1.6103 -0.5425 -0.1914
12554TIP3    H259154   4.811   6.469   4.938 -0.4051  0.9932 -1.3166
12555TIP3   OH259155   6.114   1.639  13.329  0.6175  0.4967 -0.3238
12555TIP3    H159156   6.194   1.598  13.361 -0.1923  0.7395  2.0495
12555TIP3    H259157   6.144   1.717  13.282  1.7799  0.5671  0.5258
12556TIP3   OH259158   1.623   0.552  12.666 -0.0374 -0.1775 -0.5186
12556TIP3    H159159   1.717   0.536  12.677  0.1775  1.6137  0.2520
12556TIP3    H259160   1.588   0.466  12.641  1.5935 -1.1559  0.4339
12557TIP3   OH259161   3.303   3.067   2.996  0.1430 -0.0883 -0.7221
12557TIP3    H159162   3.299   3.094   2.905  2.5357  1.6231 -0.3749
12557TIP3    H259163   3.385   3.018   3.004  0.3494  0.4473  0.6693
12558TIP3   OH259164   5.350   1.039  10.444 -0.6568 -0.0935  0.0314
12558TIP3    H159165   5.319   1.126  10.470 -2.0098 -0.6276  0.2808
12558TIP3    H259166   5.391   1.052  10.358  0.4408  1.0275  0.7121
12559TIP3   OH259167   5.049   2.326   2.436  0.3704  0.1736  0.0485
12559TIP3    H159168   5.051   2.240   2.395  0.2783  1.0592 -1.8551
12559TIP3    H259169   5.092   2.313   2.520  1.3998 -1.4755 -0.7023
12560TIP3   OH259170   1.049   4.961  13.480 -0.3637 -0.2122  0.3501
12560TIP3    H159171   1.034   4.952  13.386 -2.1682 -0.6819  0.6638
12560TIP3    H259172   1.084   5.049  13.490  0.3044 -0.3331 -0.8068
12561TIP3   OH259173   4.597   6.573   5.383  0.0733 -0.2857  0.3024
12561TIP3    H159174   4.641   6.637   5.440 -0.4948  1.2908 -0.9789
12561TIP3    H259175   4.667   6.516   5.353  0.8783  0.7236  0.2060
12562TIP3   OH259176   1.634   4.979  14.639  0.0945  0.0264  0.1006
12562TIP3    H159177   1.702   5.037  14.673  0.2914  0.8987 -1.7287
12562TIP3    H259178   1.554   5.032  14.640 -0.7871 -1.2607  3.0456
12563TIP3   OH259179   1.864   5.190  17.080 -0.3672  0.0778  0.0690
12563TIP3    H159180   1.918   5.211  17.157  0.5180  0.5418 -0.6684
12563TIP3    H259181   1.783   5.154  17.117  0.2952 -0.2959  1.2066
12564TIP3   OH259182   0.183   1.200  10.609  0.1825  0.5885  0.2004
12564TIP3    H159183   0.173   1.196  10.704  1.5779  1.2019  0.3910
12564TIP3    H259184   0.117   1.140  10.575  0.1882 -0.2321  1.5975
12565TIP3   OH259185   1.768   0.605  16.617 -0.0695 -0.0126 -0.1175
12565TIP3    H159186   1.858   0.604  16.585 -0.1999 -1.1319 -0.4908
12565TIP3    H259187   1.714   0.597  16.538 -0.4726  0.0159  0.1526
12566TIP3   OH259188   0.793   0.089   2.991 -0.4720 -0.0542  0.3527
12566TIP3    H159189   0.839   0.010   3.020 -0.2310 -0.1022 -0.1584
12566TIP3    H259190   0.792   0.146   3.067  0.1267 -0.1937  0.4606
12567TIP3   OH259191   0.004   1.743   1.409 -0.0400 -0.5386  0.1765
12567TIP3    H159192   0.011   1.819   1.467  0.5970 -0.8642  0.5170
12567TIP3    H259193  -0.086   1.713   1.420 -0.9760  1.4670 -1.5555
12568TIP3   OH259194   5.697   2.954  11.983  0.1940 -0.2009  0.6207
12568TIP3    H159195   5.750   2.878  12.004 -0.4978 -0.7692  0.3409
12568TIP3    H259196   5.728   3.022  12.042  0.1811 -0.9705  1.5267
12569TIP3   OH259197   1.132   5.209  12.378 -0.6154  0.8553  0.3619
12569TIP3    H159198   1.099   5.204  12.468  0.6901  0.9468  0.8528
12569TIP3    H259199   1.173   5.296  12.373 -0.8126  0.9081 -0.3680
12570TIP3   OH259200   2.583   1.704  16.517 -0.3955 -0.5188  0.4213
12570TIP3    H159201   2.492   1.717  16.494 -0.5937  0.3583  1.6263
12570TIP3    H259202   2.582   1.631  16.578 -0.2896 -0.5506  0.3846
12571TIP3   OH259203   6.330   1.296  14.669 -0.6220  0.2037  0.2479
12571TIP3    H159204   6.334   1.384  14.633 -0.7540  0.0439 -0.1553
12571TIP3    H259205   6.296   1.308  14.758  1.7192  0.8259  1.0962
12572TIP3   OH259206   4.758   4.674  11.768  0.1037 -0.4671  0.5131
12572TIP3    H159207   4.731   4.735  11.837 -0.4554 -2.5401  2.1872
12572TIP3    H259208   4.834   4.716  11.727 -1.1638  2.0370  0.5900
12573TIP3   OH259209   0.223   6.161   4.955  0.4188 -0.0015 -0.2838
12573TIP3    H159210   0.136   6.126   4.935 -0.7621  2.5124  0.2684
12573TIP3    H259211   0.210   6.255   4.966  2.7834  0.1034  2.2878
12574TIP3   OH259212   5.547   3.382  14.312 -0.5400  0.4735 -0.0241
12574TIP3    H159213   5.498   3.342  14.240  2.1013 -1.1987 -0.9584
12574TIP3    H259214   5.483   3.391  14.383 -1.9463 -2.7078 -0.8104
12575TIP3   OH259215   2.918   6.766   5.530 -0.1320 -0.1861 -0.0533
12575TIP3    H159216   2.948   6.849   5.568  3.0507 -2.4484  2.6775
12575TIP3    H259217   2.851   6.735   5.591  0.5895 -0.8546  0.4188
12576TIP3   OH259218   1.925   1.981  15.446  0.0826  0.2390  0.0430
12576TIP3    H159219   1.991   1.951  15.509  0.6205  0.8212 -0.2297
12576TIP3    H259220   1.944   2.075  15.435  0.1879  0.0768 -1.2261
12577TIP3   OH259221   1.949   6.129  13.893 -0.0983 -0.4075 -0.0039
12577TIP3    H159222   1.916   6.209  13.934  0.4486  0.7123 -1.6759
12577TIP3    H259223   1.917   6.134  13.803  1.3788 -1.2212 -0.5861
12578TIP3   OH259224   4.645   3.238   1.049  0.3463 -0.7253  0.0822
12578TIP3    H159225   4.644   3.331   1.025  0.6446 -0.5173  0.8599
12578TIP3    H259226   4.736   3.219   1.069  0.5327 -1.5603 -1.4612
12579TIP3   OH259227   4.630   5.901  11.801  0.4930  0.1264 -0.0813
12579TIP3    H159228   4.538   5.883  11.781  0.1477  3.3681 -1.5882
12579TIP3    H259229   4.628   5.964  11.873  1.6206 -1.2095  1.1827
12580TIP3   OH259230   1.855   1.424  12.188 -0.1160  0.1824 -0.0527
12580TIP3    H159231   1.860   1.339  12.232 -1.7329  0.0931 -0.0129
12580TIP3    H259232   1.879   1.405  12.097 -2.3911 -0.6908 -0.4889
12581TIP3   OH259233   2.640   0.600  14.136 -0.4775 -0.4367 -0.4514
12581TIP3    H159234   2.731   0.620  14.159 -0.6563 -0.4491  0.2574
12581TIP3    H259235   2.592   0.680  14.157 -0.6480 -0.4601 -0.7517
12582TIP3   OH259236   2.663   6.466   3.877  0.2980  0.0870  0.5931
12582TIP3    H159237   2.578   6.487   3.917  1.0750  0.4995  2.0707
12582TIP3    H259238   2.692   6.548   3.838  0.6197  0.2974  1.2558
12583TIP3   OH259239   6.032   5.566  12.341  0.0459 -0.0162 -0.0779
12583TIP3    H159240   5.991   5.498  12.395 -1.5723  0.5540 -0.5396
12583TIP3    H259241   6.110   5.592  12.389  0.3658 -1.7833  0.3898
12584TIP3   OH259242   6.491   3.507  11.778  0.5800  0.1652 -0.3321
12584TIP3    H159243   6.435   3.578  11.808  1.9422  0.7477  0.8700
12584TIP3    H259244   6.502   3.450  11.854  0.0890 -0.9776 -1.0844
12585TIP3   OH259245   3.123   5.280  12.207  0.2446  0.3451  0.4457
12585TIP3    H159246   3.218   5.294  12.203  0.1737  0.5832 -0.3669
12585TIP3    H259247   3.091   5.305  12.121 -0.3501 -1.2843  0.1764
12586TIP3   OH259248   1.971   0.756  14.035  0.0259  0.6619  0.0090
12586TIP3    H159249   1.971   0.825  13.968 -1.5840 -1.4630 -2.2496
12586TIP3    H259250   2.056   0.712  14.024 -1.4408 -1.6367 -2.8143
12587TIP3   OH259251   1.241   2.334   3.407  0.4158  0.0342  0.2126
12587TIP3    H159252   1.310   2.336   3.341  0.2576 -0.7288  0.0212
12587TIP3    H259253   1.249   2.248   3.448 -1.0191 -0.4221 -0.4457
12588TIP3   OH259254   1.713   1.920  15.162  0.6388 -0.2889 -0.1186
12588TIP3    H159255   1.726   1.952  15.252 -0.1592  1.5897 -0.6396
12588TIP3    H259256   1.619   1.902  15.156  0.8419 -1.2783 -0.2998
12589TIP3   OH259257   5.840   5.569   0.232 -0.0128 -0.1664 -0.5382
12589TIP3    H159258   5.820   5.634   0.164  1.2990  0.1825 -0.6231
12589TIP3    H259259   5.828   5.616   0.314  0.4259  0.0452 -0.5891
12590TIP3   OH259260   6.400   1.468   3.695 -0.0268 -0.2691 -0.3753
12590TIP3    H159261   6.384   1.438   3.784 -0.0435  0.7585 -0.0349
12590TIP3    H259262   6.335   1.422   3.642 -0.8662  0.1183  0.3226
12591TIP3   OH259263   4.358   6.129  12.047  0.2980  0.2922  0.6555
12591TIP3    H159264   4.357   6.189  11.973 -0.0147 -1.0060 -0.4016
12591TIP3    H259265   4.293   6.063  12.025 -0.3145  0.2816  2.4248
12592TIP3   OH259266   0.500   2.561  16.770 -0.3508  0.3798  0.4162
12592TIP3    H159267   0.533   2.613  16.843 -0.0980  0.6154  0.1354
12592TIP3    H259268   0.522   2.471  16.792 -0.1258  0.4683  0.5511
12593TIP3   OH259269   4.091   0.699  14.773 -0.4822  0.1043  0.2747
12593TIP3    H159270   4.055   0.781  14.805  0.1936  1.6225 -2.6276
12593TIP3    H259271   4.016   0.650  14.740 -0.7078  0.2828  0.5337
12594TIP3   OH259272   5.638   0.160   6.041  0.4170 -0.1282  0.4658
12594TIP3    H159273   5.606   0.198   6.122  0.7699  0.7612  0.1885
12594TIP3    H259274   5.593   0.208   5.972  0.9808 -0.1077  0.1104
12595TIP3   OH259275   4.940   1.199   2.834  0.3445  0.0352  0.5659
12595TIP3    H159276   4.894   1.245   2.764 -0.4579 -1.9345 -0.2330
12595TIP3    H259277   4.872   1.148   2.879  1.7402 -3.2835 -0.9266
12596TIP3   OH259278   3.974   5.204   1.129 -0.9627  0.3974 -0.9834
12596TIP3    H159279   3.886   5.197   1.166  0.8711 -0.7038  3.5724
12596TIP3    H259280   4.018   5.124   1.159  2.1742  1.9084 -1.3687
12597TIP3   OH259281   2.318   4.775   5.273  0.5018 -0.0411 -0.2099
12597TIP3    H159282   2.320   4.861   5.231 -0.8337  0.4327  0.6688
12597TIP3    H259283   2.410   4.753   5.288  0.8500  1.1519 -0.5855
12598TIP3   OH259284   3.415   5.655   5.992 -0.6747  0.4734  0.1056
12598TIP3    H159285   3.362   5.731   6.014 -0.0077  0.5780  1.4055
12598TIP3    H259286   3.503   5.689   5.978 -0.6983  0.1456 -0.9156
12599TIP3   OH259287   0.724   5.013   1.098 -0.3168 -0.2979  0.0264
12599TIP3    H159288   0.656   5.008   1.031  0.7348  0.3157 -1.1106
12599TIP3    H259289   0.683   4.976   1.177 -1.8734 -0.1628 -0.6978
12600TIP3   OH259290   3.866   6.036  12.233 -0.9495 -0.1881  0.2337
12600TIP3    H159291   3.926   6.049  12.160 -0.0938 -2.6401  0.4668
12600TIP3    H259292   3.854   6.124  12.270 -0.9601  1.0115 -2.4712
12601TIP3   OH259293   5.254   0.237  16.462 -0.2238 -0.2756 -0.3515
12601TIP3    H159294   5.348   0.228  16.446 -0.5392  0.6935 -2.9276
12601TIP3    H259295   5.212   0.196  16.386 -1.9116 -1.3025  1.1015
12602TIP3   OH259296   4.049   6.234  15.016  0.5394  0.4493 -0.1894
12602TIP3    H159297   4.050   6.329  15.031  0.9957  0.5144 -0.6079
12602TIP3    H259298   3.964   6.205  15.049  0.9452  0.7946  1.1752
12603TIP3   OH259299   4.284   0.476   1.623  0.0944  0.7863  0.4544
12603TIP3    H159300   4.372   0.499   1.593  0.4505 -0.2886  0.6487
12603TIP3    H259301   4.228   0.547   1.591  0.8297  0.8300 -0.7599
12604TIP3   OH259302   4.912   6.289  13.884  0.0212 -0.1264 -0.2060
12604TIP3    H159303   4.869   6.218  13.837 -4.8958 -0.1193  3.7587
12604TIP3    H259304   4.865   6.368  13.857  0.5607  0.5688  0.8304
12605TIP3   OH259305   3.643   2.396  11.853  0.0153 -0.4362 -0.1322
12605TIP3    H159306   3.613   2.465  11.794 -1.8074 -0.6980  0.4233
12605TIP3    H259307   3.613   2.424  11.940  0.9977 -0.9580  0.3804
12606TIP3   OH259308   1.198   1.928   4.113  0.0286 -0.7071  0.0982
12606TIP3    H159309   1.110   1.890   4.108 -0.2440 -0.0923  0.1761
12606TIP3    H259310   1.243   1.894   4.036 -0.9571  0.6686 -1.0996
12607TIP3   OH259311   4.876   4.248  11.890  0.1952  0.4247  0.8438
12607TIP3    H159312   4.814   4.263  11.819 -0.7789 -0.5473  1.4560
12607TIP3    H259313   4.962   4.250  11.848 -0.4752 -2.4455 -0.8065
12608TIP3   OH259314   5.201   3.453   2.133 -0.0382 -0.8722 -0.2649
12608TIP3    H159315   5.177   3.371   2.091 -0.6221 -0.0003 -1.6410
12608TIP3    H259316   5.254   3.499   2.068 -1.6175  0.8400 -0.3578
12609TIP3   OH259317   0.260   6.528   2.614  0.0294  0.5674 -0.1580
12609TIP3    H159318   0.260   6.595   2.683  0.9060  0.0452  0.3641
12609TIP3    H259319   0.220   6.451   2.655 -1.0038  0.7685 -0.7648
12610TIP3   OH259320   0.892   5.610   2.898  0.3192 -0.9092 -0.1018
12610TIP3    H159321   0.842   5.690   2.884  2.1313  0.6288  1.7862
12610TIP3    H259322   0.980   5.632   2.865  0.6675 -2.3549 -0.1539
12611TIP3   OH259323   5.788   0.577  15.846 -0.1575 -0.0543 -0.2031
12611TIP3    H159324   5.851   0.641  15.877 -1.4252  1.3200 -0.3834
12611TIP3    H259325   5.806   0.498  15.896  1.8145  0.2578 -0.4035
12612TIP3   OH259326   0.543   0.982  11.254 -0.1698 -0.1432  0.5275
12612TIP3    H159327   0.561   0.998  11.162 -0.6469 -0.3973  0.3917
12612TIP3    H259328   0.569   1.063  11.298 -1.5567  0.6161 -0.0306
12613TIP3   OH259329   5.243   3.712   6.506 -0.1700 -0.0479  0.1443
12613TIP3    H159330   5.181   3.650   6.544 -1.0754  1.6613  1.5652
12613TIP3    H259331   5.313   3.719   6.572  0.1692  0.0718 -0.2284
12614TIP3   OH259332   4.011   2.275  11.107 -0.3684  0.4320  0.0323
12614TIP3    H159333   4.033   2.326  11.185  1.6233 -2.9313  1.8276
12614TIP3    H259334   3.919   2.251  11.119 -0.5414  1.3115  0.5020
12615TIP3   OH259335   2.707   3.248   5.353  0.1339 -0.1228  0.0692
12615TIP3    H159336   2.757   3.214   5.279  0.0052 -0.0656 -0.0452
12615TIP3    H259337   2.706   3.343   5.339 -2.3070 -0.3254 -1.4112
12616TIP3   OH259338   0.338   4.217   4.562  0.1695  0.0360 -0.6331
12616TIP3    H159339   0.319   4.125   4.541  2.1468 -0.2771 -1.1939
12616TIP3    H259340   0.429   4.229   4.534 -0.0166  2.1207 -0.3832
12617TIP3   OH259341   1.624   5.855   4.194 -0.4338 -0.1802  0.1255
12617TIP3    H159342   1.588   5.944   4.187 -1.9832 -0.8636 -0.9857
12617TIP3    H259343   1.553   5.798   4.161 -0.1600 -1.9649  2.5074
12618TIP3   OH259344   4.661   1.604   2.442  0.4386 -0.9906 -0.0608
12618TIP3    H159345   4.683   1.618   2.535  0.9075 -1.1745 -0.1440
12618TIP3    H259346   4.745   1.605   2.397  0.2467 -1.3485 -0.4309
12619TIP3   OH259347   4.991   1.934  11.634 -0.0402 -0.5251 -0.0407
12619TIP3    H159348   4.993   1.874  11.709 -1.0444 -0.7296 -0.1665
12619TIP3    H259349   5.052   1.896  11.571  2.7949  1.0141  1.6822
12620TIP3   OH259350   3.605   4.615   0.781  0.1298  0.7509 -0.2924
12620TIP3    H159351   3.556   4.553   0.834  0.1920  1.7130  0.9015
12620TIP3    H259352   3.673   4.648   0.839 -0.0898  2.1643 -0.8104
12621TIP3   OH259353   4.851   4.743   4.566  0.3600  0.3426  0.1936
12621TIP3    H159354   4.875   4.714   4.654 -0.4659 -1.3062 -0.1036
12621TIP3    H259355   4.780   4.806   4.580 -0.4749 -0.6889  0.6781
12622TIP3   OH259356   3.083   2.107   5.231 -0.2463  0.2957  0.2889
12622TIP3    H159357   3.043   2.190   5.255  0.2811  1.0136 -1.2492
12622TIP3    H259358   3.150   2.130   5.167  0.1922 -1.2709  0.1562
12623TIP3   OH259359   1.862   1.121   4.460 -0.4004  0.0618  0.5094
12623TIP3    H159360   1.949   1.121   4.420 -0.6837  3.3235 -0.2691
12623TIP3    H259361   1.814   1.054   4.411  1.2955 -0.8841  0.0825
12624TIP3   OH259362   5.181   6.184   5.918 -0.5477  0.0345 -0.4191
12624TIP3    H159363   5.087   6.200   5.928 -0.8776 -1.9282 -0.1683
12624TIP3    H259364   5.201   6.118   5.984  0.6718 -0.7047 -1.5020
12625TIP3   OH259365   0.034   4.034  12.461 -0.0186  0.8485 -0.1182
12625TIP3    H159366   0.024   4.072  12.374 -1.2200 -1.3558 -0.9908
12625TIP3    H259367   0.126   4.007  12.465 -0.0341  0.6638 -0.8399
12626TIP3   OH259368   0.448   5.009   6.053  0.5528 -0.3948  0.3961
12626TIP3    H159369   0.402   4.926   6.063  2.4664 -1.6678 -0.8864
12626TIP3    H259370   0.522   5.004   6.113  0.3629  0.6398  0.7375
12627TIP3   OH259371   2.084   3.467   1.146 -0.1790 -0.1990 -0.4370
12627TIP3    H159372   2.157   3.435   1.094  1.7989 -1.1719  2.8407
12627TIP3    H259373   2.088   3.562   1.138  1.6671 -0.2338 -0.0217
12628TIP3   OH259374   4.648   2.479  12.643 -0.0051  0.0541  0.1097
12628TIP3    H159375   4.700   2.437  12.574  0.1501 -0.4019  0.4993
12628TIP3    H259376   4.582   2.413  12.666  0.1650  0.0705  0.6462
12629TIP3   OH259377   3.206   0.978   4.923  0.4160  0.4705 -0.1372
12629TIP3    H159378   3.140   0.976   4.992  1.5512  0.8446  0.9777
12629TIP3    H259379   3.156   0.992   4.842 -0.8562  0.8224  0.6962
12630TIP3   OH259380   2.349   5.111  11.224 -0.1038 -0.2054  0.3464
12630TIP3    H159381   2.307   5.038  11.178 -2.2841  2.2881 -1.7088
12630TIP3    H259382   2.442   5.086  11.229 -0.8780 -3.3103  0.1182
12631TIP3   OH259383   1.755   0.863   0.834  0.1021  0.3293 -0.4691
12631TIP3    H159384   1.694   0.819   0.774  0.0258 -0.4758  0.1955
12631TIP3    H259385   1.831   0.805   0.838 -0.5980 -0.5022  1.5555
12632TIP3   OH259386   4.099   1.646   1.525 -0.1383 -0.0245  0.0904
12632TIP3    H159387   4.133   1.661   1.437 -1.5019 -0.3099 -0.5036
12632TIP3    H259388   4.162   1.587   1.566  1.2766  1.2532 -0.1783
12633TIP3   OH259389   5.931   5.539  15.445 -0.7808 -0.2915  0.1445
12633TIP3    H159390   5.880   5.510  15.370 -1.0829  0.2291  0.1444
12633TIP3    H259391   5.917   5.634  15.448  1.4119  0.0837 -0.7836
12634TIP3   OH259392   5.920   4.106   6.726  0.6968  0.1348  0.3606
12634TIP3    H159393   5.897   4.102   6.633  2.1198  2.1477 -0.1056
12634TIP3    H259394   5.975   4.029   6.739  2.8532  1.3495 -1.1831
12635TIP3   OH259395   0.112   5.353   5.345 -0.2142  0.0238 -0.1096
12635TIP3    H159396   0.110   5.442   5.311 -0.2647  1.0355  2.4704
12635TIP3    H259397   0.038   5.349   5.406 -0.4623 -1.9149 -0.5032
12636TIP3   OH259398   1.460   1.841   4.280 -0.7990 -0.3267  0.6703
12636TIP3    H159399   1.479   1.886   4.362 -0.0639  2.9399 -1.2219
12636TIP3    H259400   1.366   1.854   4.266 -0.6351  0.4327  0.2519
12637TIP3   OH259401   1.107   3.934   5.761 -0.0487  0.0281  0.3212
12637TIP3    H159402   1.139   3.865   5.703  1.2616  1.2937 -0.4804
12637TIP3    H259403   1.032   3.895   5.805  1.0762 -2.1436  0.3762
12638TIP3   OH259404   2.868   0.780   5.416  0.4157 -0.7212  0.1645
12638TIP3    H159405   2.876   0.871   5.387 -0.4201 -1.1954 -1.5567
12638TIP3    H259406   2.858   0.729   5.336  1.1161 -2.3750  1.0994
12639TIP3   OH259407   2.622   0.949   0.937 -0.7451 -0.3393 -0.2130
12639TIP3    H159408   2.534   0.920   0.911 -1.5775  0.3305  1.8030
12639TIP3    H259409   2.661   0.872   0.978 -0.9615 -0.1869  0.2797
12640TIP3   OH259410   2.542   1.085  16.587  0.3914 -0.0095 -0.1479
12640TIP3    H159411   2.514   0.996  16.608  1.4560 -0.3000  0.0676
12640TIP3    H259412   2.637   1.079  16.580  0.6012  1.3695  1.1569
12641TIP3   OH259413   4.774   3.209   4.152 -0.6425 -0.1504 -0.0878
12641TIP3    H159414   4.765   3.129   4.204  2.4021 -1.4764 -1.4710
12641TIP3    H259415   4.810   3.273   4.213 -0.9332 -0.4966  0.4505
12642TIP3   OH259416   0.099   4.841   0.611 -0.1205 -0.5346  0.2654
12642TIP3    H159417   0.113   4.814   0.521  0.8174  0.2599  0.1720
12642TIP3    H259418   0.065   4.763   0.654 -1.2840 -0.7123 -0.9367
12643TIP3   OH259419   1.755   4.244  14.023 -0.2473 -0.2352 -0.2286
12643TIP3    H159420   1.674   4.294  14.012 -0.0907  0.1797  0.5192
12643TIP3    H259421   1.796   4.248  13.936 -1.1562 -0.6929 -0.6945
12644TIP3   OH259422   2.085   0.773   2.591  0.1597 -0.5498 -0.5449
12644TIP3    H159423   2.059   0.825   2.667 -0.3498 -0.5269 -0.7327
12644TIP3    H259424   2.100   0.837   2.522 -1.8125 -0.7244 -1.1720
12645TIP3   OH259425   4.224   5.802   1.234  0.1047  0.2405  0.1273
12645TIP3    H159426   4.300   5.748   1.254 -1.1419 -1.2474  0.9861
12645TIP3    H259427   4.199   5.842   1.317 -0.6152 -0.0384  0.0529
12646TIP3   OH259428   0.851   0.985  15.106 -0.1857 -0.8852  0.7212
12646TIP3    H159429   0.819   0.937  15.182 -1.8399 -1.1245 -0.1034
12646TIP3    H259430   0.885   0.917  15.047  0.5368 -0.7540  0.9884
12647TIP3   OH259431   3.818   0.233   2.170 -0.7140 -0.3253 -0.0584
12647TIP3    H159432   3.843   0.281   2.249  0.2336 -0.6920 -0.1324
12647TIP3    H259433   3.901   0.211   2.128 -1.2457  0.7881 -1.7279
12648TIP3   OH259434   2.710   0.132  12.765 -0.0776 -0.1881  0.0875
12648TIP3    H159435   2.659   0.059  12.730  0.4349  0.0198 -1.0905
12648TIP3    H259436   2.676   0.209  12.720  1.0872 -0.0158 -0.4986
12649TIP3   OH259437   1.064   2.801   4.406 -0.9489  0.2623 -0.6239
12649TIP3    H159438   1.022   2.747   4.473 -2.0396  0.0933 -1.4384
12649TIP3    H259439   1.156   2.773   4.409 -1.0708 -0.0715  0.4752
12650TIP3   OH259440   4.153   1.183  10.729  0.4136  0.0732 -0.4372
12650TIP3    H159441   4.061   1.189  10.703  0.3634 -0.1301 -0.3055
12650TIP3    H259442   4.153   1.125  10.805  0.6519  0.0643 -0.4440
12651TIP3   OH259443   4.974   1.670   1.690  0.1600  0.0013 -0.3437
12651TIP3    H159444   4.886   1.693   1.721  0.6194  0.7773  0.4072
12651TIP3    H259445   4.990   1.732   1.619  0.2113  0.0555 -0.2855
12652TIP3   OH259446   5.623   6.644  14.925 -0.3158  0.0605 -0.5015
12652TIP3    H159447   5.535   6.666  14.896 -1.1946 -2.0401  0.4632
12652TIP3    H259448   5.612   6.616  15.016  1.7883  2.6226  0.6179
12653TIP3   OH259449   2.356   3.407  13.826 -0.3235  0.2026 -0.6952
12653TIP3    H159450   2.271   3.440  13.851  0.3520  0.9946  0.5930
12653TIP3    H259451   2.378   3.454  13.746  0.0172  1.8795  0.3611
12654TIP3   OH259452   2.758   3.862   6.541  0.4674 -0.3229 -0.3884
12654TIP3    H159453   2.742   3.768   6.539  1.0790 -0.4400  0.0457
12654TIP3    H259454   2.675   3.901   6.568  0.9302 -0.9167  1.9544
12655TIP3   OH259455   4.876   3.134  17.231  0.0133 -0.3818 -0.0384
12655TIP3    H159456   4.906   3.159  17.319 -1.5462 -1.6679  0.8861
12655TIP3    H259457   4.931   3.185  17.172 -0.1274  1.8712  1.7038
12656TIP3   OH259458   3.224   3.872   0.054  0.6711 -0.1571 -0.1885
12656TIP3    H159459   3.271   3.955   0.058 -0.9273  0.7426  0.4431
12656TIP3    H259460   3.170   3.879  -0.025  1.3775 -1.0617 -0.7574
12657TIP3   OH259461   0.305   4.072   4.827 -0.1962  0.0677  0.0630
12657TIP3    H159462   0.210   4.079   4.841 -0.1906 -1.2925  0.8416
12657TIP3    H259463   0.343   4.134   4.890 -0.5258 -0.1132  0.4435
12658TIP3   OH259464   3.957   2.129  14.310 -0.0605 -0.4197 -0.8038
12658TIP3    H159465   4.034   2.130  14.253 -0.3926  0.5249 -1.2456
12658TIP3    H259466   3.885   2.102  14.252 -0.1108 -1.1004 -0.4395
12659TIP3   OH259467   6.425   2.581   4.090 -0.4924  0.5915  0.0881
12659TIP3    H159468   6.371   2.524   4.036  0.1825  0.6584 -0.6709
12659TIP3    H259469   6.375   2.662   4.099  0.1217  1.2045 -1.8469
12660TIP3   OH259470   1.686   4.051   5.853 -0.2322 -0.0421  0.3647
12660TIP3    H159471   1.661   3.968   5.893  1.4465 -0.1740  1.1881
12660TIP3    H259472   1.733   4.098   5.922  0.5707  0.7471 -0.6988
12661TIP3   OH259473   1.475   5.366   3.819  0.0763 -0.0059 -0.4428
12661TIP3    H159474   1.526   5.296   3.860  0.6714 -0.1254 -1.3676
12661TIP3    H259475   1.393   5.367   3.868  0.3764 -0.8104  0.1047
12662TIP3   OH259476   3.286   6.546   1.185 -0.0293  0.4521  0.1124
12662TIP3    H159477   3.345   6.571   1.256  1.1167 -0.2617 -0.5898
12662TIP3    H259478   3.342   6.511   1.117 -1.3870 -2.1017  0.2322
12663TIP3   OH259479   0.976   0.765   6.104 -0.4675  0.7502  0.6031
12663TIP3    H159480   0.909   0.736   6.166 -0.3788 -2.7696 -0.8395
12663TIP3    H259481   0.961   0.859   6.095 -3.3124  0.5466  2.5574
12664TIP3   OH259482   6.785   2.466   5.752 -0.3358 -0.2832 -0.3816
12664TIP3    H159483   6.836   2.492   5.828 -0.4588 -0.1722 -0.3355
12664TIP3    H259484   6.738   2.546   5.727  0.0658 -0.1909 -0.8572
12665TIP3   OH259485   2.847   2.213  14.730  0.3001 -0.2789  0.0309
12665TIP3    H159486   2.840   2.214  14.825  3.0838 -0.1284  0.2839
12665TIP3    H259487   2.763   2.177  14.700 -0.4252 -0.7959  2.5380
12666TIP3   OH259488   2.864   5.807  17.274 -0.6737 -0.3070 -0.3577
12666TIP3    H159489   2.834   5.864  17.344 -0.4180  0.2889 -0.7309
12666TIP3    H259490   2.957   5.794  17.291 -0.6147 -0.1758 -0.5725
12667TIP3   OH259491   5.124   1.665   4.318  0.3578  0.1444  0.0330
12667TIP3    H159492   5.184   1.739   4.324  0.3123  0.2780 -1.0183
12667TIP3    H259493   5.180   1.592   4.291 -0.1454  0.5540 -2.2012
12668TIP3   OH259494   0.575   0.563   4.427  0.3578 -0.5670  0.7381
12668TIP3    H159495   0.516   0.638   4.434  0.0567 -0.6384 -0.8034
12668TIP3    H259496   0.532   0.494   4.477  0.4173  0.1471  1.7933
12669TIP3   OH259497   3.485   3.758  15.761  0.6823 -0.0612 -0.3168
12669TIP3    H159498   3.437   3.834  15.795 -1.2107 -0.8048 -1.2243
12669TIP3    H259499   3.566   3.795  15.727  0.2157  1.4268  0.1054
12670TIP3   OH259500   3.648   1.053   3.686  0.1487 -0.0563  0.7365
12670TIP3    H159501   3.618   1.072   3.774 -1.9865 -0.1173  0.0459
12670TIP3    H259502   3.648   1.138   3.641 -0.8778 -0.3423  0.1794
12671TIP3   OH259503   4.108   4.064  13.150 -0.1449 -0.0781  0.2669
12671TIP3    H159504   4.169   4.138  13.156 -1.3281  0.9206  0.0287
12671TIP3    H259505   4.139   4.002  13.218 -1.1388  2.0803  2.7618
12672TIP3   OH259506   0.078   5.730  16.904 -0.1620  0.6774  0.0380
12672TIP3    H159507   0.038   5.792  16.842 -0.6241 -1.4449 -1.8322
12672TIP3    H259508   0.007   5.669  16.926  0.5067  0.3271  1.2567
12673TIP3   OH259509   1.898   1.313  12.678 -0.4266  0.2339 -0.5192
12673TIP3    H159510   1.912   1.266  12.596 -1.3983  0.5794 -0.8867
12673TIP3    H259511   1.908   1.405  12.656  1.6627  0.2265  0.2391
12674TIP3   OH259512   4.716   2.694  11.652 -0.1053 -0.4746 -0.0358
12674TIP3    H159513   4.776   2.672  11.724  2.3906  1.3569 -1.4371
12674TIP3    H259514   4.713   2.790  11.653 -2.3372 -0.5114 -0.5992
12675TIP3   OH259515   5.998   0.045   0.837  0.0713  0.0997  0.2125
12675TIP3    H159516   5.952  -0.001   0.767  2.3860  0.3780 -1.5775
12675TIP3    H259517   6.048  -0.022   0.882 -0.7517  0.0560  1.0769
12676TIP3   OH259518   2.496   1.755  12.450  0.1479 -0.0948 -0.0102
12676TIP3    H159519   2.412   1.731  12.411  0.4688  0.4111 -1.0215
12676TIP3    H259520   2.562   1.716  12.391  0.6266 -0.3982  0.7165
12677TIP3   OH259521   0.511   0.462  13.484 -0.5332  0.4695  0.3112
12677TIP3    H159522   0.588   0.431  13.436 -0.4016  2.8758 -1.1106
12677TIP3    H259523   0.438   0.413  13.446 -0.3651  1.9865 -2.0958
12678TIP3   OH259524   5.483   6.059   4.364 -0.4773  0.0336 -0.1726
12678TIP3    H159525   5.465   5.974   4.324  1.6141 -0.9263  0.8556
12678TIP3    H259526   5.547   6.040   4.432  0.3979  2.5166 -0.2672
12679TIP3   OH259527   3.283   1.420   0.996 -0.1052 -0.3776  0.0977
12679TIP3    H159528   3.278   1.502   0.946 -0.8630 -0.4599  0.0356
12679TIP3    H259529   3.376   1.410   1.016  0.0462  0.2803 -0.2616
12680TIP3   OH259530   4.435   2.352  13.721  0.2813 -0.3267  0.1132
12680TIP3    H159531   4.405   2.365  13.631  0.6693  0.6275  0.1130
12680TIP3    H259532   4.491   2.428  13.738 -0.0274 -0.3501  1.2637
12681TIP3   OH259533   2.430   4.804  10.999 -0.3611  0.1644  0.2704
12681TIP3    H159534   2.355   4.777  10.946  0.1626 -0.7850  0.0062
12681TIP3    H259535   2.465   4.880  10.953 -0.3073 -0.2543 -0.3910
12682TIP3   OH259536   0.253   0.633  14.884 -0.8800 -0.6529 -0.2794
12682TIP3    H159537   0.305   0.707  14.854  1.4630 -1.1714  2.2706
12682TIP3    H259538   0.185   0.672  14.939  1.3584 -0.4297  2.4296
12683TIP3   OH259539   4.696   0.813   0.578 -0.2866  0.1311  0.5790
12683TIP3    H159540   4.681   0.796   0.486  1.9685 -1.9416  0.5460
12683TIP3    H259541   4.708   0.908   0.583  1.8998  0.0334 -1.6669
12684TIP3   OH259542   6.730   4.662   3.178 -0.1924  0.1415  0.0314
12684TIP3    H159543   6.652   4.715   3.158  0.1543  0.6147 -0.0606
12684TIP3    H259544   6.803   4.710   3.138  0.2177 -0.0118  0.5924
12685TIP3   OH259545   0.691   0.046  12.911  0.3528 -0.4316 -0.4316
12685TIP3    H159546   0.612  -0.002  12.887  0.0081  1.0005 -2.2970
12685TIP3    H259547   0.666   0.094  12.990 -1.2065  1.1965 -1.8375
12686TIP3   OH259548   4.301   1.648  16.849 -0.4351  0.1038  0.2959
12686TIP3    H159549   4.318   1.621  16.939 -3.1997  0.0692  0.8697
12686TIP3    H259550   4.354   1.727  16.837 -0.6043  0.5453  2.2176
12687TIP3   OH259551   6.196   5.129  13.269 -0.2568  0.1112  0.4162
12687TIP3    H159552   6.282   5.142  13.229 -0.3058 -0.1447  0.2316
12687TIP3    H259553   6.138   5.189  13.222 -0.9016 -2.2063 -1.7801
12688TIP3   OH259554   5.975   2.079  12.489 -0.8327 -0.3421 -0.2095
12688TIP3    H159555   5.978   2.165  12.447 -1.0520  0.2606  0.9918
12688TIP3    H259556   5.919   2.092  12.565  0.3861 -1.1879  0.8371
12689TIP3   OH259557   0.529   2.469  13.200 -1.3122 -0.4069  0.7949
12689TIP3    H159558   0.555   2.396  13.145  0.2156  0.1351  0.7699
12689TIP3    H259559   0.496   2.535  13.138  1.0373  0.4711  0.4054
12690TIP3   OH259560   1.233   0.097  15.880  0.1709 -0.1492 -0.5139
12690TIP3    H159561   1.298   0.029  15.865 -0.3050 -0.4287 -1.3459
12690TIP3    H259562   1.151   0.061  15.845 -0.3342  0.3777  0.1019
12691TIP3   OH259563   1.262   3.199  15.010 -0.3149  0.1744  0.1097
12691TIP3    H159564   1.233   3.270  14.953 -0.3267  0.0466 -0.0450
12691TIP3    H259565   1.305   3.243  15.084  1.9957  0.2841 -1.2394
12692TIP3   OH259566   1.693   3.379  10.866  0.4642  0.0101 -0.8830
12692TIP3    H159567   1.647   3.295  10.875 -1.4039  1.2835  1.9391
12692TIP3    H259568   1.654   3.418  10.787 -0.1477 -0.8364 -1.0168
12693TIP3   OH259569   6.698   5.524   2.952 -0.3043  0.1421 -0.2228
12693TIP3    H159570   6.774   5.466   2.948  0.1055  0.5648  1.1876
12693TIP3    H259571   6.645   5.500   2.876  0.1234 -1.7063  0.0519
12694TIP3   OH259572   3.756   0.322  10.560  0.1316  0.0600  0.0614
12694TIP3    H159573   3.680   0.370  10.593  0.1104  0.7740 -0.9959
12694TIP3    H259574   3.819   0.324  10.632 -1.8032 -2.7828  1.9123
12695TIP3   OH259575   0.455   1.530  15.445 -0.0850 -0.4825  0.3982
12695TIP3    H159576   0.514   1.562  15.514 -0.2720  0.6884  0.0306
12695TIP3    H259577   0.377   1.499  15.492 -0.1354  0.1402  0.7280
12696TIP3   OH259578   1.981   0.263  13.704  0.2157 -0.2137  0.2802
12696TIP3    H159579   1.956   0.179  13.740  1.5254 -0.7675 -0.0438
12696TIP3    H259580   1.914   0.283  13.639 -0.0821 -1.0366  0.3311
12697TIP3   OH259581   3.541   3.797   1.851 -0.7792 -0.1507  0.0377
12697TIP3    H159582   3.566   3.848   1.928  0.0514  0.4601 -0.6254
12697TIP3    H259583   3.622   3.751   1.827 -0.3596  1.5133 -1.8865
12698TIP3   OH259584   0.866   5.695  14.798  0.1226 -0.0203 -0.2472
12698TIP3    H159585   0.915   5.633  14.852  2.4500  1.1533 -0.9188
12698TIP3    H259586   0.859   5.773  14.854 -0.6506 -0.0556 -0.3005
12699TIP3   OH259587   0.690   0.130   4.865 -0.9378  0.3022  0.2846
12699TIP3    H159588   0.678   0.064   4.797 -0.6607  0.5546 -0.0086
12699TIP3    H259589   0.632   0.102   4.936  0.0801 -0.9178  0.6421
12700TIP3   OH259590   0.011   5.024  14.537 -0.2694  0.1048 -0.4032
12700TIP3    H159591  -0.078   5.007  14.566  0.2631 -0.0230  1.1971
12700TIP3    H259592   0.031   4.954  14.476 -0.5190 -1.0867  0.8640
12701TIP3   OH259593   1.383   5.099  14.741 -0.0006  0.2587 -0.0267
12701TIP3    H159594   1.322   5.160  14.784 -1.0196  0.1069 -1.2360
12701TIP3    H259595   1.339   5.074  14.660  1.2269 -0.6698 -0.4205
12702TIP3   OH259596   0.411   2.739  15.076  0.5968  0.0385 -0.0738
12702TIP3    H159597   0.347   2.684  15.120  0.4347  0.8170  0.6716
12702TIP3    H259598   0.477   2.757  15.142  0.6990  0.6503 -0.3392
12703TIP3   OH259599   1.264   5.430  16.734  0.6182  0.5494  0.1538
12703TIP3    H159600   1.259   5.340  16.767 -0.3970  0.6460  0.2741
12703TIP3    H259601   1.208   5.431  16.657 -1.7405  1.7898  1.8151
12704TIP3   OH259602   2.104   2.492   6.560  0.4634  0.1226  0.4139
12704TIP3    H159603   2.042   2.473   6.631 -1.2830  1.3254 -0.7645
12704TIP3    H259604   2.166   2.418   6.563 -1.8686 -1.9004  0.6883
12705TIP3   OH259605   6.231   2.904   2.182 -0.2887  0.0211  0.0846
12705TIP3    H159606   6.156   2.962   2.193 -0.8347 -0.5413 -0.5643
12705TIP3    H259607   6.272   2.933   2.100 -0.2300 -0.1383  0.0563
12706TIP3   OH259608   4.860   2.583  14.597 -0.3927  0.0056  0.0602
12706TIP3    H159609   4.781   2.539  14.565 -0.4911  0.2112  0.0225
12706TIP3    H259610   4.905   2.516  14.649  1.0122 -1.1066 -2.4932
12707TIP3   OH259611   6.684   6.682   3.199  0.0183 -0.8919  0.2199
12707TIP3    H159612   6.661   6.597   3.236  1.5812 -0.7423  1.6269
12707TIP3    H259613   6.779   6.688   3.211 -0.0874  1.0951  0.2502
12708TIP3   OH259614   3.660   0.926   0.137 -0.2241  0.6062  0.0571
12708TIP3    H159615   3.679   0.894   0.225 -0.9122 -2.1561 -0.7207
12708TIP3    H259616   3.660   0.847   0.083 -1.1615  2.0854 -2.1833
12709TIP3   OH259617   6.269   6.610  15.941 -0.4355  0.2025  0.1754
12709TIP3    H159618   6.329   6.651  16.004  1.0220 -0.4104 -0.7896
12709TIP3    H259619   6.186   6.605  15.988  0.5267  0.0978  1.9385
12710TIP3   OH259620   3.363   3.120   4.411  0.2392 -0.6066 -0.2276
12710TIP3    H159621   3.339   3.029   4.432  1.3499 -1.1568 -1.3119
12710TIP3    H259622   3.303   3.145   4.342  3.1093 -2.2366 -3.4725
12711TIP3   OH259623   3.074   2.749  12.036 -0.4309  0.1549  0.1762
12711TIP3    H159624   3.161   2.769  12.070 -0.3237 -0.7144  0.4257
12711TIP3    H259625   3.053   2.663  12.073 -0.9046 -0.1606 -0.8145
12712TIP3   OH259626   3.590   1.185   6.298 -0.8290  0.3861  0.2851
12712TIP3    H159627   3.620   1.267   6.338 -2.2394  0.6500  0.8357
12712TIP3    H259628   3.497   1.181   6.319 -1.2217 -0.3412 -1.5085
12713TIP3   OH259629   0.427   0.366  14.436  0.1520  1.2191  0.3053
12713TIP3    H159630   0.472   0.432  14.384  0.1239  1.3871  0.4942
12713TIP3    H259631   0.334   0.386  14.427 -0.0808 -0.8822 -2.4666
12714TIP3   OH259632   2.300   1.148  14.329  0.8144  0.3719 -0.1038
12714TIP3    H159633   2.335   1.068  14.367  0.7716  0.1842 -0.4596
12714TIP3    H259634   2.274   1.201  14.404 -0.6274 -0.5977  0.1078
12715TIP3   OH259635   3.820   4.181   5.435  0.1663  0.4871  0.0280
12715TIP3    H159636   3.906   4.202   5.400 -0.2467  1.1830 -0.5950
12715TIP3    H259637   3.772   4.264   5.434 -0.5468  0.0886  0.2577
12716TIP3   OH259638   4.561   4.985   2.451  0.0170 -0.3677  0.3443
12716TIP3    H159639   4.511   5.041   2.392 -0.3862 -1.3971 -0.2925
12716TIP3    H259640   4.564   4.900   2.408  2.5655 -0.2540  0.2323
12717TIP3   OH259641   5.116   2.607   1.273 -0.0531 -0.0282 -0.0851
12717TIP3    H159642   5.151   2.647   1.353  0.5383 -1.7014  0.5161
12717TIP3    H259643   5.043   2.552   1.303 -0.7379  0.4392 -0.8692
12718TIP3   OH259644   6.546   4.856   5.849 -0.6888 -0.0360 -0.1191
12718TIP3    H159645   6.547   4.871   5.943  0.9060 -1.9022  0.1710
12718TIP3    H259646   6.476   4.914   5.817 -1.3310  0.5259  2.1990
12719TIP3   OH259647   4.655   4.078  16.443  0.1619  0.1253 -0.3043
12719TIP3    H159648   4.619   4.166  16.437 -0.9887 -0.0715  2.6054
12719TIP3    H259649   4.630   4.035  16.361 -0.9712  1.8815 -0.9029
12720TIP3   OH259650   2.632   4.334  12.692 -0.5121 -0.2783 -0.3589
12720TIP3    H159651   2.556   4.370  12.645  0.4106  1.8669 -0.2364
12720TIP3    H259652   2.618   4.359  12.783  0.6105  0.5751 -0.4201
12721TIP3   OH259653   3.537   3.654  11.714  0.2712  0.2774  0.2773
12721TIP3    H159654   3.609   3.653  11.778  1.8771  0.1158 -1.4868
12721TIP3    H259655   3.471   3.597  11.751  2.0004 -1.3750  0.9035
12722TIP3   OH259656   4.663   1.340   5.261  0.3802 -0.5361 -0.2250
12722TIP3    H159657   4.678   1.344   5.167 -1.4646  0.7108 -0.4979
12722TIP3    H259658   4.696   1.424   5.294 -4.2322  1.5583 -0.6199
12723TIP3   OH259659   0.190   1.582   5.510 -0.0174 -0.7922  0.3429
12723TIP3    H159660   0.256   1.608   5.574  1.4473  0.3996 -1.6327
12723TIP3    H259661   0.238   1.529   5.446 -1.1599 -0.6781 -0.6216
12724TIP3   OH259662   5.285   1.849  15.484 -0.0630  0.5015  0.1504
12724TIP3    H159663   5.326   1.890  15.561 -2.3191  0.4968  1.3861
12724TIP3    H259664   5.191   1.861  15.498 -0.5939 -1.6464 -1.4403
12725TIP3   OH259665   4.589   0.028  15.334  0.0318 -0.1096  0.6705
12725TIP3    H159666   4.650   0.008  15.405  0.1474  0.4598  0.7324
12725TIP3    H259667   4.520  -0.039  15.343  0.9405 -1.1264  0.2264
12726TIP3   OH259668   1.266   5.844  13.658  0.3939  0.2579  0.4219
12726TIP3    H159669   1.223   5.889  13.732  0.2923 -1.2215  1.2790
12726TIP3    H259670   1.356   5.830  13.687  0.3711 -0.2723  0.2377
12727TIP3   OH259671   3.782   0.753  12.972 -0.2512 -0.1294  0.8282
12727TIP3    H159672   3.759   0.799  12.891 -0.1184  0.8043  1.3045
12727TIP3    H259673   3.700   0.748  13.021 -0.8229 -2.6860 -0.3006
12728TIP3   OH259674   2.968   0.249   0.715 -0.3353 -0.8206  0.1214
12728TIP3    H159675   2.983   0.237   0.621 -0.5101 -0.5508  0.0566
12728TIP3    H259676   2.920   0.332   0.721 -2.6839 -2.1383  0.2513
12729TIP3   OH259677   6.200   0.448   3.617  0.3164 -0.1089  0.1553
12729TIP3    H159678   6.191   0.499   3.698  2.4916  0.9637 -0.2506
12729TIP3    H259679   6.125   0.389   3.618 -0.8017  1.2809  1.9616
12730TIP3   OH259680   3.719   2.605  12.901  0.5510  0.3297 -0.2019
12730TIP3    H159681   3.746   2.640  12.816  0.6448 -0.3443 -0.4502
12730TIP3    H259682   3.709   2.511  12.886 -0.2584  0.3338  0.3216
12731TIP3   OH259683   2.289   2.567   5.603 -0.3722  0.0317 -0.4375
12731TIP3    H159684   2.348   2.556   5.529 -0.6346 -0.9958 -0.5078
12731TIP3    H259685   2.201   2.564   5.565 -0.4896  0.4575 -0.2022
12732TIP3   OH259686   0.551   4.989  10.911  0.1912 -0.6036  0.2335
12732TIP3    H159687   0.504   5.071  10.928 -0.4355 -0.9940  0.4011
12732TIP3    H259688   0.635   5.017  10.875 -0.5761  0.0693 -1.0435
12733TIP3   OH259689   4.858   2.825  14.394  0.2907 -0.1122  0.4435
12733TIP3    H159690   4.827   2.905  14.436  0.5776 -0.4465  1.3211
12733TIP3    H259691   4.941   2.806  14.439  0.7258 -0.3509 -0.4483
12734TIP3   OH259692   2.399   5.878  13.389  0.1743 -0.9277 -0.0176
12734TIP3    H159693   2.408   5.820  13.465  0.6823 -0.3238  0.4017
12734TIP3    H259694   2.480   5.865  13.340  0.8185  0.2670  0.6930
12735TIP3   OH259695   2.053   5.886   1.870 -0.4016 -0.5051 -0.3147
12735TIP3    H159696   2.080   5.798   1.897 -0.9840 -0.7336 -0.4839
12735TIP3    H259697   2.118   5.911   1.804 -0.0959 -0.7066 -0.0951
12736TIP3   OH259698   1.900   1.402  13.413 -0.2987 -0.3962  0.0921
12736TIP3    H159699   1.921   1.370  13.501 -2.2881  0.9626  1.0979
12736TIP3    H259700   1.933   1.492  13.411 -3.9380  1.0808  1.0111
12737TIP3   OH259701   2.958   1.477  17.125 -0.2212 -0.2815  0.7064
12737TIP3    H159702   2.897   1.548  17.108 -1.2776 -1.2142  0.4855
12737TIP3    H259703   2.942   1.454  17.217 -1.0062 -1.2575  0.3359
12738TIP3   OH259704   0.166   2.995   2.553  0.0400 -0.2447 -0.3242
12738TIP3    H159705   0.152   2.970   2.644 -0.7297  0.4010 -0.2653
12738TIP3    H259706   0.096   3.057   2.534  0.5923  0.1247 -1.1574
12739TIP3   OH259707   0.221   4.435  16.118  0.1642  0.1000 -0.0703
12739TIP3    H159708   0.282   4.377  16.074 -1.3771 -1.3777 -0.3187
12739TIP3    H259709   0.179   4.484  16.046 -0.4016 -0.3551 -0.0524
12740TIP3   OH259710   1.110   6.523   6.462 -0.3425 -0.5640  0.0514
12740TIP3    H159711   1.062   6.495   6.540  0.8929 -0.8742  0.7193
12740TIP3    H259712   1.140   6.442   6.421 -0.2019 -0.3687 -0.2416
12741TIP3   OH259713   1.764   3.407   3.150  0.0262 -0.2179 -0.4012
12741TIP3    H159714   1.670   3.390   3.158 -0.2473  1.1098 -0.7474
12741TIP3    H259715   1.792   3.350   3.078 -0.2913 -1.4607  0.4528
12742TIP3   OH259716   2.993   2.454   5.165 -0.0694 -0.8050  0.3440
12742TIP3    H159717   3.063   2.476   5.103 -0.2707 -0.6179  0.1800
12742TIP3    H259718   3.029   2.478   5.250 -1.2435  2.7520 -0.0476
12743TIP3   OH259719   2.311   0.809  14.862  0.0518  0.3717  0.0796
12743TIP3    H159720   2.225   0.771  14.846 -0.4773  2.1133 -1.3952
12743TIP3    H259721   2.373   0.744  14.829 -0.7208 -0.4484  0.2324
12744TIP3   OH259722   2.214   4.303   0.932 -0.2938  0.3137  0.1013
12744TIP3    H159723   2.240   4.219   0.894 -1.8014  0.7459 -2.0000
12744TIP3    H259724   2.296   4.346   0.954  0.6581 -0.0831 -2.4768
12745TIP3   OH259725   1.658   0.169  16.899 -0.1023  0.3225 -0.2402
12745TIP3    H159726   1.665   0.223  16.821 -1.5542  0.6149 -0.1840
12745TIP3    H259727   1.722   0.205  16.960 -0.9544  1.8733 -0.2594
12746TIP3   OH259728   5.008   4.363   1.472 -0.0501  0.0233  0.2304
12746TIP3    H159729   5.035   4.282   1.515  1.2200  1.5455  2.4695
12746TIP3    H259730   5.043   4.357   1.383  0.9425 -1.4393  0.7101
12747TIP3   OH259731   3.887   6.266   3.015  0.1510 -0.3362  0.2318
12747TIP3    H159732   3.833   6.283   2.938  1.9529 -2.7763 -1.6726
12747TIP3    H259733   3.935   6.347   3.030 -0.0233  0.0825 -1.4186
12748TIP3   OH259734   0.206   3.419   1.328 -0.0156 -0.1273  0.2993
12748TIP3    H159735   0.220   3.345   1.388  1.1463  0.1398  0.3732
12748TIP3    H259736   0.200   3.379   1.242  5.5018  0.0082 -0.3082
12749TIP3   OH259737   3.667   4.925   4.165  0.2320 -0.2112  0.1796
12749TIP3    H159738   3.648   5.016   4.141  0.6148  0.0966  1.0242
12749TIP3    H259739   3.672   4.879   4.081  1.2622  0.7953 -0.3270
12750TIP3   OH259740   5.372   2.268   3.267  0.3046  0.0189  0.7602
12750TIP3    H159741   5.388   2.237   3.178 -3.8100  0.8087 -0.3753
12750TIP3    H259742   5.388   2.362   3.263 -1.8006  0.3943  0.2550
12751TIP3   OH259743   4.148   1.817   5.188  0.0328  0.2249  0.3492
12751TIP3    H159744   4.215   1.810   5.120 -0.2566 -2.7745  0.3071
12751TIP3    H259745   4.187   1.874   5.254  1.7184  0.3215 -0.6986
12752TIP3   OH259746   5.737   4.083   3.249  0.2877 -0.1347 -0.6380
12752TIP3    H159747   5.762   4.045   3.334  2.9565 -1.0500 -1.7737
12752TIP3    H259748   5.680   4.156   3.272 -0.4193 -1.4133  1.8718
12753TIP3   OH259749   6.589   3.707  15.697 -0.0746 -0.7896  1.0071
12753TIP3    H159750   6.589   3.803  15.706 -1.0151 -0.8494  1.7118
12753TIP3    H259751   6.510   3.687  15.648  0.2098 -1.1944  0.7167
12754TIP3   OH259752   4.917   1.309   3.986 -0.6662 -0.2037  0.0751
12754TIP3    H159753   4.917   1.213   3.991 -0.2271 -0.2108 -0.0848
12754TIP3    H259754   4.825   1.333   4.001 -0.6493 -0.6088  0.8323
12755TIP3   OH259755   0.328   6.288   3.260  0.0460 -0.5521  0.5768
12755TIP3    H159756   0.349   6.310   3.169 -0.4515 -0.9389  0.3657
12755TIP3    H259757   0.390   6.220   3.284 -0.0387 -0.6872  0.4143
12756TIP3   OH259758   3.879   1.062   5.405 -0.3052  0.4260  0.2742
12756TIP3    H159759   3.908   1.112   5.329  0.6845  1.6948  1.4666
12756TIP3    H259760   3.942   0.990   5.412 -0.6275  0.0805 -0.3239
12757TIP3   OH259761   0.477   3.719   5.457  0.6649  0.0005 -0.2267
12757TIP3    H159762   0.477   3.775   5.379  0.9079  0.6900  0.2590
12757TIP3    H259763   0.534   3.646   5.434  0.1993 -0.1464 -0.9345
12758TIP3   OH259764   4.318   0.858   5.740 -0.0550 -0.1742  0.2993
12758TIP3    H159765   4.319   0.896   5.652 -2.0376 -1.4486 -0.2953
12758TIP3    H259766   4.247   0.904   5.785 -1.1590 -1.7546  0.2017
12759TIP3   OH259767   4.997   1.778  12.253  0.1760 -0.0469 -0.4365
12759TIP3    H159768   5.008   1.789  12.348 -1.5955  2.5638 -0.4775
12759TIP3    H259769   5.057   1.707  12.230 -0.2518 -1.5452  2.8158
12760TIP3   OH259770   1.375   1.677   0.949 -0.0893  0.2038 -0.1220
12760TIP3    H159771   1.356   1.616   0.878 -0.3451 -0.3635  0.4309
12760TIP3    H259772   1.300   1.736   0.951 -1.3604 -1.4046  1.3917
12761TIP3   OH259773   0.497   3.620   2.398  0.1617  0.2039  0.0966
12761TIP3    H159774   0.499   3.695   2.457  0.2164  0.4160 -0.1787
12761TIP3    H259775   0.539   3.650   2.318 -1.0652  0.3255 -0.5252
12762TIP3   OH259776   5.251   4.395   0.917  0.4001  0.2626 -0.8464
12762TIP3    H159777   5.195   4.471   0.898 -1.3293  0.5433  4.4562
12762TIP3    H259778   5.200   4.320   0.889 -1.1095  0.7472  0.4801
12763TIP3   OH259779   6.140   1.140  11.424  0.2151 -0.2191  0.4135
12763TIP3    H159780   6.160   1.192  11.346  2.0538  0.2125  1.1563
12763TIP3    H259781   6.045   1.146  11.433  0.1735  1.1628 -0.7843
12764TIP3   OH259782   4.701   0.564   1.968 -0.0132 -0.0119  0.2755
12764TIP3    H159783   4.731   0.621   1.897 -0.1558  0.4639  0.5960
12764TIP3    H259784   4.606   0.574   1.968 -0.0597 -0.4449  0.1703
12765TIP3   OH259785   4.099   0.110  11.907 -0.5402  0.5355  0.3195
12765TIP3    H159786   4.131   0.045  11.969 -0.6821  0.2356  0.0809
12765TIP3    H259787   4.004   0.109  11.917 -0.6676 -0.5053 -0.8693
12766TIP3   OH259788   5.022   4.297   2.656 -0.5053  1.0254 -0.3601
12766TIP3    H159789   5.093   4.238   2.629 -0.4131  1.1806 -0.4541
12766TIP3    H259790   5.045   4.381   2.618  0.2855  1.5640  1.2483
12767TIP3   OH259791   6.766   2.063  11.981 -0.2360 -0.1221  0.4237
12767TIP3    H159792   6.779   1.981  11.934 -1.3109 -0.8283  1.3202
12767TIP3    H259793   6.683   2.098  11.948 -0.6661 -0.2906  1.2897
12768TIP3   OH259794   5.554   3.432   4.022 -0.5202 -0.0451 -0.2017
12768TIP3    H159795   5.528   3.408   4.111  1.4370  0.5281  0.5725
12768TIP3    H259796   5.624   3.497   4.035  0.4749 -0.6856 -2.1372
12769TIP3   OH259797   3.457   1.861  14.512  0.4199  0.4359  0.1262
12769TIP3    H159798   3.431   1.893  14.426  1.6127  1.9307  0.2940
12769TIP3    H259799   3.409   1.915  14.574  2.2789  1.8099  0.4144
12770TIP3   OH259800   4.154   6.630  14.505  0.3067 -0.0596 -0.2002
12770TIP3    H159801   4.246   6.620  14.531  0.7069  1.4790 -0.9814
12770TIP3    H259802   4.158   6.665  14.416 -1.0440 -1.0262 -0.6522
12771TIP3   OH259803   3.402   0.586   1.678  0.1213 -0.0620  0.0485
12771TIP3    H159804   3.380   0.595   1.771 -2.6511 -0.9700 -0.4743
12771TIP3    H259805   3.411   0.675   1.646 -0.0581  0.2809  0.9423
12772TIP3   OH259806   2.819   5.104  16.445 -0.2339 -0.3025 -0.3640
12772TIP3    H159807   2.881   5.167  16.482  0.7352 -2.3693  1.6413
12772TIP3    H259808   2.733   5.144  16.462  0.4258  1.6088 -1.3399
12773TIP3   OH259809   5.289   3.035  14.881 -0.0220  0.3558 -0.1901
12773TIP3    H159810   5.323   3.028  14.792  2.1541  0.7829  0.5609
12773TIP3    H259811   5.312   3.124  14.908 -1.8078  0.6731  0.3681
12774TIP3   OH259812   0.890   4.132  15.940  0.3082  0.0169  0.2357
12774TIP3    H159813   0.936   4.144  16.023  0.4752  1.8555 -0.1073
12774TIP3    H259814   0.956   4.095  15.881  0.4546 -0.3924  0.6578
12775TIP3   OH259815   6.252   1.135  13.098  0.4769 -0.0425  0.1551
12775TIP3    H159816   6.318   1.159  13.033  0.4909 -0.0620  0.1618
12775TIP3    H259817   6.239   1.214  13.150 -1.3582  0.7182 -1.4164
12776TIP3   OH259818   4.926   1.367  16.169 -0.6539 -0.3487 -0.0121
12776TIP3    H159819   4.925   1.407  16.082 -1.4418 -1.1377 -0.3724
12776TIP3    H259820   4.855   1.412  16.216  0.5342  0.9000  0.6036
12777TIP3   OH259821   6.048   3.507   5.706 -0.1338 -0.4410  0.1899
12777TIP3    H159822   6.047   3.596   5.670 -0.2945 -0.5516 -0.0801
12777TIP3    H259823   5.985   3.459   5.653  0.4126 -0.8734 -0.0767
12778TIP3   OH259824   2.954   5.499   3.386 -0.2435  0.1987 -0.8950
12778TIP3    H159825   3.001   5.513   3.304 -0.4119  0.2037 -0.9918
12778TIP3    H259826   2.864   5.481   3.359 -0.5525  1.3900 -0.6517
12779TIP3   OH259827   5.830   0.640  10.913 -0.2071  0.3183  0.5396
12779TIP3    H159828   5.909   0.666  10.866 -0.3853  0.6389  0.4151
12779TIP3    H259829   5.759   0.684  10.866 -0.4628  0.0140  0.6372
12780TIP3   OH259830   2.617   4.796  13.865  0.3644 -0.3185  0.9493
12780TIP3    H159831   2.550   4.804  13.933  1.1307 -1.1644  1.8160
12780TIP3    H259832   2.698   4.825  13.907  0.4923  1.0586 -0.2096
12781TIP3   OH259833   0.749   5.048  16.429  0.2871  0.0069 -0.2905
12781TIP3    H159834   0.675   4.987  16.428 -0.3374  0.7567 -0.8044
12781TIP3    H259835   0.770   5.059  16.522  0.4648 -1.0603 -0.2059
12782TIP3   OH259836   2.322   4.196  17.206 -0.4315 -0.8167 -0.2076
12782TIP3    H159837   2.387   4.260  17.178 -0.2117 -1.3071 -0.8178
12782TIP3    H259838   2.256   4.196  17.136 -0.5201 -1.1282 -0.1250
12783TIP3   OH259839   3.202   4.880  14.454  0.5513  0.9189 -0.2220
12783TIP3    H159840   3.233   4.970  14.453  1.2066  0.6949 -0.3012
12783TIP3    H259841   3.277   4.829  14.485 -0.3172  0.5911  1.4330
12784TIP3   OH259842   0.824   2.585   6.553  0.1735  0.0554  0.3298
12784TIP3    H159843   0.835   2.668   6.506  1.7496 -0.7233 -0.6887
12784TIP3    H259844   0.913   2.551   6.563 -0.3895 -1.1250  1.4833
12785TIP3   OH259845   4.227   1.567  13.834 -1.1366  0.3691  0.0760
12785TIP3    H159846   4.189   1.517  13.906 -1.3254  0.5468  0.1021
12785TIP3    H259847   4.194   1.524  13.755 -0.6748 -0.0196  0.0936
12786TIP3   OH259848   5.624   0.117  11.628  0.0826 -0.2194  0.1513
12786TIP3    H159849   5.544   0.090  11.583 -0.4109  1.1173  0.2196
12786TIP3    H259850   5.603   0.109  11.721  0.0912 -0.0779  0.1657
12787TIP3   OH259851   4.101   5.634  11.818 -0.5971 -0.4154 -0.3801
12787TIP3    H159852   4.031   5.569  11.823 -0.5459 -0.3834  1.0184
12787TIP3    H259853   4.170   5.600  11.876 -0.4233  0.6838  0.0811
12788TIP3   OH259854   2.388   3.723   1.205  0.1222 -0.6029 -0.6581
12788TIP3    H159855   2.460   3.677   1.248  0.1569 -0.7240 -0.8474
12788TIP3    H259856   2.423   3.751   1.121  0.5958  1.1506  0.0983
12789TIP3   OH259857   4.663   0.489  12.635  0.6339  0.3795 -0.1672
12789TIP3    H159858   4.673   0.568  12.688 -1.2346 -0.6714  1.8101
12789TIP3    H259859   4.587   0.506  12.579 -0.4700 -0.4340  1.0649
12790TIP3   OH259860   4.723   2.481   2.203 -0.1356  0.8031  0.0454
12790TIP3    H159861   4.807   2.510   2.237  1.3208 -1.4791 -1.4273
12790TIP3    H259862   4.707   2.535   2.126  0.3007  0.8258 -0.0292
12791TIP3   OH259863   2.085   4.401   0.189  0.2289 -0.4924  0.1097
12791TIP3    H159864   2.062   4.309   0.177  1.0590 -0.6872  0.0356
12791TIP3    H259865   2.002   4.443   0.214 -0.6516 -0.8602 -2.0634
12792TIP3   OH259866   5.998   4.333   4.591  0.2148 -0.2338  0.4179
12792TIP3    H159867   6.045   4.389   4.653  1.0109 -0.9394  0.4692
12792TIP3    H259868   6.067   4.283   4.547 -0.3649  0.0544 -0.8375
12793TIP3   OH259869   1.816   5.704  17.081 -0.0045  0.3629 -0.2526
12793TIP3    H159870   1.766   5.772  17.036 -0.5220  0.5629  0.6101
12793TIP3    H259871   1.764   5.624  17.070 -1.1344  0.7960  1.6226
12794TIP3   OH259872   6.578   6.567   3.602  0.0841  0.1714 -0.2272
12794TIP3    H159873   6.534   6.495   3.556 -0.5824  0.4051  0.0425
12794TIP3    H259874   6.507   6.621   3.635  0.5897  1.0126 -0.5194
12795TIP3   OH259875   1.318   6.473   2.384 -0.1716  0.7588 -0.1141
12795TIP3    H159876   1.409   6.501   2.385 -0.0692  0.7310 -3.6372
12795TIP3    H259877   1.308   6.428   2.300 -2.6783 -1.8313  1.4818
12796TIP3   OH259878   2.569   5.506  16.557  0.0254  0.4033 -0.3778
12796TIP3    H159879   2.653   5.550  16.551  1.2108 -2.0390 -2.2594
12796TIP3    H259880   2.564   5.477  16.648  1.0286  0.9178 -0.1538
12797TIP3   OH259881   1.113   2.670   1.897  0.0093  0.5822 -0.2203
12797TIP3    H159882   1.054   2.694   1.826 -0.2230  0.8274  0.0555
12797TIP3    H259883   1.056   2.660   1.973  0.2023 -0.0697 -0.1550
12798TIP3   OH259884   3.431   6.035   1.929 -0.1917 -0.0501  0.1736
12798TIP3    H159885   3.444   6.046   2.024  0.6346  1.2049 -0.0781
12798TIP3    H259886   3.440   5.940   1.916  0.0620 -0.1984  1.3014
12799TIP3   OH259887   1.285   2.677  11.453  0.4866  0.5108 -0.0406
12799TIP3    H159888   1.243   2.656  11.370  0.1802  0.0003  0.2422
12799TIP3    H259889   1.375   2.697  11.430  0.8250 -1.2361 -0.3077
12800TIP3   OH259890   0.281   0.106  13.700 -0.0668  0.3905 -0.5163
12800TIP3    H159891   0.289   0.133  13.791  0.0059  0.2737 -0.4870
12800TIP3    H259892   0.319   0.018  13.697  1.4951  1.0630 -0.9840
12801TIP3   OH259893   6.819   1.769   1.145  0.3363  0.0187 -0.1145
12801TIP3    H159894   6.768   1.711   1.088 -0.0868 -0.4335  0.7190
12801TIP3    H259895   6.825   1.722   1.228 -0.3099  1.3300  0.6825
12802TIP3   OH259896   4.675   2.643   2.817  0.3950 -0.5623  0.3465
12802TIP3    H159897   4.619   2.566   2.809 -0.8065  0.4020 -0.6824
12802TIP3    H259898   4.629   2.701   2.878  0.8971 -0.3152  0.4961
12803TIP3   OH259899   4.984   3.565   0.674  0.0027  0.7733 -0.0176
12803TIP3    H159900   4.988   3.501   0.603 -1.3455 -0.4040  0.9124
12803TIP3    H259901   4.985   3.650   0.631  2.1383  0.1521 -1.2749
12804TIP3   OH259902   2.513   6.041   5.458 -0.0920 -0.0579 -0.2203
12804TIP3    H159903   2.530   6.058   5.366  0.5255 -2.6699 -0.6063
12804TIP3    H259904   2.483   6.126   5.492 -0.2811  0.9510 -2.7736
12805TIP3   OH259905   5.115   3.983  11.127  0.1355  0.1077 -0.3761
12805TIP3    H159906   5.178   4.054  11.118  0.4875 -0.3834 -1.9596
12805TIP3    H259907   5.083   3.968  11.038 -2.1035  0.2314  0.3640
12806TIP3   OH259908   6.738   3.522  13.832 -0.6528 -0.3458 -0.2280
12806TIP3    H159909   6.681   3.474  13.892 -0.1491  0.2611  0.7661
12806TIP3    H259910   6.744   3.467  13.754  0.4749 -2.2282  1.1499
12807TIP3   OH259911   0.918   6.031  14.704 -0.3753 -0.2614 -0.0675
12807TIP3    H159912   0.966   5.986  14.773 -0.2318  0.0400  0.0273
12807TIP3    H259913   0.839   6.063  14.746 -0.0376  0.3786  0.0753
12808TIP3   OH259914   2.778   1.092   0.081 -0.9104  0.0551  0.4936
12808TIP3    H159915   2.872   1.112   0.077 -1.2660  1.5708 -0.7562
12808TIP3    H259916   2.750   1.131   0.164 -0.8851  1.6883 -0.2475
12809TIP3   OH259917   2.693   0.935  13.821  0.2405  0.2108 -0.6795
12809TIP3    H159918   2.648   0.955  13.738 -0.0047 -0.6981 -0.7679
12809TIP3    H259919   2.639   0.977  13.888 -1.5595 -2.0407 -0.6506
12810TIP3   OH259920   4.811   4.095  13.503 -0.1582 -0.1411 -0.1032
12810TIP3    H159921   4.813   4.183  13.540 -0.9460 -1.1403  2.4707
12810TIP3    H259922   4.903   4.070  13.494  0.0626  0.0791  1.3925
12811TIP3   OH259923   6.202   5.532  11.563  0.0555 -0.1696  0.4923
12811TIP3    H159924   6.139   5.587  11.516 -0.3663 -0.2824  0.9218
12811TIP3    H259925   6.156   5.449  11.576  0.9690 -0.9024 -0.8461
12812TIP3   OH259926   0.330   5.639  16.913  0.0166  0.5101  0.0123
12812TIP3    H159927   0.302   5.593  16.992  0.2704 -0.6888 -0.5672
12812TIP3    H259928   0.250   5.678  16.877 -0.2711  0.2138  0.3334
12813TIP3   OH259929   0.640   3.941  13.073  0.0661 -0.2273 -0.0709
12813TIP3    H159930   0.555   3.905  13.101 -0.7416 -0.2672 -2.4850
12813TIP3    H259931   0.640   4.030  13.109 -0.7419 -0.4301  0.4610
12814TIP3   OH259932   6.212   2.737  14.168 -0.0018 -0.2016 -0.0144
12814TIP3    H159933   6.273   2.706  14.235  1.7036  1.0994 -0.9283
12814TIP3    H259934   6.162   2.806  14.211  1.3957  0.9385 -0.1952
12815TIP3   OH259935   1.116   3.866  16.765  0.0701 -0.8411  0.5472
12815TIP3    H159936   1.205   3.829  16.762  0.7948  0.7854  1.0730
12815TIP3    H259937   1.126   3.954  16.729 -1.3211 -0.5946  0.7405
12816TIP3   OH259938   3.719   6.032   1.448 -0.1792  0.1445 -0.0579
12816TIP3    H159939   3.680   5.978   1.380  1.6649 -1.2231 -0.0501
12816TIP3    H259940   3.656   6.028   1.521 -0.4830 -1.2452 -0.3917
12817TIP3   OH259941   4.196   1.466   1.714  0.0728  0.3083 -0.5803
12817TIP3    H159942   4.171   1.452   1.805  3.6488 -0.3950  0.3938
12817TIP3    H259943   4.170   1.385   1.669 -0.8018  0.2544  0.0081
12818TIP3   OH259944   0.618   0.874   1.878  0.4466  0.1043 -0.3570
12818TIP3    H159945   0.698   0.833   1.911 -0.1690 -1.0963 -0.3109
12818TIP3    H259946   0.557   0.801   1.865 -1.2306  1.1626  1.2465
12819TIP3   OH259947   3.286   5.113  16.377 -0.1665 -0.2318 -0.1544
12819TIP3    H159948   3.265   5.107  16.470 -0.6202 -0.1256 -0.2496
12819TIP3    H259949   3.238   5.190  16.346  0.8821  0.4056 -0.2321
12820TIP3   OH259950   4.400   6.582  16.837 -0.0973 -0.6277 -0.3474
12820TIP3    H159951   4.414   6.673  16.862 -0.7248 -0.8935  0.9885
12820TIP3    H259952   4.310   6.580  16.802 -0.4364 -0.9256  0.5339
12821TIP3   OH259953   4.261   0.495  16.051  0.3875 -0.2021  0.4364
12821TIP3    H159954   4.278   0.427  15.986 -2.1666 -1.6301  1.1999
12821TIP3    H259955   4.231   0.570  15.998  0.1033 -0.7405 -0.1775
12822TIP3   OH259956   0.492   3.219  15.322  0.5840 -0.5308 -0.3712
12822TIP3    H159957   0.412   3.166  15.319 -0.0524  0.3885  0.2488
12822TIP3    H259958   0.553   3.173  15.264 -0.5322 -0.9919 -1.2004
12823TIP3   OH259959   2.958   3.461   3.901  0.0002  0.3073  0.2069
12823TIP3    H159960   2.945   3.502   3.815  0.1051 -0.2823 -0.0950
12823TIP3    H259961   2.877   3.412   3.916 -0.5743  1.5044  1.0645
12824TIP3   OH259962   5.802   2.628   3.747 -0.6601 -0.2610 -0.2653
12824TIP3    H159963   5.884   2.634   3.795 -0.8542 -1.4953  0.2314
12824TIP3    H259964   5.738   2.600   3.812 -1.0581 -1.2757 -1.0816
12825TIP3   OH259965   6.569   6.128   5.443 -0.5701  0.3718  0.1719
12825TIP3    H159966   6.592   6.186   5.516 -2.1151  0.7058  0.4075
12825TIP3    H259967   6.616   6.164   5.368  1.3414 -0.1842  1.0459
12826TIP3   OH259968   1.653   1.059   5.111 -0.6022 -0.1823  0.0702
12826TIP3    H159969   1.726   1.121   5.114 -0.9538  0.2035  0.7971
12826TIP3    H259970   1.694   0.976   5.085 -0.4845  0.8186 -3.2010
12827TIP3   OH259971   0.570   4.570   4.050 -0.1373  0.1104 -0.4608
12827TIP3    H159972   0.665   4.563   4.051 -0.3142 -2.7179 -0.5342
12827TIP3    H259973   0.544   4.533   3.966 -1.2592  1.7959 -0.8832
12828TIP3   OH259974   0.505   2.945  14.020 -0.3040 -0.4499 -0.4132
12828TIP3    H159975   0.567   3.009  13.985  0.1725 -0.5711  0.2073
12828TIP3    H259976   0.426   2.995  14.039 -0.1023 -0.1421 -0.3932
12829TIP3   OH259977   0.971   0.979   1.225  0.2008  0.0756  0.3088
12829TIP3    H159978   0.892   1.027   1.201 -0.2525 -0.4625  0.7022
12829TIP3    H259979   1.009   1.030   1.297  0.3651  0.4882 -0.0723
12830TIP3   OH259980   6.751   3.906  15.445  0.1385  0.3273  0.4314
12830TIP3    H159981   6.760   3.879  15.354  2.4523 -0.5256  0.8684
12830TIP3    H259982   6.772   3.827  15.495 -4.4928 -0.2219  1.7560
12831TIP3   OH259983   4.514   4.525   2.278  0.0390  0.0067  0.4420
12831TIP3    H159984   4.553   4.467   2.344  0.5775 -0.1190  0.0163
12831TIP3    H259985   4.560   4.609   2.290  2.4408 -0.9080 -1.8896
12832TIP3   OH259986   6.279   2.266   6.180  0.1475 -0.1491 -0.1450
12832TIP3    H159987   6.237   2.335   6.230  0.2780  1.4174 -2.1630
12832TIP3    H259988   6.373   2.277   6.198  0.1555  0.0561 -0.3269
12833TIP3   OH259989   5.117   5.754   0.565  0.4174  0.4634 -0.1476
12833TIP3    H159990   5.086   5.728   0.478  0.6050 -1.4028  0.3084
12833TIP3    H259991   5.038   5.765   0.617  0.3602 -0.2943 -0.0636
12834TIP3   OH259992   6.562   3.850   6.462  0.1483  0.0544  0.0825
12834TIP3    H159993   6.599   3.865   6.549  0.2503 -1.0976  0.2480
12834TIP3    H259994   6.598   3.920   6.408  0.2120  0.6813  0.9305
12835TIP3   OH259995   5.999   5.293   1.731 -0.2455 -0.0773 -0.2809
12835TIP3    H159996   5.982   5.303   1.825 -1.6679  0.2287 -0.5625
12835TIP3    H259997   5.955   5.212   1.707  1.5113 -1.0402 -0.3685
12836TIP3   OH259998   3.041   4.660  14.431  0.3497 -0.4814  0.5992
12836TIP3    H159999   3.113   4.633  14.375 -1.5481  0.6520 -2.5012
12836TIP3    H260000   3.066   4.746  14.464 -0.7537  1.2061 -2.7729
12837TIP3   OH260001   4.381   1.434  15.209  0.2282  0.0399 -0.1551
12837TIP3    H160002   4.434   1.379  15.151  0.8444  0.9766 -0.5021
12837TIP3    H260003   4.303   1.454  15.159 -0.4245 -1.2621  0.3180
12838TIP3   OH260004   5.729   4.527  15.290 -0.1672  0.0981  0.4226
12838TIP3    H160005   5.754   4.475  15.214  1.1469  0.6998  0.4321
12838TIP3    H260006   5.716   4.615  15.255 -2.3716 -0.1836  0.4060
12839TIP3   OH260007   6.048   6.443   5.347  0.2573  0.1724  1.0916
12839TIP3    H160008   6.063   6.411   5.258 -0.7467 -0.1490  1.0314
12839TIP3    H260009   6.031   6.536   5.337 -1.7640 -0.2170  0.7318
12840TIP3   OH260010   3.433   1.296   0.714 -0.1234 -0.3779  0.4450
12840TIP3    H160011   3.476   1.328   0.635 -0.9628  0.2529  0.2345
12840TIP3    H260012   3.441   1.368   0.776  2.3691 -1.6576  1.6412
12841TIP3   OH260013   1.569   4.978  12.530  0.0469 -0.5755  0.2935
12841TIP3    H160014   1.540   5.023  12.610 -0.0986  0.8650 -0.5550
12841TIP3    H260015   1.551   5.041  12.460 -0.9465 -2.2893 -1.0135
12842TIP3   OH260016   2.184   3.376   5.419 -0.1394  0.6355 -0.8566
12842TIP3    H160017   2.257   3.411   5.470 -1.8269 -0.9980  2.9121
12842TIP3    H260018   2.215   3.290   5.389 -0.4829 -0.0767  0.7760
12843TIP3   OH260019   5.722   5.064  13.685  0.1343  0.5898 -1.0043
12843TIP3    H160020   5.690   5.008  13.613 -0.6108  0.9953 -0.9939
12843TIP3    H260021   5.776   5.129  13.642  0.7806  0.0275 -1.0493
12844TIP3   OH260022   5.033   1.903  13.034 -0.3449  0.0462  0.5998
12844TIP3    H160023   4.988   1.974  13.079 -0.5993  0.2394  0.0496
12844TIP3    H260024   5.011   1.825  13.085 -0.2085  0.3351  1.1015
12845TIP3   OH260025   4.163   5.299  16.401 -0.9984 -0.1775 -0.6785
12845TIP3    H160026   4.101   5.246  16.451 -1.1197 -0.7882 -1.4778
12845TIP3    H260027   4.140   5.285  16.310 -0.3250  0.3857 -0.9463
12846TIP3   OH260028   5.523   1.733  14.526 -0.6569 -0.5383  0.2330
12846TIP3    H160029   5.602   1.713  14.475 -0.2957  2.3843 -0.4735
12846TIP3    H260030   5.551   1.728  14.617  0.3984  0.6674 -0.0200
12847TIP3   OH260031   5.182   0.983   3.177  0.3347 -0.1588 -0.6433
12847TIP3    H160032   5.133   0.948   3.102 -2.5600 -0.4653  1.3095
12847TIP3    H260033   5.169   1.078   3.171 -1.0042 -0.2805  0.1820
12848TIP3   OH260034   1.190   6.204  15.118  0.4731 -0.3968  0.5390
12848TIP3    H160035   1.155   6.147  15.187 -0.7764  0.4330  0.6147
12848TIP3    H260036   1.259   6.153  15.076  0.8529 -1.1326  2.0283
12849TIP3   OH260037   5.238   5.577   1.581 -0.2423 -0.6296 -0.0519
12849TIP3    H160038   5.261   5.651   1.525 -1.2558  0.6268  1.1404
12849TIP3    H260039   5.185   5.520   1.525 -0.0102 -0.1204 -0.7961
12850TIP3   OH260040   0.723   5.262   3.545  0.4507  0.6323  0.4907
12850TIP3    H160041   0.737   5.184   3.599 -1.2263  1.2936  1.9404
12850TIP3    H260042   0.677   5.323   3.603  1.1075  2.4314 -0.8435
12851TIP3   OH260043   4.572   3.522   1.683 -0.5571 -0.2760 -0.4115
12851TIP3    H160044   4.526   3.480   1.611 -1.2265 -1.5100  0.7152
12851TIP3    H260045   4.511   3.517   1.757  1.2084 -1.5802  0.9868
12852TIP3   OH260046   0.436   0.438   3.052 -0.2624 -0.1473  0.5359
12852TIP3    H160047   0.388   0.385   2.988 -0.8007  0.5280  0.3708
12852TIP3    H260048   0.368   0.490   3.095  0.3433  0.8920  0.2427
12853TIP3   OH260049   2.986   6.437   6.485 -0.5569 -0.0556 -0.3251
12853TIP3    H160050   2.913   6.477   6.439  0.3775  0.4179 -1.4225
12853TIP3    H260051   2.976   6.343   6.469 -2.4119 -0.2677  1.7583
12854TIP3   OH260052   2.928   2.080  15.754 -0.1148  0.1220 -0.1789
12854TIP3    H160053   2.911   1.993  15.791  1.2258 -0.0288  0.0972
12854TIP3    H260054   3.015   2.073  15.715  0.7044  1.7934  1.2810
12855TIP3   OH260055   5.765   6.413  11.369 -0.7540  0.3211 -0.0429
12855TIP3    H160056   5.822   6.455  11.305  1.5662  0.3605  1.9549
12855TIP3    H260057   5.751   6.324  11.335  0.4954  0.3196 -0.5811
12856TIP3   OH260058   2.497   6.219   3.384 -0.1853  0.0645 -0.1486
12856TIP3    H160059   2.447   6.234   3.464  1.5528  0.9249  0.8041
12856TIP3    H260060   2.473   6.293   3.327  1.8235  1.8818  1.2619
12857TIP3   OH260061   5.437   6.103   2.885 -0.6620  0.2226  0.5053
12857TIP3    H160062   5.420   6.029   2.827 -0.7729  0.3007  0.4384
12857TIP3    H260063   5.353   6.148   2.893 -0.4032  0.8534 -0.1682
12858TIP3   OH260064   0.835   4.926   2.578 -0.0062 -0.1743 -0.2200
12858TIP3    H160065   0.849   4.838   2.613 -0.2332 -0.6164 -1.2375
12858TIP3    H260066   0.803   4.912   2.489 -0.4630  0.9285 -0.2404
12859TIP3   OH260067   2.684   6.108  11.900 -0.3042  0.3453  0.0042
12859TIP3    H160068   2.728   6.121  11.984  1.1513  2.3509 -1.0370
12859TIP3    H260069   2.752   6.075  11.841 -0.8231  0.8735 -0.9158
12860TIP3   OH260070   2.033   0.088  11.446  0.5022 -0.0742  0.4276
12860TIP3    H160071   2.009  -0.004  11.431 -1.7583  0.2924  1.6099
12860TIP3    H260072   2.006   0.133  11.366 -2.5487  0.2606  1.5737
12861TIP3   OH260073   1.042   0.577   0.712 -0.1681 -0.5061 -0.2758
12861TIP3    H160074   1.070   0.611   0.797 -0.1132 -1.0251 -0.0796
12861TIP3    H260075   0.954   0.612   0.700 -0.8593 -1.8145  0.8004
12862TIP3   OH260076   6.103   1.598  11.536  0.2200  0.4948 -0.5564
12862TIP3    H160077   6.150   1.530  11.489 -0.6068 -1.0670  0.7786
12862TIP3    H260078   6.148   1.605  11.620 -0.6794  0.4143 -0.0520
12863TIP3   OH260079   6.810   0.532  12.176  0.6376  0.0801  0.0934
12863TIP3    H160080   6.857   0.555  12.096  2.1200 -1.7755  0.4117
12863TIP3    H260081   6.876   0.539  12.245 -0.5925  1.5172  1.1510
12864TIP3   OH260082   5.203   1.083  15.439 -0.3841 -0.2485  0.6523
12864TIP3    H160083   5.112   1.096  15.468 -0.3003 -1.1998  1.3645
12864TIP3    H260084   5.228   1.167  15.401 -2.1270 -0.4674 -1.0803
12865TIP3   OH260085   1.790   3.238   0.748 -0.3517 -0.3182 -0.3495
12865TIP3    H160086   1.764   3.319   0.793 -0.3806 -0.6532  0.2381
12865TIP3    H260087   1.711   3.212   0.699 -0.6567 -0.5204  0.2419
12866TIP3   OH260088   3.423   5.114  12.467  0.2273 -0.6827  0.4941
12866TIP3    H160089   3.405   5.187  12.408 -1.3675 -1.0891  0.4573
12866TIP3    H260090   3.460   5.046  12.410  0.1816 -0.5010  0.2442
12867TIP3   OH260091   2.498   4.092   4.996 -0.3449 -0.0596  0.1650
12867TIP3    H160092   2.552   4.165   4.966 -0.6842 -0.1767 -0.7514
12867TIP3    H260093   2.412   4.109   4.957 -0.4282 -0.9296 -0.0371
12868TIP3   OH260094   6.280   6.607   5.199 -0.0194 -0.5930 -0.1424
12868TIP3    H160095   6.207   6.570   5.149 -0.1609 -2.6044  1.4645
12868TIP3    H260096   6.310   6.534   5.254  1.8155  0.8154  0.7630
12869TIP3   OH260097   1.616   0.200   5.562 -0.0043 -0.4046  0.0488
12869TIP3    H160098   1.711   0.192   5.565  0.1103  0.6118 -0.6890
12869TIP3    H260099   1.585   0.144   5.633  1.2132  0.3879  1.2285
12870TIP3   OH260100   0.053   5.341  14.107 -0.1556  0.1558  0.3367
12870TIP3    H160101   0.019   5.279  14.171 -0.8581  0.2795  0.0904
12870TIP3    H260102   0.044   5.296  14.023 -1.5026  0.9337  0.0593
12871TIP3   OH260103   5.802   5.612   1.699  0.3523  0.1525 -0.2483
12871TIP3    H160104   5.870   5.642   1.759  0.6604 -1.4637  0.2153
12871TIP3    H260105   5.757   5.542   1.746 -1.1415  0.6711 -0.8550
12872TIP3   OH260106   1.958   5.086   6.007  0.0159 -0.7064 -0.2992
12872TIP3    H160107   1.927   5.170   6.041  1.2375 -0.1109 -0.6418
12872TIP3    H260108   2.011   5.049   6.077  0.5335 -0.5988 -0.6291
12873TIP3   OH260109   6.022   4.695  16.220  0.2775  0.1835  0.6072
12873TIP3    H160110   5.996   4.627  16.158  1.2929 -0.1072  0.4800
12873TIP3    H260111   6.085   4.748  16.171  0.7213  0.2366  1.2335
12874TIP3   OH260112   1.283   3.705  16.615  0.2371 -0.1539 -0.2336
12874TIP3    H160113   1.290   3.675  16.524  0.3082 -1.3915  0.1736
12874TIP3    H260114   1.360   3.668  16.658 -1.3979 -2.1855  1.0418
12875TIP3   OH260115   1.969   3.155   0.989 -0.0468  0.5223 -0.0914
12875TIP3    H160116   1.997   3.211   1.061 -0.8399  1.9733 -0.9062
12875TIP3    H260117   1.874   3.166   0.984 -0.2594 -1.1295 -0.0690
12876TIP3   OH260118   0.249   0.223  10.943  0.2753 -0.5852 -0.4878
12876TIP3    H160119   0.305   0.280  10.995 -0.9331  2.5088 -2.4327
12876TIP3    H260120   0.295   0.213  10.860 -0.7390 -0.3323 -1.0833
12877TIP3   OH260121   2.769   3.395   0.928  0.3498  0.3178 -0.8337
12877TIP3    H160122   2.778   3.316   0.981 -1.0020  0.0375 -1.0056
12877TIP3    H260123   2.811   3.463   0.980  0.1412 -0.2090  0.0410
12878TIP3   OH260124   1.224   6.513  15.119  0.7083  0.1458  0.2091
12878TIP3    H160125   1.249   6.512  15.211  0.2158  1.2907  0.3737
12878TIP3    H260126   1.185   6.427  15.104 -1.2199  0.7223  1.6626
12879TIP3   OH260127   2.845   2.557   5.917  0.0888  0.2678 -0.4988
12879TIP3    H160128   2.822   2.606   5.838  0.2164  0.8342 -0.1899
12879TIP3    H260129   2.905   2.615   5.964  0.1038 -0.1163 -0.0450
12880TIP3   OH260130   4.086   1.353   0.348 -0.1716  0.3836  0.5422
12880TIP3    H160131   4.159   1.412   0.368  0.3322 -0.3299  0.8265
12880TIP3    H260132   4.015   1.383   0.404 -0.1065  1.0866  0.2604
12881TIP3   OH260133   3.657   3.195   3.342  0.0514  0.3479  0.2706
12881TIP3    H160134   3.662   3.195   3.246 -0.6755 -0.2440  0.2278
12881TIP3    H260135   3.732   3.141   3.369 -0.8408 -1.0935 -0.0489
12882TIP3   OH260136   3.597   3.586  11.446 -0.0902  0.1093 -0.4403
12882TIP3    H160137   3.606   3.606  11.539 -1.1961  0.0944 -0.3138
12882TIP3    H260138   3.521   3.528  11.442  0.4175 -0.5001 -1.2706
12883TIP3   OH260139   5.784   2.629   2.364 -0.2706  0.0262 -0.1647
12883TIP3    H160140   5.763   2.544   2.404 -1.2174  0.5075  0.3868
12883TIP3    H260141   5.866   2.614   2.316 -1.2648 -1.6254 -1.4107
12884TIP3   OH260142   6.271   2.966  16.858  0.5727  0.3692 -0.1973
12884TIP3    H160143   6.252   2.885  16.811 -0.2332  0.0275  0.6873
12884TIP3    H260144   6.249   3.036  16.796  0.5640 -0.0875 -0.7072
12885TIP3   OH260145   5.420   5.912   4.877  0.2861  0.6745  0.1822
12885TIP3    H160146   5.396   5.935   4.787  1.1018 -2.3055 -0.8992
12885TIP3    H260147   5.510   5.942   4.886  0.1625  1.0891  0.0369
12886TIP3   OH260148   6.637   2.000  17.087 -0.1098  0.6858  0.3342
12886TIP3    H160149   6.622   1.925  17.145 -1.5493  0.5368 -0.2083
12886TIP3    H260150   6.634   2.076  17.145  0.0909  0.4101  0.7073
12887TIP3   OH260151   2.268   4.841  14.957 -0.0830  0.1474  0.0770
12887TIP3    H160152   2.198   4.812  15.015 -1.1649  0.4991 -1.0132
12887TIP3    H260153   2.238   4.927  14.925 -0.0335 -0.5080 -1.8086
12888TIP3   OH260154   3.164   1.348   5.614 -0.1554 -0.5481 -0.1164
12888TIP3    H160155   3.198   1.367   5.701  0.4200  0.2331 -0.5078
12888TIP3    H260156   3.087   1.404   5.605  1.0167  0.9918 -0.9181
12889TIP3   OH260157   2.366   3.875  15.628  0.0866 -0.4536  0.7138
12889TIP3    H160158   2.406   3.827  15.701  3.0339 -1.6334 -1.5782
12889TIP3    H260159   2.425   3.950  15.614  0.6561 -1.3076 -1.6702
12890TIP3   OH260160   3.297   1.821   4.949  0.6518  0.4094 -0.6561
12890TIP3    H160161   3.210   1.787   4.970  1.5405 -1.0874  0.8059
12890TIP3    H260162   3.344   1.819   5.033  2.7110 -0.7677 -1.7900
12891TIP3   OH260163   4.408   2.103   3.534 -0.0971 -0.7070  0.3326
12891TIP3    H160164   4.489   2.124   3.581 -0.8803  1.5572  0.6990
12891TIP3    H260165   4.429   2.121   3.442 -0.8904  2.2326  0.6864
12892TIP3   OH260166   0.407   5.858  11.231  0.1575 -0.3470 -0.0236
12892TIP3    H160167   0.373   5.937  11.188 -2.6263 -0.7666  1.3214
12892TIP3    H260168   0.379   5.786  11.174  0.4013 -0.5712  0.1391
12893TIP3   OH260169   1.588   6.568  14.924  0.2847 -0.4491 -0.3752
12893TIP3    H160170   1.566   6.486  14.967 -0.1340 -0.4983 -0.6755
12893TIP3    H260171   1.671   6.551  14.880  1.0265 -0.2061  0.9227
12894TIP3   OH260172   0.403   1.938  13.144 -0.1247 -0.4526 -0.3989
12894TIP3    H160173   0.313   1.968  13.157 -0.1216  0.2119 -1.8980
12894TIP3    H260174   0.408   1.856  13.194 -1.2035  0.1084  0.6638
12895TIP3   OH260175   1.616   5.209  15.721  0.6058 -0.2511  0.4372
12895TIP3    H160176   1.575   5.145  15.779 -2.3267 -0.0437 -1.3490
12895TIP3    H260177   1.598   5.178  15.633  0.6064  2.1022 -0.4380
12896TIP3   OH260178   0.987   5.607   4.475  0.4100  0.0677  0.0069
12896TIP3    H160179   1.000   5.513   4.481  0.4300  0.1958  2.3715
12896TIP3    H260180   1.071   5.644   4.502  0.8638  0.7753 -2.2736
12897TIP3   OH260181   6.390   4.336  11.017  0.2008 -0.5113 -0.2566
12897TIP3    H160182   6.386   4.284  11.098  1.9650  0.1841  0.3034
12897TIP3    H260183   6.336   4.287  10.955  1.2485 -2.6523  0.4613
12898TIP3   OH260184   1.281   3.313  12.158  0.0401  0.3588 -0.6637
12898TIP3    H160185   1.193   3.324  12.122 -0.7011  2.2031  1.5533
12898TIP3    H260186   1.306   3.224  12.134 -2.3540 -0.1396 -1.4996
12899TIP3   OH260187   1.713   6.705  11.018  0.4528  0.1743  0.0404
12899TIP3    H160188   1.623   6.720  11.046 -0.4085 -0.9201 -1.9970
12899TIP3    H260189   1.732   6.777  10.957  0.9402  0.3830  0.4378
12900TIP3   OH260190   6.345   4.813  11.921  0.4819 -0.1575 -0.3220
12900TIP3    H160191   6.292   4.869  11.978 -0.3432  0.1802 -1.3896
12900TIP3    H260192   6.424   4.864  11.903  0.5615 -0.0996  0.1969
12901TIP3   OH260193   1.385   3.972   2.783  0.0683 -0.4278 -0.4059
12901TIP3    H160194   1.299   3.971   2.824 -0.3693  1.2711 -1.2220
12901TIP3    H260195   1.445   3.942   2.851 -0.9994 -0.3836  0.5617
12902TIP3   OH260196   4.896   3.640  15.310  0.5877 -0.5793 -0.3018
12902TIP3    H160197   4.917   3.728  15.340  0.6455  0.1155 -2.3335
12902TIP3    H260198   4.803   3.629  15.328  0.5432 -0.0373 -0.2194
12903TIP3   OH260199   1.269   6.803   4.404 -0.1241  0.1053  0.1619
12903TIP3    H160200   1.343   6.746   4.427  1.2802  1.6592 -0.3752
12903TIP3    H260201   1.273   6.875   4.467  0.3467  1.4769 -1.3750
12904TIP3   OH260202   2.125   1.694   4.743  0.1051  0.0767 -0.0335
12904TIP3    H160203   2.058   1.708   4.809 -0.1013  1.9061 -0.5977
12904TIP3    H260204   2.145   1.782   4.709  0.6930 -0.7401 -1.9020
12905TIP3   OH260205   6.190   3.726  13.864 -0.0305 -0.0834 -0.0886
12905TIP3    H160206   6.104   3.720  13.905  0.8011 -1.7407  1.5496
12905TIP3    H260207   6.247   3.756  13.935  0.9128 -0.0395 -0.8629
12906TIP3   OH260208   3.351   5.641  14.770 -0.3547 -0.6395  0.2309
12906TIP3    H160209   3.391   5.557  14.749  0.8032 -0.5030  1.8764
12906TIP3    H260210   3.423   5.704  14.765 -1.1486  0.2065 -0.6638
12907TIP3   OH260211   1.139   3.827  13.114  0.3553  0.1016 -0.2007
12907TIP3    H160212   1.051   3.861  13.133  0.6099  1.2588 -1.0383
12907TIP3    H260213   1.187   3.838  13.196 -0.7502 -2.1273  0.7991
12908TIP3   OH260214   4.823   6.777   2.520  0.7837 -0.0698 -0.2618
12908TIP3    H160215   4.766   6.782   2.443  2.6080  0.4612 -1.5944
12908TIP3    H260216   4.832   6.868   2.548  0.8316 -0.1798  0.0859
12909TIP3   OH260217   2.537   4.194   1.899 -0.4516 -0.1512 -0.6247
12909TIP3    H160218   2.445   4.212   1.878 -0.0318  1.6762 -1.0214
12909TIP3    H260219   2.583   4.208   1.816  0.2305 -0.7284 -0.3459
12910TIP3   OH260220   2.038   3.195   4.595  0.5658  0.1711 -0.2493
12910TIP3    H160221   2.128   3.229   4.596 -0.2377  2.4243 -1.3496
12910TIP3    H260222   2.028   3.157   4.508 -0.0203  1.2537 -0.6571
12911TIP3   OH260223   3.510   1.378   0.449  0.0847 -0.0346  0.1514
12911TIP3    H160224   3.477   1.456   0.404 -0.6065  0.6252  1.7822
12911TIP3    H260225   3.467   1.305   0.403 -0.6804  0.6338 -0.2118
12912TIP3   OH260226   0.787   4.064   5.089  0.0022  0.5099 -0.1050
12912TIP3    H160227   0.700   4.029   5.108  0.4929  0.3490  1.9304
12912TIP3    H260228   0.827   3.999   5.030 -1.4250  0.8582 -1.4926
12913TIP3   OH260229   1.537   4.670   3.673  0.1122  0.3635  0.3681
12913TIP3    H160230   1.589   4.687   3.595  0.8260 -1.1905  0.4830
12913TIP3    H260231   1.449   4.651   3.639 -0.3768  2.7697  0.1670
12914TIP3   OH260232   2.596   1.548   0.310 -0.3977 -0.7395 -0.0233
12914TIP3    H160233   2.638   1.589   0.385 -0.9250 -1.2196  0.5357
12914TIP3    H260234   2.651   1.572   0.236 -1.0325  1.4986  0.2050
12915TIP3   OH260235   2.856   1.109  12.946 -0.0670  0.1834 -0.1984
12915TIP3    H160236   2.823   1.117  12.856  0.3065  1.5558 -0.2314
12915TIP3    H260237   2.917   1.183  12.955  0.0458 -0.0641  1.1179
12916TIP3   OH260238   1.783   2.677  16.361  0.7638  0.6670 -0.7282
12916TIP3    H160239   1.863   2.723  16.387  2.2881 -0.6399 -2.9371
12916TIP3    H260240   1.814   2.598  16.317 -1.7710 -0.1616 -1.1104
12917TIP3   OH260241   4.129   2.248   3.536  0.2833  0.4628  0.2678
12917TIP3    H160242   4.207   2.221   3.584 -0.1968  0.0617  0.8248
12917TIP3    H260243   4.097   2.325   3.584  1.1495  1.5279 -0.8036
12918TIP3   OH260244   0.752   0.921  16.045 -0.1495  0.3348  0.3413
12918TIP3    H160245   0.685   0.854  16.054  0.2427 -0.2333 -0.9280
12918TIP3    H260246   0.819   0.896  16.109  0.4564 -1.0602 -0.8162
12919TIP3   OH260247   6.315   1.289  16.498  0.4028 -0.2598 -0.1465
12919TIP3    H160248   6.227   1.302  16.462  0.2618  0.2842  0.4056
12919TIP3    H260249   6.306   1.215  16.558  0.3424 -0.2562 -0.1521
12920TIP3   OH260250   3.311   3.055  12.150 -0.2670  0.6754  0.1014
12920TIP3    H160251   3.383   3.062  12.087 -1.5005 -1.2747 -1.5745
12920TIP3    H260252   3.343   2.994  12.216  0.1855  1.0126  0.2001
12921TIP3   OH260253   5.832   2.103   1.452  0.2326  0.4064  0.0679
12921TIP3    H160254   5.837   2.033   1.518  0.2801  0.5623  0.2307
12921TIP3    H260255   5.834   2.184   1.503  0.3814  0.5292 -0.1316
12922TIP3   OH260256   0.769   4.855   2.066 -0.2219 -0.1809 -0.4444
12922TIP3    H160257   0.757   4.881   2.157 -1.3267 -0.6249 -0.4561
12922TIP3    H260258   0.690   4.807   2.044 -0.0752  0.1397 -1.7169
12923TIP3   OH260259   5.169   4.226   2.921  0.5403  0.1475  0.3647
12923TIP3    H160260   5.122   4.153   2.960  0.3483 -0.9142 -1.8012
12923TIP3    H260261   5.100   4.280   2.881  0.9418 -0.3226 -1.0076
12924TIP3   OH260262   3.658   3.336  11.219  0.5594  0.9082  0.2960
12924TIP3    H160263   3.657   3.387  11.300  1.9629 -1.4972  1.8864
12924TIP3    H260264   3.714   3.386  11.160  2.7616  0.7461  2.1846
12925TIP3   OH260265   6.174   2.200  13.189 -0.7940  0.3334  0.1629
12925TIP3    H160266   6.153   2.288  13.220  0.5633  0.7367 -0.0449
12925TIP3    H260267   6.107   2.144  13.229 -1.1147  1.3278  1.0393
12926TIP3   OH260268   0.569   5.151   3.345  0.0847  0.5117 -0.8083
12926TIP3    H160269   0.489   5.188   3.381  0.2812  0.7717 -0.6351
12926TIP3    H260270   0.640   5.197   3.391  0.3338 -0.4435 -0.2235
12927TIP3   OH260271   0.009   4.490   3.354  0.2547 -0.4486  0.6034
12927TIP3    H160272  -0.068   4.515   3.406  1.1577  1.1292  1.2116
12927TIP3    H260273   0.004   4.545   3.276  0.5304 -0.6544  0.4398
12928TIP3   OH260274   3.141   3.108   0.641 -0.2501 -0.6634 -0.1767
12928TIP3    H160275   3.160   3.078   0.730  1.4055 -1.2373 -0.7171
12928TIP3    H260276   3.171   3.199   0.638 -0.5829 -0.5470 -0.0741
12929TIP3   OH260277   1.738   5.700   1.164  0.3113  0.5732  0.1356
12929TIP3    H160278   1.645   5.692   1.141 -0.0902 -0.2605  1.9228
12929TIP3    H260279   1.763   5.611   1.191  1.2536  1.1059  1.0183
12930TIP3   OH260280   2.598   1.040   7.078 -0.3221  0.5216 -0.1502
12930TIP3    H160281   2.637   0.980   7.014 -0.1480  0.6796 -0.1944
12930TIP3    H260282   2.598   1.125   7.033 -1.5943  0.3471 -0.5094
12931TIP3   OH260283   2.061   1.248  12.917 -0.4102 -0.0785 -0.0049
12931TIP3    H160284   2.105   1.169  12.884 -2.8504 -1.3366 -0.3901
12931TIP3    H260285   2.004   1.276  12.846 -0.5049  1.2962  0.6006
12932TIP3   OH260286   4.919   5.361   1.549  0.6775 -0.1322 -0.2312
12932TIP3    H160287   4.835   5.379   1.506  0.5334 -0.5139 -0.1100
12932TIP3    H260288   4.947   5.446   1.583  0.2172 -0.0499 -0.0548
12933TIP3   OH260289   6.662   0.446  11.741  0.3415  0.8010  0.6657
12933TIP3    H160290   6.742   0.458  11.690  1.4573  0.9079  2.3909
12933TIP3    H260291   6.686   0.384  11.810 -1.3098  0.1385  0.6756
12934TIP3   OH260292   6.388   3.253   2.193 -0.0985  0.0367 -0.3599
12934TIP3    H160293   6.459   3.303   2.151  0.3459 -0.4184 -0.1646
12934TIP3    H260294   6.375   3.178   2.135  1.0865 -1.0372  0.7191
12935TIP3   OH260295   1.597   4.076   0.712 -0.3978  0.0671 -0.1735
12935TIP3    H160296   1.505   4.091   0.731 -0.6429 -0.6647 -0.7506
12935TIP3    H260297   1.642   4.153   0.746 -1.2522  0.5540 -0.1483
12936TIP3   OH260298   4.072   6.500   3.671 -0.6546  0.3563  0.8257
12936TIP3    H160299   4.075   6.594   3.690 -0.7743  0.6165 -0.4247
12936TIP3    H260300   3.985   6.486   3.633 -0.1135 -0.0024 -0.3024
12937TIP3   OH260301   5.103   6.802  12.206  0.6021 -0.0562 -0.3292
12937TIP3    H160302   5.016   6.812  12.245  0.6350  0.1046 -0.2952
12937TIP3    H260303   5.158   6.864  12.254  0.4993  0.6197 -1.0626
12938TIP3   OH260304   5.925   0.804   4.713 -0.0772  0.3362 -0.0584
12938TIP3    H160305   5.865   0.864   4.669  0.7633  0.1861 -1.4316
12938TIP3    H260306   5.938   0.732   4.651  1.5142  0.3620  0.2177
12939TIP3   OH260307   0.196   2.549  15.531  0.1014 -0.1590 -0.4289
12939TIP3    H160308   0.132   2.495  15.579  0.5486 -1.1036 -0.8723
12939TIP3    H260309   0.274   2.493  15.525  0.6556  0.6395 -0.6837
12940TIP3   OH260310   4.231   3.947   1.062 -0.0942  0.4124 -0.1126
12940TIP3    H160311   4.244   4.023   1.007 -0.7906  1.0966  0.6531
12940TIP3    H260312   4.235   3.981   1.152  2.5384 -0.9086  0.3223
12941TIP3   OH260313   0.757   3.350   3.205  0.5201  0.0642 -0.0719
12941TIP3    H160314   0.806   3.431   3.223 -0.1661  0.5295 -0.2634
12941TIP3    H260315   0.778   3.293   3.279  0.4496  0.6832  0.4271
12942TIP3   OH260316   1.873   1.265   0.252 -0.1366  0.1561 -0.3481
12942TIP3    H160317   1.842   1.185   0.295 -0.4782  1.6714  2.3133
12942TIP3    H260318   1.967   1.266   0.268 -0.3721  1.1067  1.1097
12943TIP3   OH260319   2.258   5.134  12.754  0.1411 -0.1108 -0.0770
12943TIP3    H160320   2.173   5.116  12.715 -0.3587  0.0979  0.9109
12943TIP3    H260321   2.319   5.079  12.705 -0.4040  0.4908 -1.4598
12944TIP3   OH260322   4.201   0.990   0.011 -0.7763  0.3130  0.5670
12944TIP3    H160323   4.245   0.906  -0.001 -0.0350  0.5979  1.2564
12944TIP3    H260324   4.187   1.023  -0.078  3.2278  1.6821  0.3424
12945TIP3   OH260325   4.648   5.181  16.955 -0.1672  0.1923 -0.3133
12945TIP3    H160326   4.623   5.094  16.987  0.9687  0.5180  1.5546
12945TIP3    H260327   4.714   5.163  16.889 -1.5002 -0.4450 -1.4852
12946TIP3   OH260328   0.995   2.228  14.217 -0.4246  0.4802 -0.8668
12946TIP3    H160329   0.910   2.271  14.205 -1.5108 -1.3594 -0.0106
12946TIP3    H260330   0.974   2.145  14.259  1.9547  0.6163  0.6629
12947TIP3   OH260331   2.746   0.200   0.389 -0.0720 -0.8367  0.0337
12947TIP3    H160332   2.817   0.150   0.350  0.8122  0.9582 -0.7114
12947TIP3    H260333   2.677   0.199   0.321  0.1145 -0.6564 -0.1574
12948TIP3   OH260334   0.436   2.486  16.513 -0.2417  0.0938  0.2663
12948TIP3    H160335   0.424   2.559  16.453  0.7062  0.1563  0.1374
12948TIP3    H260336   0.457   2.527  16.597  1.6797 -0.0375 -0.1295
12949TIP3   OH260337   2.478   5.495   2.358 -0.4054 -0.2395 -0.1553
12949TIP3    H160338   2.481   5.517   2.451  1.5105 -0.4101 -0.1446
12949TIP3    H260339   2.445   5.405   2.355  0.9141 -0.7479  0.4692
12950TIP3   OH260340   0.348   4.637  13.218  0.4563  0.2642 -0.1795
12950TIP3    H160341   0.253   4.626  13.227  0.0248  1.8812 -2.3942
12950TIP3    H260342   0.382   4.548  13.218 -1.4313 -0.5083 -3.0253
12951TIP3   OH260343   3.704   5.360   5.146  0.1896 -0.1986  0.2593
12951TIP3    H160344   3.736   5.316   5.067  0.5891 -0.2832  0.4689
12951TIP3    H260345   3.665   5.290   5.198 -1.2374  0.0532 -0.4379
12952TIP3   OH260346   5.595   1.024  15.981 -0.1202  0.0828 -0.1426
12952TIP3    H160347   5.606   1.044  16.074  3.5165 -1.5617 -0.1374
12952TIP3    H260348   5.664   1.074  15.938 -1.6359  0.6503 -1.9947
12953TIP3   OH260349   1.852   2.540   3.953  0.3079  0.3257  0.2799
12953TIP3    H160350   1.903   2.516   4.030  2.4609  1.7156 -0.6554
12953TIP3    H260351   1.877   2.631   3.935 -2.4226  1.0175 -0.3093
12954TIP3   OH260352   6.312   3.834  16.798  0.0983 -0.6478  0.3501
12954TIP3    H160353   6.271   3.843  16.712  0.6968  0.0316  0.1354
12954TIP3    H260354   6.385   3.773  16.783 -1.4075 -2.6656  0.9378
12955TIP3   OH260355   5.191   5.253  16.728 -0.3775  0.4145 -0.5853
12955TIP3    H160356   5.172   5.185  16.663 -1.1237  0.0972 -0.0490
12955TIP3    H260357   5.243   5.318  16.681  0.9921 -0.8832 -0.9206
12956TIP3   OH260358   2.532   5.083  13.822 -0.1510 -0.2682  0.6891
12956TIP3    H160359   2.580   5.145  13.767 -0.2329  0.2494  1.1865
12956TIP3    H260360   2.577   5.088  13.907 -1.4108  0.6228  1.3187
12957TIP3   OH260361   5.951   1.192  14.436  0.0651 -0.2264 -0.4655
12957TIP3    H160362   6.029   1.161  14.482  0.5376  0.8484 -0.5143
12957TIP3    H260363   5.911   1.255  14.496 -0.5629 -0.4886 -0.6005
12958TIP3   OH260364   0.443   3.095  11.636  0.4133  0.4336  0.0873
12958TIP3    H160365   0.511   3.136  11.691 -0.3287  0.3844  1.0560
12958TIP3    H260366   0.443   3.147  11.556 -0.1469  2.0129  1.0957
12959TIP3   OH260367   3.106   6.277   1.602  0.1717  0.3696  0.5077
12959TIP3    H160368   3.121   6.337   1.528  0.0659 -2.0864 -1.5946
12959TIP3    H260369   3.188   6.277   1.650  0.5289  1.3911 -0.0822
12960TIP3   OH260370   3.989   4.525  16.739  0.3804 -0.5114  0.2671
12960TIP3    H160371   4.050   4.548  16.669  1.3521  1.9956  1.8824
12960TIP3    H260372   3.907   4.568  16.715  0.6469  0.1570  0.5589
12961TIP3   OH260373   6.688   2.411   2.746 -0.6161  0.6627  0.1626
12961TIP3    H160374   6.681   2.507   2.745  1.3807  0.8633  1.2619
12961TIP3    H260375   6.783   2.394   2.745 -0.9141 -1.2548  1.3821
12962TIP3   OH260376   5.203   5.396  11.185 -0.1517  0.8376 -0.1673
12962TIP3    H160377   5.195   5.490  11.202  1.2910  0.9706 -0.1503
12962TIP3    H260378   5.194   5.387  11.090  1.6248  1.2194 -0.3824
12963TIP3   OH260379   1.096   3.367   5.640  0.0146 -0.2314 -0.2869
12963TIP3    H160380   1.026   3.427   5.615 -0.0354  0.1809  0.8369
12963TIP3    H260381   1.101   3.305   5.567 -2.6548 -1.3113  0.3917
12964TIP3   OH260382   4.024   1.523   2.998  0.2629 -0.3891 -0.1047
12964TIP3    H160383   4.102   1.483   2.959  0.1532  0.1910 -0.9288
12964TIP3    H260384   3.951   1.484   2.951  0.1832  1.2868 -1.4018
12965TIP3   OH260385   1.175   4.253   5.026  0.0002 -0.4597  0.3097
12965TIP3    H160386   1.262   4.233   5.061  1.1388  1.9139 -0.9900
12965TIP3    H260387   1.117   4.253   5.102  1.6898  0.7967  1.6243
12966TIP3   OH260388   6.086   2.027  14.131  0.5087  0.3624  0.1035
12966TIP3    H160389   6.104   1.934  14.143 -2.0146 -0.0852  0.7816
12966TIP3    H260390   6.159   2.072  14.172  2.8418 -1.2923 -2.0631
12967TIP3   OH260391   2.855   4.986   2.083 -0.5756  0.1994  0.5715
12967TIP3    H160392   2.782   4.967   2.024 -0.9126  0.0250  1.0394
12967TIP3    H260393   2.843   4.925   2.156  0.1879 -0.0064  0.5283
12968TIP3   OH260394   1.897   2.950  12.882 -0.2183  0.4243  0.4057
12968TIP3    H160395   1.909   3.032  12.930 -1.8605  0.8331  0.1616
12968TIP3    H260396   1.807   2.924  12.903 -0.4690 -0.1294 -1.3427
12969TIP3   OH260397   4.333   0.043   2.264  0.1219 -0.1482  0.2229
12969TIP3    H160398   4.352   0.035   2.171 -0.7370  1.4554 -0.1037
12969TIP3    H260399   4.240   0.063   2.269  0.1911 -0.0508  1.4102
12970TIP3   OH260400   0.578   4.352   6.243  1.0781 -0.2435 -0.1242
12970TIP3    H160401   0.670   4.359   6.270  1.3939 -1.2494 -0.9166
12970TIP3    H260402   0.564   4.259   6.228  0.8254  0.2363 -3.0532
12971TIP3   OH260403   1.794   6.661   3.997 -0.0884 -0.0718 -0.8059
12971TIP3    H160404   1.758   6.653   3.908  1.3436  0.0873 -1.4182
12971TIP3    H260405   1.809   6.570   4.025 -1.4480 -0.1569 -0.3391
12972TIP3   OH260406   5.443   2.121  16.467  0.8063 -0.3964  0.2163
12972TIP3    H160407   5.451   2.213  16.491  0.8371 -0.2190 -0.4419
12972TIP3    H260408   5.404   2.123  16.379  0.3377 -1.0233  0.4088
12973TIP3   OH260409   3.798   0.296   2.438 -0.7987  0.1025  0.3204
12973TIP3    H160410   3.857   0.369   2.453  0.7387 -0.8579 -0.8319
12973TIP3    H260411   3.756   0.280   2.523  0.9798  0.4853  1.2886
12974TIP3   OH260412   5.751   4.782   5.725  0.4920 -0.9602  0.2690
12974TIP3    H160413   5.821   4.831   5.681 -1.1995 -1.1079 -2.7194
12974TIP3    H260414   5.684   4.848   5.744 -0.2615 -1.4708 -0.5449
12975TIP3   OH260415   5.872   6.553  14.238  0.0063  0.3933 -0.4239
12975TIP3    H160416   5.846   6.638  14.273  0.3069  0.9502 -1.5351
12975TIP3    H260417   5.925   6.574  14.161 -1.1294 -0.7991 -1.5693
12976TIP3   OH260418   4.926   3.976   2.846 -0.5363  0.1920  0.0728
12976TIP3    H160419   4.876   4.058   2.844  0.5887  0.8501 -1.5350
12976TIP3    H260420   4.905   3.933   2.763  0.7296 -0.0329 -0.1376
12977TIP3   OH260421   2.805   1.917   6.132 -0.0461 -0.4671  0.2150
12977TIP3    H160422   2.743   1.848   6.109 -0.2595 -0.2887  0.2581
12977TIP3    H260423   2.869   1.874   6.189 -1.2228 -0.1929  1.7454
12978TIP3   OH260424   1.917   2.529   4.625  0.1738  0.1008  0.2947
12978TIP3    H160425   1.990   2.556   4.569  1.4226 -1.0674  1.3215
12978TIP3    H260426   1.867   2.467   4.572  0.5966  0.0175 -0.0094
12979TIP3   OH260427   6.026   3.977  13.693  0.9967 -0.9529 -0.2315
12979TIP3    H160428   6.077   4.012  13.619  2.5460 -1.2897  0.6517
12979TIP3    H260429   6.070   3.895  13.715  1.3855 -0.1973  1.9214
12980TIP3   OH260430   1.368   1.287   1.489  0.4529  0.4869 -0.0834
12980TIP3    H160431   1.287   1.317   1.450  0.0825  1.4772  1.4023
12980TIP3    H260432   1.346   1.271   1.581  1.8066  0.2816  0.2173
12981TIP3   OH260433   6.513   1.201  12.501 -0.3554  0.5052 -0.0034
12981TIP3    H160434   6.477   1.208  12.413  0.4077 -3.8904 -0.8008
12981TIP3    H260435   6.459   1.134  12.544  1.1856  0.3679  1.7904
12982TIP3   OH260436   2.712   1.600  14.800 -0.1329 -0.1485  0.0923
12982TIP3    H160437   2.682   1.673  14.854 -0.4659 -1.8431  2.2498
12982TIP3    H260438   2.647   1.531  14.814  0.9279 -1.3640 -0.8206
12983TIP3   OH260439   6.405   3.212  11.109  0.4742  0.7679 -0.0221
12983TIP3    H160440   6.318   3.173  11.115 -0.4689  2.9700  1.5345
12983TIP3    H260441   6.409   3.248  11.021  0.4986 -0.8292 -0.6921
12984TIP3   OH260442   4.675   0.055  11.822 -0.1731  0.0474  0.3129
12984TIP3    H160443   4.727   0.088  11.894  0.2395  0.7082 -0.2838
12984TIP3    H260444   4.630  -0.022  11.858 -0.7313  0.9388  1.5349
12985TIP3   OH260445   0.426   1.345  10.865 -0.3583 -0.7805 -0.2975
12985TIP3    H160446   0.454   1.436  10.857  1.1105 -1.2080 -0.1394
12985TIP3    H260447   0.405   1.335  10.958  1.7933 -1.2466  0.1510
12986TIP3   OH260448   2.126   5.761  13.600 -0.2248  0.1844  0.0744
12986TIP3    H160449   2.193   5.820  13.565  0.2476  0.1195  0.8542
12986TIP3    H260450   2.131   5.773  13.695  0.5401 -1.8203  0.3220
12987TIP3   OH260451   1.131   3.696  15.864 -0.0063 -0.2106 -0.6336
12987TIP3    H160452   1.035   3.700  15.873 -0.0230 -0.5961 -0.6387
12987TIP3    H260453   1.149   3.740  15.781 -0.0254  1.5152  0.2518
12988TIP3   OH260454   4.530   5.910   3.962  0.1821  0.4410 -0.1355
12988TIP3    H160455   4.589   5.860   3.905  0.7145  0.6416  0.2327
12988TIP3    H260456   4.460   5.939   3.905  0.0069 -0.5033 -0.4127
12989TIP3   OH260457   5.282   2.008   5.403  0.1238 -0.4769 -0.1765
12989TIP3    H160458   5.292   1.916   5.428 -1.6277 -0.5603  0.3153
12989TIP3    H260459   5.234   2.048   5.476  2.2156  1.2012  0.3364
12990TIP3   OH260460   6.072   5.243  12.316  0.0320  0.1056 -0.2516
12990TIP3    H160461   6.002   5.181  12.339  0.0103 -0.6720 -2.2225
12990TIP3    H260462   6.141   5.227  12.379 -0.5243 -1.0047  0.0832
12991TIP3   OH260463   0.823   4.762   1.285 -0.2504  0.4288  0.1892
12991TIP3    H160464   0.782   4.721   1.361 -1.5932  1.6920  0.1665
12991TIP3    H260465   0.853   4.688   1.231 -0.6657 -0.4861  1.1913
12992TIP3   OH260466   4.622   1.693  10.741  0.3077  0.0707  0.2584
12992TIP3    H160467   4.619   1.643  10.823  0.0598 -0.7630 -0.2533
12992TIP3    H260468   4.562   1.647  10.683  0.5128  0.6404 -0.4084
12993TIP3   OH260469   2.005   2.855  17.133  0.1136 -0.5721  0.4049
12993TIP3    H160470   2.064   2.917  17.175 -1.2133  0.2643  1.0836
12993TIP3    H260471   1.976   2.901  17.053 -0.2198 -0.6493  0.4791
12994TIP3   OH260472   0.470   1.655   2.223 -0.1885  0.2758  0.0791
12994TIP3    H160473   0.512   1.690   2.145 -1.6584  0.9106 -0.4598
12994TIP3    H260474   0.376   1.663   2.205 -0.5581 -2.3335  0.6978
12995TIP3   OH260475   2.592   1.990   5.210 -0.0996  0.0032  0.4002
12995TIP3    H160476   2.644   2.067   5.232 -0.3664  0.0675  0.8160
12995TIP3    H260477   2.528   2.021   5.147 -1.4722  0.5784  2.0300
12996TIP3   OH260478   4.812   0.620  12.220 -0.0793 -0.2423 -0.2376
12996TIP3    H160479   4.903   0.627  12.190  0.0734  1.7657  0.6262
12996TIP3    H260480   4.765   0.686  12.170 -0.1418  1.9666  2.6233
12997TIP3   OH260481   6.252   0.319  13.724 -0.6869  0.3415 -0.2309
12997TIP3    H160482   6.236   0.240  13.776 -0.3529  1.2260  1.2533
12997TIP3    H260483   6.175   0.374  13.738 -0.6406  0.5441 -0.7559
12998TIP3   OH260484   2.010   6.169  15.548 -0.0499  0.0099  0.1251
12998TIP3    H160485   2.035   6.211  15.630 -3.4109 -3.2225  3.0281
12998TIP3    H260486   2.061   6.088  15.546 -0.8844 -0.5123 -0.3051
12999TIP3   OH260487   5.699   4.369   0.643  0.6015 -0.0705  0.6231
12999TIP3    H160488   5.696   4.318   0.724  1.1805 -2.4468 -0.7970
12999TIP3    H260489   5.787   4.405   0.640  0.8300 -0.6236  0.6688
13000TIP3   OH260490   3.983   0.055   2.398  0.5977  0.7100  0.0183
13000TIP3    H160491   3.955   0.052   2.489  1.1441 -1.4460  0.1353
13000TIP3    H260492   3.958   0.143   2.368 -1.5578  0.6693  1.5919
13001TIP3   OH260493   6.074   3.545   1.750 -0.2132  0.5657  0.0314
13001TIP3    H160494   6.070   3.600   1.672 -2.9585 -1.0840 -1.0670
13001TIP3    H260495   6.144   3.482   1.732 -1.5042 -0.4418 -1.5633
13002TIP3   OH260496   6.714   3.779  13.737 -0.0395 -0.0731 -0.5431
13002TIP3    H160497   6.654   3.776  13.662 -0.1105  1.2522 -0.5475
13002TIP3    H260498   6.696   3.699  13.785 -1.8598  0.3350 -0.5159
13003TIP3   OH260499   1.082   3.557   5.882  0.1372  0.3831  0.2267
13003TIP3    H160500   1.097   3.516   5.967 -0.7917  0.5985  0.4972
13003TIP3    H260501   1.113   3.492   5.819  0.2762 -0.0268  0.7106
13004TIP3   OH260502   5.024   6.553   2.030  0.3315 -0.1524 -0.2390
13004TIP3    H160503   5.059   6.563   2.119 -0.2945 -1.9440  0.2282
13004TIP3    H260504   4.954   6.618   2.025  1.5993  1.2561 -0.0825
13005TIP3   OH260505   2.095   3.421  13.479  0.4254 -0.5442  0.2299
13005TIP3    H160506   2.172   3.461  13.520 -0.5422 -0.0027  1.5558
13005TIP3    H260507   2.036   3.402  13.552 -1.5214  0.8411 -0.9462
13006TIP3   OH260508   2.807   4.187  11.132 -0.3395  0.4690 -0.7865
13006TIP3    H160509   2.817   4.099  11.168 -1.3912  0.6815  0.0506
13006TIP3    H260510   2.852   4.244  11.195 -0.6488  0.6518 -0.7312
13007TIP3   OH260511   0.485   5.914  17.263 -0.6335 -0.2235  0.0229
13007TIP3    H160512   0.578   5.916  17.285 -0.8564 -0.9368  1.0326
13007TIP3    H260513   0.449   5.993  17.303 -0.1414  0.9836 -1.8664
13008TIP3   OH260514   2.187   2.137   4.293 -0.1354  0.2744 -0.3561
13008TIP3    H160515   2.273   2.103   4.319 -0.8310 -1.7612 -0.6359
13008TIP3    H260516   2.161   2.193   4.367  1.8975  1.8524 -0.7695
13009TIP3   OH260517   1.550   5.366   5.467 -0.5289  0.1412 -0.3427
13009TIP3    H160518   1.577   5.318   5.545 -0.4528  1.0905  0.2203
13009TIP3    H260519   1.463   5.333   5.446 -0.9021  0.4838  0.6410
13010TIP3   OH260520   5.909   5.493  16.124  0.1471  0.0038  0.6256
13010TIP3    H160521   5.999   5.463  16.113  0.7211  1.7752  0.4203
13010TIP3    H260522   5.891   5.545  16.046 -1.7590 -1.9738 -0.3280
13011TIP3   OH260523   1.196   6.058  11.742  0.0288  0.9878 -0.0350
13011TIP3    H160524   1.137   6.038  11.669  0.2853  2.5317 -0.6946
13011TIP3    H260525   1.271   6.102  11.701  0.9019  0.4715  0.9812
13012TIP3   OH260526   0.290   1.017  14.650 -0.1937  0.3620 -0.0846
13012TIP3    H160527   0.200   1.018  14.681 -0.1173  0.5069  0.1283
13012TIP3    H260528   0.287   1.065  14.567  0.3065  3.4551  1.6002
13013TIP3   OH260529   3.427   3.276  13.255 -0.2527 -0.4195  0.0461
13013TIP3    H160530   3.479   3.337  13.308  1.2289 -1.8866  0.3053
13013TIP3    H260531   3.479   3.263  13.176 -1.2502 -0.2575 -0.6509
13014TIP3   OH260532   2.991   2.350   5.674  0.7987  0.0573  0.4211
13014TIP3    H160533   2.923   2.284   5.683  0.5277  0.1902 -0.6338
13014TIP3    H260534   2.997   2.390   5.760 -0.6862  0.2759  0.4212
13015TIP3   OH260535   6.122   6.187  15.924 -0.6046 -0.1403  0.4236
13015TIP3    H160536   6.088   6.276  15.921  0.0602  0.0635 -1.8071
13015TIP3    H260537   6.067   6.139  15.862  0.1775 -0.8737  0.2943
13016TIP3   OH260538   1.560   1.460   1.534 -0.0436  0.3245 -0.1075
13016TIP3    H160539   1.488   1.399   1.522  2.1675 -2.3541 -0.1515
13016TIP3    H260540   1.582   1.488   1.445  0.5796 -0.7980 -0.3142
13017TIP3   OH260541   0.561   5.009  12.216  0.2451  0.1024  0.1973
13017TIP3    H160542   0.469   5.030  12.230  0.9553  1.7641  2.8504
13017TIP3    H260543   0.597   5.086  12.172  0.3408 -0.6180 -0.9959
13018TIP3   OH260544   1.660   1.329  11.582  0.2959  0.2508 -0.1214
13018TIP3    H160545   1.594   1.281  11.631 -1.1145  1.9946 -0.2561
13018TIP3    H260546   1.611   1.394  11.532  1.8701 -0.2655 -2.4408
13019TIP3   OH260547   0.443   3.575   5.888  0.5158 -0.1899 -0.5363
13019TIP3    H160548   0.401   3.498   5.849 -1.4372  0.0483  1.0350
13019TIP3    H260549   0.370   3.629   5.919  1.9611  0.5598  1.6740
13020TIP3   OH260550   5.610   2.891  15.220 -0.1996 -0.3508  0.4231
13020TIP3    H160551   5.569   2.978  15.221 -0.2884 -0.3636 -0.7076
13020TIP3    H260552   5.684   2.901  15.160  0.1030 -0.9121  0.7114
13021TIP3   OH260553   5.181   4.722  15.871  0.2195  0.2248  0.6694
13021TIP3    H160554   5.187   4.738  15.777  0.8187 -0.5419  0.5755
13021TIP3    H260555   5.270   4.737  15.903  0.7128 -2.4904  0.6443
13022TIP3   OH260556   1.172   0.234  13.297  0.1404 -0.1644  0.1197
13022TIP3    H160557   1.137   0.200  13.379 -0.7330 -1.0127 -0.5927
13022TIP3    H260558   1.256   0.189  13.287  0.2311 -0.0882  0.5236
13023TIP3   OH260559   2.929   6.633   4.038  0.6664  0.0870  0.1262
13023TIP3    H160560   2.865   6.702   4.052  1.4607  1.2839 -1.8392
13023TIP3    H260561   2.881   6.552   4.052 -1.7743  0.9044 -2.9857
13024TIP3   OH260562   0.945   6.763   2.480  0.5426  0.0549  0.6978
13024TIP3    H160563   0.979   6.831   2.423 -0.2240 -0.8295 -0.8407
13024TIP3    H260564   0.907   6.810   2.554 -0.9077  1.3647 -0.8393
13025TIP3   OH260565   3.347   3.555   4.737  0.2666  0.1721 -0.7380
13025TIP3    H160566   3.438   3.562   4.707 -0.2833  0.4409 -2.3698
13025TIP3    H260567   3.329   3.461   4.735  0.3607  0.1556 -0.8622
13026TIP3   OH260568   3.244   1.012  16.616  0.9117 -0.0313  0.3952
13026TIP3    H160569   3.241   1.107  16.611 -0.5185 -0.0952 -0.2168
13026TIP3    H260570   3.217   0.992  16.706 -2.1536  0.0303 -0.4749
13027TIP3   OH260571   4.658   5.414   5.978  0.1512 -0.2008  0.3026
13027TIP3    H160572   4.702   5.466   6.045  2.0387 -0.5605 -0.5973
13027TIP3    H260573   4.675   5.323   6.003 -1.1857 -0.3561  0.6409
13028TIP3   OH260574   5.303   3.451   4.890  0.1993  0.1082 -0.1279
13028TIP3    H160575   5.296   3.401   4.808  1.1120  0.1255 -0.2233
13028TIP3    H260576   5.247   3.403   4.952  1.0215 -1.0233 -0.2306
13029TIP3   OH260577   6.386   3.893  11.399  0.3138 -0.5949  0.1149
13029TIP3    H160578   6.427   3.905  11.485 -0.1277  0.7303  0.1572
13029TIP3    H260579   6.449   3.841  11.349  1.5073  0.3920  0.5693
13030TIP3   OH260580   2.427   1.389   5.605  0.1734 -0.3922 -0.6021
13030TIP3    H160581   2.444   1.366   5.514  0.8950 -1.3360 -0.2352
13030TIP3    H260582   2.394   1.309   5.645 -0.9527  0.2452 -0.2302
13031TIP3   OH260583   4.095   3.173  14.548 -0.6326 -0.3126 -0.5250
13031TIP3    H160584   4.178   3.140  14.512 -1.6184 -2.4780 -0.9268
13031TIP3    H260585   4.040   3.186  14.471 -1.2280 -0.5480 -0.1423
13032TIP3   OH260586   5.428   4.884  12.784  0.0059 -0.3172 -0.1761
13032TIP3    H160587   5.469   4.803  12.753 -2.0844 -1.6724  0.5177
13032TIP3    H260588   5.497   4.927  12.834  1.6608 -0.8437 -1.9187
13033TIP3   OH260589   1.124   4.000   1.446 -0.3742 -0.2390  0.0371
13033TIP3    H160590   1.030   4.002   1.463  0.1048 -2.4705  3.3192
13033TIP3    H260591   1.138   3.916   1.402 -0.0169  0.5377 -1.3728
13034TIP3   OH260592   2.884   5.234   1.024  0.4446  0.1026 -0.0712
13034TIP3    H160593   2.943   5.238   1.098  0.9613  1.8200 -0.5574
13034TIP3    H260594   2.847   5.146   1.027  1.2892 -0.2012  1.5667
13035TIP3   OH260595   1.378   6.217  11.620  0.0461  0.5561  0.4449
13035TIP3    H160596   1.378   6.264  11.536  1.8834  1.0252  0.6687
13035TIP3    H260597   1.445   6.263  11.672 -0.8102  0.0351  2.0325
13036TIP3   OH260598   3.544   4.980   1.172 -0.3666 -0.0466  0.2333
13036TIP3    H160599   3.476   4.983   1.106 -2.0397 -0.9876  1.8790
13036TIP3    H260600   3.508   4.925   1.242  2.3651 -1.2094  0.8003
13037TIP3   OH260601   0.639   6.733  13.371  0.4801 -0.4970  0.4502
13037TIP3    H160602   0.588   6.654  13.356  0.6187 -0.4917 -0.0917
13037TIP3    H260603   0.729   6.707  13.348  0.3190  0.1647 -0.9472
13038TIP3   OH260604   5.451   4.858   1.229  0.5424 -0.4596 -0.1331
13038TIP3    H160605   5.507   4.805   1.173  1.4386 -1.6972  1.8478
13038TIP3    H260606   5.496   4.859   1.314 -1.2160  0.5575  0.8349
13039TIP3   OH260607   5.398   5.861  11.681 -0.1532  0.5367  0.3842
13039TIP3    H160608   5.341   5.934  11.705  1.4494  1.7668  0.5272
13039TIP3    H260609   5.475   5.870  11.738 -0.2104 -1.6378  0.8558
13040TIP3   OH260610   5.627   2.340  14.286 -0.3631  0.0309 -0.3348
13040TIP3    H160611   5.580   2.376  14.361  1.2091 -0.0531  0.7329
13040TIP3    H260612   5.592   2.251  14.277 -1.0479  0.2749 -0.1310
13041TIP3   OH260613   0.427   2.621  10.965 -0.1195 -0.1726  0.2599
13041TIP3    H160614   0.519   2.609  10.990 -0.2177 -1.6970 -0.0642
13041TIP3    H260615   0.430   2.671  10.884  0.4046  0.1080  0.4489
13042TIP3   OH260616   1.830   6.793   4.801 -0.2421 -0.3716 -0.2039
13042TIP3    H160617   1.752   6.828   4.759  0.6764  1.6643 -0.2732
13042TIP3    H260618   1.863   6.866   4.853  1.4656 -1.3049  0.0369
13043TIP3   OH260619   5.774   5.455  15.237  0.2793  0.2495 -0.0944
13043TIP3    H160620   5.790   5.361  15.227  0.4074 -0.0208  2.3311
13043TIP3    H260621   5.687   5.469  15.200  1.2412 -0.3608 -2.7028
13044TIP3   OH260622   5.103   1.073  13.745 -0.2261 -0.4230  0.4655
13044TIP3    H160623   5.018   1.113  13.761 -1.4716 -3.7804  2.8018
13044TIP3    H260624   5.151   1.084  13.827  0.7373 -0.6661 -0.0504
13045TIP3   OH260625   5.871   1.796  14.723  0.5859 -0.2269 -0.0663
13045TIP3    H160626   5.791   1.749  14.746  1.5966 -2.4212 -0.8916
13045TIP3    H260627   5.848   1.844  14.644 -1.9397  4.7928  3.4781
13046TIP3   OH260628   1.883   3.209  11.102  0.2907 -0.5395 -0.3551
13046TIP3    H160629   1.911   3.231  11.191 -2.0341 -0.8074  0.5011
13046TIP3    H260630   1.888   3.114  11.098  1.1593 -0.4745 -0.7813
13047TIP3   OH260631   3.776   0.286   0.451  0.3285  0.2044 -0.2538
13047TIP3    H160632   3.689   0.256   0.478 -0.0825  0.9774 -0.7009
13047TIP3    H260633   3.770   0.296   0.356  0.2948  2.1618 -0.0800
13048TIP3   OH260634   2.667   5.955  11.178  0.4736 -0.2960  0.0698
13048TIP3    H160635   2.726   5.980  11.107 -2.9370  2.8756 -1.8214
13048TIP3    H260636   2.697   6.008  11.252  0.7560  0.4151 -0.5427
13049TIP3   OH260637   1.735   1.199  16.959  0.2306  0.7131 -0.5225
13049TIP3    H160638   1.714   1.108  16.940  1.7489  0.5444 -1.4939
13049TIP3    H260639   1.653   1.246  16.946 -1.0073 -0.7308  1.6634
13050TIP3   OH260640   1.476   0.713   3.234 -0.0163  0.4085 -0.1322
13050TIP3    H160641   1.389   0.691   3.265 -0.2413  1.2501 -0.1607
13050TIP3    H260642   1.466   0.799   3.192  1.0179  1.0136  0.8094
13051TIP3   OH260643   4.013   2.611  13.850  0.3627  0.3319 -0.4065
13051TIP3    H160644   4.019   2.665  13.929  0.9166 -0.2247 -0.0591
13051TIP3    H260645   4.042   2.524  13.879 -0.2400 -0.0748 -1.0277
13052TIP3   OH260646   6.304   1.321  16.962  0.4041  0.6863 -0.1882
13052TIP3    H160647   6.335   1.234  16.936  2.8750  2.0538 -2.0513
13052TIP3    H260648   6.303   1.319  17.058  1.4361 -1.0479 -0.2086
13053TIP3   OH260649   4.745   0.909  17.286 -0.0800 -0.5899 -0.2134
13053TIP3    H160650   4.826   0.959  17.297 -0.5697 -0.0790  1.1802
13053TIP3    H260651   4.727   0.913  17.192  1.3424 -0.4511 -0.5048
13054TIP3   OH260652   5.171   5.111   4.175  0.0622 -0.0624  0.2947
13054TIP3    H160653   5.088   5.087   4.216 -0.9933  1.0299 -1.1821
13054TIP3    H260654   5.195   5.194   4.215 -0.3862  0.4240 -0.4223
13055TIP3   OH260655   5.695   3.206   3.890  0.1994 -0.4259  0.4218
13055TIP3    H160656   5.667   3.248   3.809 -0.6992 -0.2034  0.8319
13055TIP3    H260657   5.668   3.267   3.959 -3.0302 -2.5923  1.1863
13056TIP3   OH260658   3.306   6.693   3.830 -0.0786  0.0501  0.0500
13056TIP3    H160659   3.385   6.696   3.885 -0.2877 -0.9868  0.4205
13056TIP3    H260660   3.298   6.782   3.794  0.4660  0.5398  1.1235
13057TIP3   OH260661   2.039   3.930  16.886 -0.1063  0.0869 -0.2115
13057TIP3    H160662   2.017   3.876  16.963 -1.6441  0.6267 -0.2582
13057TIP3    H260663   1.957   3.972  16.862  0.1714 -0.6633 -2.6390
13058TIP3   OH260664   6.654   1.052  15.529 -0.1759 -0.3224  0.7739
13058TIP3    H160665   6.661   1.004  15.612 -1.5042  1.1664  1.7702
13058TIP3    H260666   6.662   1.144  15.554 -1.0376  0.1693 -0.6940
13059TIP3   OH260667   3.663   1.186   0.025 -0.0254 -0.4417 -0.3390
13059TIP3    H160668   3.748   1.200   0.068  1.1144 -0.0132 -2.6311
13059TIP3    H260669   3.622   1.116   0.076  2.6406 -2.1998 -0.4552
13060TIP3   OH260670   6.145   2.178   5.448  0.3354 -0.1261 -0.6476
13060TIP3    H160671   6.171   2.270   5.440 -0.0053  0.0814  0.5920
13060TIP3    H260672   6.071   2.179   5.509  0.7553 -1.2971 -0.1087
13061TIP3   OH260673   1.537   5.476  12.509  0.3891  0.2214 -0.0527
13061TIP3    H160674   1.622   5.438  12.530  0.6477  0.0762 -1.3147
13061TIP3    H260675   1.557   5.559  12.466 -0.1153  0.3721 -0.0025
13062TIP3   OH260676   2.587   4.146   1.607 -0.2864 -0.7281  0.2379
13062TIP3    H160677   2.633   4.190   1.535  2.5238 -3.1136  0.4513
13062TIP3    H260678   2.512   4.104   1.565 -0.5986  0.7114 -0.6823
13063TIP3   OH260679   4.591   2.915   6.304  0.2678 -0.1942  0.0967
13063TIP3    H160680   4.663   2.958   6.350  1.2682 -1.4622 -0.2647
13063TIP3    H260681   4.606   2.822   6.318  0.2403 -0.5846 -2.2543
13064TIP3   OH260682   4.315   1.694   6.016  0.3134  0.2565  0.2729
13064TIP3    H160683   4.251   1.634   6.052  0.0566 -0.5345 -1.4650
13064TIP3    H260684   4.286   1.781   6.045 -1.3386 -0.1312 -0.2091
13065TIP3   OH260685   0.706   0.588  10.590  0.3604 -0.0220 -0.4932
13065TIP3    H160686   0.684   0.652  10.658  0.6599  0.4735 -0.8597
13065TIP3    H260687   0.785   0.546  10.622  0.9315  0.7389 -0.8823
13066TIP3   OH260688   6.145   0.203  12.999 -0.5431 -0.1917  0.1194
13066TIP3    H160689   6.219   0.241  12.951 -0.7349 -1.0358 -0.8575
13066TIP3    H260690   6.154   0.109  12.987 -0.2892 -0.4593  2.2328
13067TIP3   OH260691   1.648   1.126  15.795 -0.0720 -0.3311 -0.6288
13067TIP3    H160692   1.661   1.221  15.793  3.3786 -0.7210 -4.9982
13067TIP3    H260693   1.558   1.113  15.766 -1.3760  1.6332  2.3445
13068TIP3   OH260694   4.201   3.178  11.977 -0.6783 -0.4107  0.0803
13068TIP3    H160695   4.179   3.102  11.923 -1.2716  1.0473 -1.8051
13068TIP3    H260696   4.290   3.160  12.009 -0.3735 -1.3763 -1.2628
13069TIP3   OH260697   5.402   5.048   3.273  0.5548 -0.3569 -0.0478
13069TIP3    H160698   5.484   5.060   3.321  0.9116 -0.0895 -0.7083
13069TIP3    H260699   5.350   5.126   3.295  0.6992 -0.2589 -0.0491
13070TIP3   OH260700   6.046   0.786   5.772  0.7090 -0.0861  0.6795
13070TIP3    H160701   6.105   0.821   5.839 -1.0580  0.4554  2.0108
13070TIP3    H260702   5.970   0.756   5.821  0.3042 -1.7351 -0.9038
13071TIP3   OH260703   3.531   5.500   2.022 -0.2355 -0.5578 -0.5517
13071TIP3    H160704   3.580   5.567   2.070 -1.4308 -0.1580  0.1310
13071TIP3    H260705   3.593   5.468   1.957  0.3221  1.3403 -1.0087
13072TIP3   OH260706   5.673   1.382  17.011  0.0578 -0.2491  0.0337
13072TIP3    H160707   5.700   1.364  16.921  0.7693 -3.0789  0.7527
13072TIP3    H260708   5.738   1.443  17.044 -0.5283  1.2585 -1.5199
13073TIP3   OH260709   2.044   3.677  12.941  0.1447 -0.0891 -0.4830
13073TIP3    H160710   2.004   3.649  13.024  2.6989 -2.9273 -0.1201
13073TIP3    H260711   2.136   3.653  12.949  1.0986  2.4560 -2.9577
13074TIP3   OH260712   4.467   6.029  12.353 -0.5235  0.2063 -0.2536
13074TIP3    H160713   4.374   6.049  12.358 -0.6415 -0.2691 -0.4860
13074TIP3    H260714   4.506   6.107  12.313 -0.6755  0.8088  0.7460
13075TIP3   OH260715   1.632   3.381   1.745  0.0181  0.0227  0.4284
13075TIP3    H160716   1.559   3.321   1.726  0.3026 -0.3771  0.5749
13075TIP3    H260717   1.609   3.420   1.829 -0.0826 -0.0212  0.4224
13076TIP3   OH260718   1.724   1.219   0.046 -0.7283 -0.0944 -0.1193
13076TIP3    H160719   1.778   1.225   0.125 -0.6522 -1.0000 -0.0958
13076TIP3    H260720   1.727   1.126   0.021  0.1363  0.3690 -1.8105
13077TIP3   OH260721   2.763   1.668  17.116 -0.0680  0.1873 -0.3527
13077TIP3    H160722   2.791   1.751  17.154 -0.6842  0.1970  0.0948
13077TIP3    H260723   2.672   1.659  17.143 -0.4164  0.0222 -1.5502
13078TIP3   OH260724   1.410   0.756   5.192  0.6986 -0.6440 -0.2156
13078TIP3    H160725   1.470   0.709   5.134  1.4456  0.2820 -0.2105
13078TIP3    H260726   1.369   0.822   5.136  1.3734  0.2084  0.2902
13079TIP3   OH260727   2.487   0.854   0.445  0.1248  0.1867  1.0437
13079TIP3    H160728   2.406   0.878   0.399  0.1540  0.0881  0.9386
13079TIP3    H260729   2.533   0.937   0.458  0.4730  0.1265  0.2112
13080TIP3   OH260730   2.994   3.358  11.429 -0.1524 -0.1462 -0.0679
13080TIP3    H160731   3.017   3.266  11.444 -2.1233 -0.8644 -1.1918
13080TIP3    H260732   2.949   3.385  11.509 -1.3888 -0.8040 -0.5239
13081TIP3   OH260733   2.963   3.717   2.578  0.1235  0.0369 -0.6250
13081TIP3    H160734   2.986   3.785   2.641 -2.0866  0.2284  0.0304
13081TIP3    H260735   2.921   3.649   2.630 -1.6151  0.1299 -1.8554
13082TIP3   OH260736   2.957   4.639   4.754  0.3099  0.4457 -0.2545
13082TIP3    H160737   2.868   4.605   4.760  0.4199  0.1627 -0.2569
13082TIP3    H260738   2.982   4.627   4.663  0.0385  1.3071 -0.4493
13083TIP3   OH260739   3.583   4.309   4.375 -0.3397  0.2985 -0.0421
13083TIP3    H160740   3.678   4.307   4.374 -0.3560 -0.9357 -0.9593
13083TIP3    H260741   3.560   4.331   4.466  0.8091  1.9254 -0.1283
13084TIP3   OH260742   1.253   6.484  14.595  0.6085  0.3133  0.3579
13084TIP3    H160743   1.228   6.395  14.620 -0.9839  0.8918  0.8842
13084TIP3    H260744   1.171   6.533  14.595  1.9535  2.7674  4.0742
13085TIP3   OH260745   4.288   2.224   2.085 -0.4208 -0.1535 -0.0780
13085TIP3    H160746   4.214   2.237   2.144  0.1968 -1.2140  0.9488
13085TIP3    H260747   4.342   2.302   2.097 -0.3891 -0.2844  0.6201
13086TIP3   OH260748   4.689   3.503   0.771 -0.2628 -0.1203 -0.2624
13086TIP3    H160749   4.654   3.512   0.682 -2.7542  0.8554  0.7647
13086TIP3    H260750   4.776   3.467   0.759 -1.2095 -1.6621 -3.0244
13087TIP3   OH260751   4.254   2.596   1.068  0.1824  0.6348 -0.3631
13087TIP3    H160752   4.253   2.683   1.106 -0.0771 -0.1186  1.3908
13087TIP3    H260753   4.305   2.543   1.129 -3.5655 -1.5317  1.0839
13088TIP3   OH260754   6.666   5.965  11.657 -0.3106  0.5063 -0.1286
13088TIP3    H160755   6.682   5.978  11.564 -2.1453  0.4815 -0.4644
13088TIP3    H260756   6.743   6.003  11.700  1.4252 -1.0938 -1.6989
13089TIP3   OH260757   1.242   0.343  11.447 -0.2343 -0.3120  0.1724
13089TIP3    H160758   1.221   0.294  11.527 -1.6103 -0.5682 -0.3397
13089TIP3    H260759   1.157   0.365  11.409  0.3815  2.2744  0.2566
13090TIP3   OH260760   2.894   2.875  14.672  0.1578  0.3017  0.1578
13090TIP3    H160761   2.826   2.833  14.724  0.0282  0.7589  0.3677
13090TIP3    H260762   2.973   2.870  14.727 -0.1791  1.5411  0.7684
13091TIP3   OH260763   2.207   2.493  14.562  0.7518 -0.5631  0.0274
13091TIP3    H160764   2.154   2.571  14.541  1.2507 -0.5545 -1.2426
13091TIP3    H260765   2.291   2.529  14.589  0.4314 -0.6082  1.0761
13092TIP3   OH260766   4.589   2.322  15.651  0.2562 -0.1124 -0.0086
13092TIP3    H160767   4.552   2.242  15.689 -1.9146  0.6046 -0.4975
13092TIP3    H260768   4.526   2.347  15.583  0.4733  2.4560  0.6813
13093TIP3   OH260769   0.225   6.174   0.762 -0.1450 -0.2877  0.1372
13093TIP3    H160770   0.289   6.246   0.763  0.0502 -0.4316 -0.8065
13093TIP3    H260771   0.261   6.109   0.822 -1.7027  1.5448  3.1408
13094TIP3   OH260772   6.644   5.982   2.013 -0.5785 -0.7945 -0.0280
13094TIP3    H160773   6.665   5.890   2.030  1.9276 -0.2838 -0.1309
13094TIP3    H260774   6.710   6.011   1.950  2.0872  2.4751  3.9989
13095TIP3   OH260775   4.193   1.943   2.206  0.3471 -0.5488  0.0190
13095TIP3    H160776   4.249   2.002   2.156 -0.5701  0.2776 -0.0451
13095TIP3    H260777   4.214   1.962   2.298  0.3796 -0.4457 -0.0104
13096TIP3   OH260778   0.623   1.300  15.694 -0.0545  0.1396 -0.1874
13096TIP3    H160779   0.666   1.306  15.609 -0.6026 -1.3692 -0.5850
13096TIP3    H260780   0.690   1.325  15.757  0.7374 -0.0171 -0.9615
13097TIP3   OH260781   4.430   6.067   4.263  0.1647  0.9357 -0.1245
13097TIP3    H160782   4.439   6.109   4.178  0.0427  2.5670  0.6484
13097TIP3    H260783   4.518   6.071   4.301 -0.1057  1.5951  0.4477
13098TIP3   OH260784   1.778   5.832   4.475 -0.3151 -0.0342  0.2586
13098TIP3    H160785   1.788   5.739   4.452  1.3549  0.0468  0.6113
13098TIP3    H260786   1.751   5.873   4.393  1.5845 -0.4180 -0.6036
13099TIP3   OH260787   6.778   2.701  15.560  0.3826  0.1833 -0.4629
13099TIP3    H160788   6.753   2.672  15.648 -0.2826 -0.1134 -0.7448
13099TIP3    H260789   6.856   2.650  15.539 -0.0622 -0.4977 -0.4603
13100TIP3   OH260790   2.734   1.451   1.884 -0.0895  0.1244  0.0311
13100TIP3    H160791   2.757   1.406   1.802 -1.9680 -0.2494 -0.3235
13100TIP3    H260792   2.813   1.497   1.909  1.7893 -3.0098  0.1603
13101TIP3   OH260793   3.306   2.122   2.478  0.0545  0.0275  0.0083
13101TIP3    H160794   3.284   2.035   2.443  0.6597  0.0877 -0.5465
13101TIP3    H260795   3.298   2.112   2.573  0.9399 -0.8831  0.0068
13102TIP3   OH260796   3.176   4.653   3.757 -0.5808  0.0372  0.3148
13102TIP3    H160797   3.211   4.741   3.770 -1.3617  0.2093  1.3228
13102TIP3    H260798   3.088   4.668   3.721 -0.8406 -0.3260  0.8045
13103TIP3   OH260799   6.144   4.982   2.842 -0.2319  0.5170 -0.0346
13103TIP3    H160800   6.189   5.040   2.781  0.5719  0.7223  0.7399
13103TIP3    H260801   6.185   4.999   2.926 -2.1812  1.1646  0.8265
13104TIP3   OH260802   3.005   2.504   4.610  0.0449  0.1756 -0.9630
13104TIP3    H160803   3.053   2.433   4.566 -0.2596 -0.8332  0.2803
13104TIP3    H260804   2.981   2.466   4.695  1.4461  2.3877  0.4597
13105TIP3   OH260805   6.127   5.310   2.902 -0.1828 -0.3765 -0.0054
13105TIP3    H160806   6.089   5.377   2.846  0.4919  0.5417  0.6256
13105TIP3    H260807   6.051   5.264   2.938 -0.7252  1.0750  0.7857
13106TIP3   OH260808   3.997   0.589   4.884 -0.3771 -0.4403  0.3046
13106TIP3    H160809   3.956   0.668   4.919  0.5493 -0.3067  1.1203
13106TIP3    H260810   3.945   0.567   4.807 -1.1946  0.4479  0.5897
13107TIP3   OH260811   4.210   0.061  16.596  0.1516 -0.5186 -0.0736
13107TIP3    H160812   4.158  -0.007  16.639 -0.4561 -1.8250 -2.7513
13107TIP3    H260813   4.300   0.042  16.620 -0.2749 -0.3444  1.7541
13108TIP3   OH260814   5.333   4.586   5.062  0.4712 -0.1818 -0.1436
13108TIP3    H160815   5.378   4.587   5.146 -0.6662  0.1534  0.4729
13108TIP3    H260816   5.245   4.552   5.081 -0.2767  1.2356 -0.9352
13109TIP3   OH260817   3.531   1.941   1.726 -0.3985  0.2787  0.3415
13109TIP3    H160818   3.584   2.016   1.699 -1.0896  1.1049  1.2425
13109TIP3    H260819   3.574   1.909   1.806 -1.0420  0.7406  0.8817
13110TIP3   OH260820   5.196   5.662  14.294 -0.4045 -0.2200 -0.4827
13110TIP3    H160821   5.274   5.622  14.334  0.6224  0.8997 -1.3466
13110TIP3    H260822   5.122   5.620  14.339  0.6981 -0.9160  0.7181
13111TIP3   OH260823   2.900   5.872  12.099  0.2286 -0.2267  0.1859
13111TIP3    H160824   2.872   5.959  12.124 -2.7789 -0.5527 -1.7820
13111TIP3    H260825   2.910   5.824  12.181 -2.2781  0.7610  1.0765
13112TIP3   OH260826   3.923   4.147  11.988 -0.0195 -0.1783 -0.2066
13112TIP3    H160827   3.880   4.190  12.062 -1.1587 -0.2261 -0.8315
13112TIP3    H260828   3.879   4.062  11.980  3.2543 -2.2411  2.0287
13113TIP3   OH260829   5.659   6.138  16.968  0.2967 -0.6250 -0.5312
13113TIP3    H160830   5.706   6.166  16.889  0.5275 -0.9710 -0.5214
13113TIP3    H260831   5.578   6.098  16.935 -0.1845  0.3438 -0.5234
13114TIP3   OH260832   0.512   5.107   3.927 -0.2047  0.1710 -0.1533
13114TIP3    H160833   0.469   5.090   4.011  0.0564  2.0683  0.3700
13114TIP3    H260834   0.554   5.192   3.937 -0.4944  0.6087 -2.3332
13115TIP3   OH260835   2.082   6.203  15.092  0.0494 -0.2493 -0.2380
13115TIP3    H160836   2.112   6.115  15.112 -3.2475 -1.0123  1.7188
13115TIP3    H260837   2.094   6.252  15.174 -1.6797  0.0594 -0.1482
13116TIP3   OH260838   0.466   4.147  11.934  0.1558  0.0645 -0.5986
13116TIP3    H160839   0.421   4.063  11.939  0.5716 -0.0393  1.6783
13116TIP3    H260840   0.547   4.135  11.984  0.3116  1.7565 -0.3878
13117TIP3   OH260841   3.291   0.042  11.342 -0.0366 -0.1162 -0.3664
13117TIP3    H160842   3.223   0.065  11.406 -0.5750 -1.8743 -0.3015
13117TIP3    H260843   3.299  -0.053  11.348  1.9229 -0.0039 -0.8967
13118TIP3   OH260844   2.987   0.129  16.305  0.5341  0.2709 -0.1134
13118TIP3    H160845   2.958   0.164  16.389 -0.7649  0.3246 -0.5759
13118TIP3    H260846   2.915   0.074  16.276  1.3851 -0.5299 -0.7405
13119TIP3   OH260847   4.294   4.836   3.235  0.0486 -0.4617 -1.0077
13119TIP3    H160848   4.310   4.917   3.186 -2.2418  1.7057  1.6770
13119TIP3    H260849   4.341   4.848   3.317  0.2086 -2.1690 -0.8415
13120TIP3   OH260850   0.162   2.205   5.062  0.0033 -0.1448  0.2221
13120TIP3    H160851   0.081   2.227   5.108  0.8743  1.9703  0.8266
13120TIP3    H260852   0.135   2.149   4.990 -1.9236  0.1159  0.7315
13121TIP3   OH260853   2.796   4.938   6.285  0.4739 -0.5395  0.1581
13121TIP3    H160854   2.787   5.018   6.232  0.0981 -2.2504 -2.4344
13121TIP3    H260855   2.779   4.967   6.374 -0.1936  2.1883 -0.8042
13122TIP3   OH260856   5.244   2.474   2.638 -0.6714  0.4424 -0.2664
13122TIP3    H160857   5.304   2.401   2.653 -0.4502  0.3464 -1.6000
13122TIP3    H260858   5.200   2.485   2.723  0.1163 -0.4786  0.2851
13123TIP3   OH260859   0.588   2.222   5.027 -0.0113 -0.6491  0.5474
13123TIP3    H160860   0.600   2.156   4.959 -0.0652 -0.7632  0.6480
13123TIP3    H260861   0.664   2.280   5.018 -1.9579  1.6047 -2.1268
13124TIP3   OH260862   2.500   4.566  11.378  0.5765  0.4125  0.0681
13124TIP3    H160863   2.484   4.655  11.407  1.6999  1.1030 -1.3277
13124TIP3    H260864   2.486   4.512  11.456  1.0966  1.9256  1.2376
13125TIP3   OH260865   3.214   2.775   2.322 -0.3486 -0.8796  0.0347
13125TIP3    H160866   3.244   2.689   2.292  1.1613 -0.4522  0.3062
13125TIP3    H260867   3.149   2.755   2.389  0.7617 -1.8241  0.8480
13126TIP3   OH260868   4.657   5.286   1.909  0.7816  0.0367 -0.4967
13126TIP3    H160869   4.721   5.356   1.909 -0.2155  1.0040  1.8579
13126TIP3    H260870   4.583   5.320   1.960  0.3522 -2.7738  0.8785
13127TIP3   OH260871   3.912   3.543  17.146 -0.1140 -0.2060 -0.5695
13127TIP3    H160872   3.850   3.611  17.172 -1.1814 -0.9636 -1.1278
13127TIP3    H260873   3.994   3.568  17.189 -0.4450  1.5421 -0.9527
13128TIP3   OH260874   5.093   3.639   3.897  0.3052  0.4542 -0.0045
13128TIP3    H160875   5.152   3.571   3.929 -0.5454 -0.8251 -1.0649
13128TIP3    H260876   5.146   3.719   3.897  1.6975 -0.4431  0.1367
13129TIP3   OH260877   1.919   5.543   4.174 -0.1013 -0.0739 -0.1842
13129TIP3    H160878   1.937   5.635   4.154  1.0438  0.4889  2.9897
13129TIP3    H260879   1.866   5.546   4.254 -1.8812 -2.1341 -1.2600
13130TIP3   OH260880   6.450   1.039  10.781 -0.7551 -0.4146  0.1388
13130TIP3    H160881   6.522   1.042  10.718 -0.0185 -0.9510  0.9522
13130TIP3    H260882   6.391   0.972  10.746 -0.9475  0.1443 -0.6172
13131TIP3   OH260883   1.334   3.316   3.519 -0.2109  0.0100 -0.2271
13131TIP3    H160884   1.290   3.231   3.526  0.9423 -0.8600 -2.7411
13131TIP3    H260885   1.319   3.358   3.604  0.0392 -3.1372  1.4908
13132TIP3   OH260886   4.221   3.966  13.546  1.0330 -0.1181 -1.0827
13132TIP3    H160887   4.130   3.944  13.525  0.9046 -0.7564  0.1414
13132TIP3    H260888   4.238   3.923  13.629  2.1013  0.9534 -0.7351
13133TIP3   OH260889   6.462   5.372   2.778  0.0207  0.4309 -0.1271
13133TIP3    H160890   6.439   5.451   2.728  1.0936  0.7831 -0.0814
13133TIP3    H260891   6.418   5.301   2.732 -0.3881  0.9645 -0.5757
13134TIP3   OH260892   4.235   0.467  14.681  0.4199  0.5285  0.2736
13134TIP3    H160893   4.197   0.554  14.685 -0.4400  0.0816  2.4415
13134TIP3    H260894   4.317   0.474  14.731 -0.1733 -0.1523  1.3530
13135TIP3   OH260895   1.016   0.707  14.115 -0.2093 -0.3101  0.2643
13135TIP3    H160896   0.984   0.756  14.191 -0.9069  0.3000 -0.4216
13135TIP3    H260897   1.107   0.734  14.106 -0.8150  1.5046 -0.6097
13136TIP3   OH260898   0.677   1.300  17.246 -0.8564 -0.1516 -0.0486
13136TIP3    H160899   0.615   1.373  17.238  1.3763  1.7836 -0.1761
13136TIP3    H260900   0.622   1.225  17.268 -3.1899  1.6217  0.4263
13137TIP3   OH260901   5.619   1.326  10.944 -0.2567 -0.3948  0.1376
13137TIP3    H160902   5.677   1.252  10.930  1.2093  1.0153 -1.5963
13137TIP3    H260903   5.531   1.292  10.927  0.2415 -2.0939  0.9413
13138TIP3   OH260904   4.203   5.558  14.567  0.1866  0.2964 -0.4357
13138TIP3    H160905   4.166   5.471  14.553 -1.0494  0.8360 -0.5542
13138TIP3    H260906   4.187   5.577  14.660  0.5215  0.3634 -0.3916
13139TIP3   OH260907   4.952   3.141   5.237 -0.1608  0.3321  0.3443
13139TIP3    H160908   4.864   3.170   5.214  0.1647 -0.4475 -2.0822
13139TIP3    H260909   4.947   3.122   5.331 -2.5843  0.2162  0.2368
13140TIP3   OH260910   0.591   2.295   5.328  0.6282 -0.3805 -0.1169
13140TIP3    H160911   0.685   2.313   5.335  0.4748  1.1209 -1.4495
13140TIP3    H260912   0.578   2.268   5.237 -0.2514 -0.4096  0.0117
13141TIP3   OH260913   2.705   0.829   2.611  0.3864  0.6350  0.1540
13141TIP3    H160914   2.775   0.769   2.638 -2.1615 -2.3413  0.5664
13141TIP3    H260915   2.747   0.891   2.551  3.4612 -0.6902  0.8605
13142TIP3   OH260916   3.684   2.862  16.412 -0.3158 -0.4526 -0.0815
13142TIP3    H160917   3.775   2.867  16.440 -0.5075  0.0575  0.4824
13142TIP3    H260918   3.685   2.807  16.335 -0.1852 -4.4552  2.6436
13143TIP3   OH260919   3.973   4.091  10.628 -0.7940 -0.1106  0.2604
13143TIP3    H160920   3.973   4.129  10.540  0.0900  1.8107  1.0444
13143TIP3    H260921   4.027   4.013  10.621 -1.7538 -0.6559 -1.1752
13144TIP3   OH260922   0.788   5.148  10.769 -0.3649  0.1486 -0.9295
13144TIP3    H160923   0.857   5.187  10.822 -1.2228 -1.5477  1.5257
13144TIP3    H260924   0.731   5.221  10.745  2.6873  1.7373 -3.7646
13145TIP3   OH260925   3.209   4.877  12.212 -0.7055 -0.5693  0.5299
13145TIP3    H160926   3.165   4.912  12.288 -1.4670  0.8667 -0.5489
13145TIP3    H260927   3.140   4.836  12.160 -0.1903 -1.5797  0.6261
13146TIP3   OH260928   4.418   3.553   1.209  0.5621 -0.0714 -0.4446
13146TIP3    H160929   4.450   3.540   1.120  1.5928  0.8669 -0.2148
13146TIP3    H260930   4.356   3.481   1.223  2.9135 -2.2011 -0.7229
13147TIP3   OH260931   2.533   6.292   1.639 -0.3351  0.7531  0.3342
13147TIP3    H160932   2.618   6.248   1.636  0.0324  1.3277  1.7263
13147TIP3    H260933   2.549   6.372   1.689 -1.0574  2.3467 -1.9231
13148TIP3   OH260934   0.857   0.717  10.348  0.0449 -0.3512  0.4198
13148TIP3    H160935   0.946   0.736  10.319 -0.3710 -0.5511 -1.0192
13148TIP3    H260936   0.866   0.698  10.441  1.2970  1.0211  0.5920
13149TIP3   OH260937   2.235   3.782   0.781  0.0361 -0.2364 -0.2712
13149TIP3    H160938   2.308   3.731   0.744 -0.0235  0.1676 -0.9564
13149TIP3    H260939   2.165   3.771   0.717 -0.3936 -0.3269  0.2117
13150TIP3   OH260940   1.162   3.515   0.121 -0.1351 -0.6357 -0.4177
13150TIP3    H160941   1.243   3.473   0.150  0.0775  0.9923  1.4245
13150TIP3    H260942   1.093   3.459   0.158  0.1429 -0.7233 -0.0207
13151TIP3   OH260943   3.449   5.674  16.399  0.3600  0.5837  0.1230
13151TIP3    H160944   3.452   5.596  16.454  3.1194  2.0534  2.2215
13151TIP3    H260945   3.485   5.646  16.315 -0.6904 -0.9039  0.1693
13152TIP3   OH260946   5.561   0.449  13.531 -0.4804  0.5614  0.1659
13152TIP3    H160947   5.571   0.357  13.509  0.7095  0.2937  1.7476
13152TIP3    H260948   5.558   0.494  13.447  0.8781 -0.7210 -0.5786
13153TIP3   OH260949   1.243   4.981   3.521  0.1055  0.5136  0.0166
13153TIP3    H160950   1.327   4.948   3.490 -0.3230 -1.5736  0.9545
13153TIP3    H260951   1.264   5.033   3.598  0.6310  0.9700 -0.4325
13154TIP3   OH260952   3.843   5.022  14.440  0.2920  0.8697 -0.3177
13154TIP3    H160953   3.842   5.078  14.362 -0.3260  2.3270  0.7009
13154TIP3    H260954   3.933   5.030  14.474  1.4448 -2.1079 -2.4763
13155TIP3   OH260955   1.157   5.487   5.996  0.0697  0.6138  0.1595
13155TIP3    H160956   1.073   5.521   6.026  0.1690  1.0321 -0.0326
13155TIP3    H260957   1.135   5.402   5.958 -0.3466  0.9580 -0.3791
13156TIP3   OH260958   5.455   1.129  11.128  0.7722  0.0575  0.1469
13156TIP3    H160959   5.491   1.215  11.150 -0.4679  0.1320  1.9430
13156TIP3    H260960   5.391   1.148  11.059  0.2503  0.6212  0.7793
13157TIP3   OH260961   2.729   2.535   3.045  0.0978 -0.0067  0.1112
13157TIP3    H160962   2.765   2.620   3.021 -1.9367  0.4272 -1.5760
13157TIP3    H260963   2.759   2.476   2.976  0.3218 -0.3373  0.4931
13158TIP3   OH260964   5.733   4.056  14.950 -0.0147  0.0873  0.2231
13158TIP3    H160965   5.688   4.066  14.866 -1.3836 -2.8434  0.5340
13158TIP3    H260966   5.826   4.055  14.928 -0.3421 -0.1572 -1.2188
13159TIP3   OH260967   2.810   4.303   3.946 -0.1876  0.2084 -0.8468
13159TIP3    H160968   2.717   4.294   3.962 -0.0795  1.0006  0.2888
13159TIP3    H260969   2.838   4.217   3.914 -1.0320 -0.4352  0.1277
13160TIP3   OH260970   5.809   1.972  15.152  0.7913 -0.0964 -0.1040
13160TIP3    H160971   5.791   1.937  15.064 -2.0785 -0.2416  0.4865
13160TIP3    H260972   5.759   2.053  15.155  0.5045 -0.3254  1.5457
13161TIP3   OH260973   0.041   2.439   6.548 -0.0418  0.8088 -0.7232
13161TIP3    H160974  -0.044   2.416   6.511 -1.1001  0.6938  1.6489
13161TIP3    H260975   0.062   2.366   6.607  0.3263  2.1593  0.8602
13162TIP3   OH260976   2.048   6.393  16.275 -0.0909 -0.0109 -0.2672
13162TIP3    H160977   1.987   6.320  16.289  0.2303  0.0897  1.7328
13162TIP3    H260978   1.993   6.463  16.238 -0.9518 -0.3222  0.4041
13163TIP3   OH260979   2.380   6.599  12.580  0.7651 -0.9451  0.2288
13163TIP3    H160980   2.293   6.568  12.604  0.8847 -1.5735 -0.1519
13163TIP3    H260981   2.366   6.649  12.499  0.6994 -0.6973  0.3905
13164TIP3   OH260982   3.163   2.429   5.470  0.2352  0.2744  0.1328
13164TIP3    H160983   3.181   2.523   5.480 -0.2869  0.4580 -0.5392
13164TIP3    H260984   3.105   2.408   5.543  0.2662  0.5008  0.2237
13165TIP3   OH260985   6.770   6.046   6.020  0.3021  0.1201 -0.3043
13165TIP3    H160986   6.812   6.077   5.939  0.8254  1.7994  0.5763
13165TIP3    H260987   6.748   6.127   6.067 -0.5320 -0.8335  0.9626
13166TIP3   OH260988   3.479   2.769   5.564 -0.1167 -0.1439  0.0386
13166TIP3    H160989   3.469   2.766   5.469  2.1422  1.0827 -0.2697
13166TIP3    H260990   3.568   2.802   5.578 -0.9476  1.1576  2.5743
13167TIP3   OH260991   6.081   1.313  12.069 -0.2552 -0.2528 -0.0284
13167TIP3    H160992   6.075   1.218  12.058  0.5404 -0.4678  1.3013
13167TIP3    H260993   6.081   1.348  11.980 -0.1393 -1.5222 -0.5359
13168TIP3   OH260994   4.429   1.068   2.492 -0.5287 -0.2389  0.3059
13168TIP3    H160995   4.359   1.116   2.447 -0.2115 -0.4794 -0.4598
13168TIP3    H260996   4.448   0.994   2.434  2.7747  1.7031 -1.2380
13169TIP3   OH260997   2.724   3.928   1.227  0.0234  0.0231 -0.8981
13169TIP3    H160998   2.760   3.962   1.146  1.6000  1.6256  0.4297
13169TIP3    H260999   2.799   3.892   1.274 -1.1480 -2.5607 -0.9038
13170TIP3   OH261000   5.183   2.461   4.381  0.0286 -0.6930  0.3222
13170TIP3    H161001   5.188   2.556   4.371  0.5484 -0.5852  1.4926
13170TIP3    H261002   5.089   2.443   4.387 -0.1122 -0.3467 -0.6697
13171TIP3   OH261003   3.740   1.164  16.857 -0.3198  0.1429 -0.1100
13171TIP3    H161004   3.747   1.253  16.890  0.5943 -0.2954  0.9199
13171TIP3    H261005   3.712   1.112  16.932 -2.3383 -0.2080 -1.0748
13172TIP3   OH261006   3.653   4.353   0.466  0.6228 -0.4011  0.4692
13172TIP3    H161007   3.675   4.274   0.417  0.9757  0.3062 -0.5167
13172TIP3    H261008   3.734   4.403   0.470 -0.4318  1.6355 -2.1000
13173TIP3   OH261009   1.660   5.659   6.342 -0.3919 -0.1073 -0.4650
13173TIP3    H161010   1.684   5.750   6.360 -0.4865 -0.5070  1.8729
13173TIP3    H261011   1.739   5.621   6.303  1.4697 -0.2957  3.2213
13174TIP3   OH261012   5.562   3.748   5.273 -0.2275  0.1669 -0.4337
13174TIP3    H161013   5.576   3.784   5.360  0.1931  1.4450 -1.0163
13174TIP3    H261014   5.548   3.654   5.287  2.2001 -0.0507  0.8096
13175TIP3   OH261015   6.321   1.096   1.949 -0.2987 -0.0699 -0.4211
13175TIP3    H161016   6.253   1.094   2.016  0.1188  0.2473  0.0132
13175TIP3    H261017   6.301   1.174   1.896  0.4432  0.7281  0.4606
13176TIP3   OH261018   3.048   2.521  11.312 -0.1455 -0.2729 -0.4235
13176TIP3    H161019   3.013   2.605  11.282  1.2111  0.0040 -1.2901
13176TIP3    H261020   3.069   2.535  11.404  0.0670  0.3353 -0.5640
13177TIP3   OH261021   2.556   1.980   0.406 -0.2551  0.1260  0.3648
13177TIP3    H161022   2.496   1.971   0.480  0.1937 -0.6689  0.6343
13177TIP3    H261023   2.643   1.968   0.444  0.2029  2.6996  0.2355
13178TIP3   OH261024   2.468   4.410   0.967  0.7718 -0.1734  0.4257
13178TIP3    H161025   2.562   4.395   0.974  0.6448 -1.4242 -0.3030
13178TIP3    H261026   2.448   4.393   0.875  0.1238  1.9046  0.1549
13179TIP3   OH261027   5.044   6.552  17.221  0.2808  0.2174  0.2149
13179TIP3    H161028   4.960   6.553  17.174  0.4524  2.5403 -0.0680
13179TIP3    H261029   5.091   6.477  17.183 -0.9516 -0.0431 -0.8635
13180TIP3   OH261030   4.106   4.434   0.129  0.1778 -0.2241 -0.2146
13180TIP3    H161031   4.102   4.522   0.165 -3.2953  0.0016 -0.9856
13180TIP3    H261032   4.024   4.393   0.156  1.6833 -3.2175  0.0315
13181TIP3   OH261033   6.047   1.541   2.770  0.2278  0.5173 -0.1027
13181TIP3    H161034   6.038   1.507   2.681  1.1856 -0.3260  0.1163
13181TIP3    H261035   6.132   1.508   2.800  0.3152  1.5343  0.8026
13182TIP3   OH261036   4.011   4.173  12.381 -0.0720 -0.0204  0.1641
13182TIP3    H161037   4.019   4.178  12.476  0.3757  1.0217  0.0823
13182TIP3    H261038   4.100   4.160  12.349 -0.2181 -0.3500 -0.1126
13183TIP3   OH261039   3.444   3.932  13.915  0.1414 -0.5335  0.4176
13183TIP3    H161040   3.436   4.026  13.931 -0.2435 -0.3196 -0.9981
13183TIP3    H261041   3.461   3.925  13.822  0.6591 -1.8540  0.6049
13184TIP3   OH261042   1.804   5.401  15.340  0.3119  0.4592 -0.5109
13184TIP3    H161043   1.843   5.465  15.280  0.6932  0.6449 -0.0661
13184TIP3    H261044   1.855   5.321  15.328  0.4524  0.5258 -0.3656
13185TIP3   OH261045   4.528   1.575  14.236 -0.1426  0.3665 -0.8076
13185TIP3    H161046   4.479   1.578  14.318  1.6129  1.7109  0.2143
13185TIP3    H261047   4.499   1.651  14.187 -0.1654  0.3401 -0.8349
13186TIP3   OH261048   0.552   4.982  15.165 -0.0326 -0.0369 -0.3682
13186TIP3    H161049   0.580   4.899  15.127 -0.3019 -0.1708 -0.2731
13186TIP3    H261050   0.476   5.008  15.114 -1.5790 -1.1781  1.2902
13187TIP3   OH261051   4.018   1.452  15.337 -1.1199  0.2214  0.3686
13187TIP3    H161052   3.933   1.424  15.303 -0.8134 -0.2248 -0.0324
13187TIP3    H261053   4.016   1.427  15.430 -1.0991 -0.5444  0.1618
13188TIP3   OH261054   1.109   4.568  16.633  0.0326 -0.1329  0.1926
13188TIP3    H161055   1.085   4.487  16.589 -0.0207 -1.2126  2.1828
13188TIP3    H261056   1.043   4.579  16.702  0.5956  1.0921  0.5626
13189TIP3   OH261057   2.519   2.577   3.463  0.1191  0.2469 -0.2186
13189TIP3    H161058   2.556   2.658   3.429  1.7659 -0.1277  0.6155
13189TIP3    H261059   2.428   2.578   3.434  0.7529  1.2317 -2.2471
13190TIP3   OH261060   4.740   6.250  11.359 -0.1734 -0.8064  0.2650
13190TIP3    H161061   4.824   6.238  11.403  0.4770 -0.2827 -0.8378
13190TIP3    H261062   4.702   6.162  11.356  0.0742 -0.9571  1.2491
13191TIP3   OH261063   1.389   4.877  13.567  0.0022  0.2501 -0.0798
13191TIP3    H161064   1.438   4.816  13.511  2.2609 -0.8566  2.9521
13191TIP3    H261065   1.299   4.846  13.562  0.4450 -0.9102 -1.6992
13192TIP3   OH261066   3.986   6.782   6.007  0.0634 -0.4757  0.4233
13192TIP3    H161067   3.940   6.794   6.090  0.3441 -1.4192  0.7204
13192TIP3    H261068   4.077   6.806   6.026  0.4376 -2.1207  0.7848
13193TIP3   OH261069   5.478   1.322   4.473 -0.0197  0.1675  0.0770
13193TIP3    H161070   5.571   1.324   4.452  0.1417 -2.3015  0.4423
13193TIP3    H261071   5.473   1.350   4.564  0.4008 -0.0828  0.1773
13194TIP3   OH261072   5.351   2.558  12.925 -0.0321 -0.3368 -0.3824
13194TIP3    H161073   5.258   2.555  12.904 -0.3172  0.9010  0.6167
13194TIP3    H261074   5.388   2.623  12.865 -0.2393  0.7667  0.6449
13195TIP3   OH261075   5.573   3.724   2.105 -0.5255 -0.5718  0.4673
13195TIP3    H161076   5.604   3.764   2.186  0.2915  0.6018 -0.4198
13195TIP3    H261077   5.652   3.697   2.059 -0.9442 -0.3526 -0.3947
13196TIP3   OH261078   0.833   4.571   4.016  0.3144  0.0507  0.0690
13196TIP3    H161079   0.897   4.632   4.052 -0.6532  1.0058  0.1869
13196TIP3    H261080   0.885   4.512   3.961  1.6009 -0.4798  1.7979
13197TIP3   OH261081   6.095   2.814   3.460  0.2420  0.3512 -0.4320
13197TIP3    H161082   6.097   2.878   3.389  0.3235 -0.6864 -1.3717
13197TIP3    H261083   6.182   2.776   3.462 -0.3505 -1.1011 -1.1580
13198TIP3   OH261084   3.680   4.528  16.006 -0.0876 -0.2586  0.5301
13198TIP3    H161085   3.625   4.604  16.019  0.8489  0.5246 -0.0132
13198TIP3    H261086   3.700   4.497  16.094  0.7979  1.0506  0.7986
13199TIP3   OH261087   5.063   6.262  11.753  0.1518  0.3351 -0.6364
13199TIP3    H161088   5.056   6.356  11.765 -1.0417 -0.0709  2.3287
13199TIP3    H261089   4.994   6.225  11.809  1.7935 -2.3602 -0.2921
13200TIP3   OH261090   3.717   6.014  14.752  0.1252  0.4078  0.2076
13200TIP3    H161091   3.683   6.063  14.828  2.1188  1.0709  0.6846
13200TIP3    H261092   3.808   5.995  14.774  0.4828 -0.1445 -1.6757
13201TIP3   OH261093   3.157   3.304   5.230  0.5497 -0.5339 -0.1075
13201TIP3    H161094   3.109   3.382   5.260  1.2365  0.9308 -2.6769
13201TIP3    H261095   3.248   3.322   5.251  0.4936 -1.5120  1.0306
13202TIP3   OH261096   4.621   0.424   4.895  0.1036  0.2061 -0.0909
13202TIP3    H161097   4.706   0.394   4.864 -0.2858 -0.8314 -0.1750
13202TIP3    H261098   4.572   0.343   4.912 -1.0084  0.7965 -0.4416
13203TIP3   OH261099   2.830   5.477   4.105 -0.1131  0.2145 -0.1251
13203TIP3    H161100   2.889   5.434   4.042 -1.0629 -0.3906 -0.6057
13203TIP3    H261101   2.821   5.413   4.176 -0.3357  0.2256 -0.1428
13204TIP3   OH261102   2.014   1.459  16.778 -0.2502 -0.6543  0.3502
13204TIP3    H161103   2.001   1.365  16.772  0.8432 -0.7091 -1.8297
13204TIP3    H261104   2.032   1.475  16.870 -1.2544 -2.4607  0.8780
13205TIP3   OH261105   0.779   5.824  15.046 -0.0604  0.6099 -0.3151
13205TIP3    H161106   0.833   5.809  15.124  0.1835 -3.8120 -1.2152
13205TIP3    H261107   0.698   5.776  15.064 -0.8486  1.3088 -1.9320
13206TIP3   OH261108   4.870   0.231   5.406  0.1160  0.3106  0.1359
13206TIP3    H161109   4.871   0.325   5.392 -0.4059  0.4852  1.2399
13206TIP3    H261110   4.930   0.217   5.480 -1.5893  0.0397  1.4925
13207TIP3   OH261111   4.613   3.808   5.147  0.0273  0.0200  0.2102
13207TIP3    H161112   4.665   3.769   5.217  0.7062 -0.1969 -0.4177
13207TIP3    H261113   4.677   3.843   5.086 -0.5409 -1.2254 -1.1173
13208TIP3   OH261114   4.479   3.230   4.295  0.0233  0.5891  0.7517
13208TIP3    H161115   4.491   3.144   4.334 -1.2570  0.4616  0.8874
13208TIP3    H261116   4.546   3.284   4.336 -0.2101  0.0453  1.8784
13209TIP3   OH261117   3.790   2.286   0.021 -0.2963 -0.1861 -0.0054
13209TIP3    H161118   3.773   2.372  -0.019 -0.1024  1.2058  2.7687
13209TIP3    H261119   3.743   2.224  -0.035  0.2102  1.6193 -2.5149
13210TIP3   OH261120   3.368   1.260  15.550  0.3569 -0.7466 -0.0778
13210TIP3    H161121   3.443   1.286  15.603  0.3829 -1.4961  0.2638
13210TIP3    H261122   3.348   1.171  15.579 -0.8838 -0.4247  0.0871
13211TIP3   OH261123   5.274   1.983   3.200  0.1630  0.4915  0.1021
13211TIP3    H161124   5.186   1.979   3.163  0.3477 -0.2028 -0.2717
13211TIP3    H261125   5.261   2.004   3.292 -0.5785 -3.0257  0.8650
13212TIP3   OH261126   1.469   5.531  14.853  0.2146 -0.3170  0.2330
13212TIP3    H161127   1.479   5.531  14.758 -0.4938 -0.5859  0.1522
13212TIP3    H261128   1.557   5.547  14.887  0.3741  0.3547 -0.4798
13213TIP3   OH261129   3.906   0.906  13.631 -0.1344  0.0916 -1.1202
13213TIP3    H161130   3.997   0.883  13.651  0.2546 -0.2805 -3.2779
13213TIP3    H261131   3.881   0.966  13.702  1.6642 -0.0621 -0.3227
13214TIP3   OH261132   2.743   3.092   5.582 -0.2314  0.4512  0.0062
13214TIP3    H161133   2.719   3.128   5.497 -0.1099 -0.3840 -0.3895
13214TIP3    H261134   2.836   3.109   5.591 -0.0066 -0.4768 -0.5373
13215TIP3   OH261135   6.017   2.557  15.964 -0.1831  0.0543  0.3817
13215TIP3    H161136   5.960   2.504  15.907  1.8203 -0.3947 -1.2640
13215TIP3    H261137   5.957   2.618  16.007 -1.8488 -0.0067 -1.7473
13216TIP3   OH261138   0.989   1.666   2.406  0.2669  0.3541 -0.3438
13216TIP3    H161139   0.909   1.645   2.357 -0.3130 -0.5521  0.9469
13216TIP3    H261140   1.047   1.592   2.391 -0.0023 -0.0351  0.5092
13217TIP3   OH261141   2.357   4.211  16.342  0.1839 -0.1003  0.3741
13217TIP3    H161142   2.270   4.224  16.380 -0.7458 -1.8440 -1.0787
13217TIP3    H261143   2.348   4.240  16.251  0.1773 -3.3028 -0.7170
13218TIP3   OH261144   5.290   0.569  11.831 -0.0500  1.1439  0.0335
13218TIP3    H161145   5.320   0.577  11.921 -0.3346 -0.2080  0.2689
13218TIP3    H261146   5.334   0.490  11.798 -0.8807  0.9379 -0.6074
13219TIP3   OH261147   3.287   5.891   0.316  0.3100  0.2112 -0.2177
13219TIP3    H161148   3.346   5.951   0.362  0.7012 -0.8442  0.6900
13219TIP3    H261149   3.344   5.843   0.255  0.0861  0.4190 -0.5904
13220TIP3   OH261150   0.404   1.203   2.929  0.3019 -0.1112  0.0390
13220TIP3    H161151   0.390   1.276   2.868 -0.0868  0.3373  0.6631
13220TIP3    H261152   0.331   1.209   2.991  0.5395 -0.7373  0.3817
13221TIP3   OH261153   0.405   1.843  13.939 -0.0782  0.2002 -0.0404
13221TIP3    H161154   0.394   1.750  13.957 -1.2682  0.3855  0.1908
13221TIP3    H261155   0.457   1.846  13.858 -1.0269 -0.6694 -0.6920
13222TIP3   OH261156   6.562   6.431   3.229  0.0176  0.5262 -0.2161
13222TIP3    H161157   6.486   6.422   3.172  0.2902 -2.8272 -0.1292
13222TIP3    H261158   6.528   6.417   3.317  0.5182  0.3206 -0.0546
13223TIP3   OH261159   4.656   6.270  16.802 -0.3660  0.1186  0.1122
13223TIP3    H161160   4.561   6.277  16.799 -0.2274  1.8629 -0.6212
13223TIP3    H261161   4.687   6.358  16.822  1.0958 -0.4512  0.4635
13224TIP3   OH261162   2.841   6.288   6.154 -0.1006  0.0527  0.3164
13224TIP3    H161163   2.766   6.308   6.098 -1.0599 -1.5800  0.9848
13224TIP3    H261164   2.901   6.238   6.099 -0.9492 -1.3722  0.6738
13225TIP3   OH261165   6.816   1.463  13.840 -0.0769 -0.1401  0.8666
13225TIP3    H161166   6.727   1.463  13.874  0.1307 -0.1862  1.4214
13225TIP3    H261167   6.823   1.382  13.790 -1.2540  1.2178 -1.6216
13226TIP3   OH261168   0.914   3.854   0.335 -0.4036  0.0643 -0.8644
13226TIP3    H161169   0.888   3.806   0.257 -0.7992  0.8377 -1.2065
13226TIP3    H261170   1.010   3.852   0.334 -0.4117 -2.0902 -0.0270
13227TIP3   OH261171   1.644   2.443  10.999  0.7632  0.3755 -0.2222
13227TIP3    H161172   1.708   2.503  11.038 -0.2129  1.2789  0.0175
13227TIP3    H261173   1.694   2.395  10.933  1.6903  1.0603 -0.0363
13228TIP3   OH261174   4.715   0.414  14.254  0.2772 -0.2048  0.1805
13228TIP3    H161175   4.648   0.361  14.297  1.3000 -0.8843  0.9827
13228TIP3    H261176   4.794   0.399  14.306  1.6958 -1.4558 -2.2476
13229TIP3   OH261177   3.240   2.463   4.862  0.0617  0.5703  0.4139
13229TIP3    H161178   3.220   2.370   4.859  0.7858  0.4696 -4.0612
13229TIP3    H261179   3.336   2.466   4.866  0.2245  1.0737 -2.9396
13230TIP3   OH261180   4.984   5.799   0.953  0.3021  0.2382 -0.3650
13230TIP3    H161181   4.905   5.761   0.993  0.9277 -0.4107  0.2695
13230TIP3    H261182   4.985   5.889   0.985 -1.4791  1.0083 -2.2985
13231TIP3   OH261183   0.164   0.685  10.165  0.1840 -0.1029 -0.1983
13231TIP3    H161184   0.202   0.772  10.178  0.3769 -0.5201  2.1273
13231TIP3    H261185   0.070   0.701  10.153  0.2502  0.4441  0.0173
13232TIP3   OH261186   0.953   5.132  13.784  0.5844  0.0198  0.3615
13232TIP3    H161187   0.910   5.217  13.796  0.5557 -0.0671  0.9113
13232TIP3    H261188   0.941   5.112  13.691 -0.4791  0.0511  0.4850
13233TIP3   OH261189   4.154   3.451  14.540  0.2523 -0.4337  0.0822
13233TIP3    H161190   4.120   3.362  14.545 -1.0297  0.0883  0.8449
13233TIP3    H261191   4.135   3.479  14.450  1.3086 -1.1761 -0.3789
13234TIP3   OH261192   1.910   1.351  16.249  0.8234 -0.0209  0.6487
13234TIP3    H161193   1.850   1.319  16.317 -0.3725 -4.1515 -2.1807
13234TIP3    H261194   1.997   1.344  16.289  0.0439 -1.1212  2.2181
13235TIP3   OH261195   3.106   1.710   4.667  0.4474  0.1982  0.0839
13235TIP3    H161196   3.058   1.716   4.584 -0.4240  1.3610  0.6500
13235TIP3    H261197   3.145   1.623   4.666  1.5298  0.6609 -2.1250
13236TIP3   OH261198   6.357   0.073   5.528 -0.6184 -0.0374  0.0168
13236TIP3    H161199   6.305  -0.005   5.543 -1.7639  0.3319 -1.8575
13236TIP3    H261200   6.294   0.145   5.536  0.0075  0.5435 -0.2533
13237TIP3   OH261201   5.608   4.473  16.033 -0.1829  1.2062 -0.0262
13237TIP3    H161202   5.532   4.436  15.990 -1.5659  0.6702  2.7349
13237TIP3    H261203   5.682   4.452  15.976 -1.8343 -0.0265 -1.7452
13238TIP3   OH261204   1.721   1.129   4.691 -0.7158 -0.4801 -0.0740
13238TIP3    H161205   1.766   1.120   4.607 -0.1503 -2.1151  0.3832
13238TIP3    H261206   1.792   1.135   4.756 -1.1197 -2.1180  0.5543
13239TIP3   OH261207   3.262   0.324  14.715  0.3581  0.0047 -0.0093
13239TIP3    H161208   3.301   0.336  14.629 -0.0267  0.6571 -0.0909
13239TIP3    H261209   3.171   0.299  14.698  0.9718 -2.5434  0.1605
13240TIP3   OH261210   1.008   4.986  14.774  0.0666 -0.7559  0.6781
13240TIP3    H161211   1.058   4.976  14.854  0.0638 -2.0104  0.5412
13240TIP3    H261212   1.073   5.000  14.705  0.3604 -3.5581  0.3145
13241TIP3   OH261213   2.375   4.570   1.783 -0.4584  0.3250 -0.6812
13241TIP3    H161214   2.391   4.556   1.690  1.8152 -0.5052 -0.1973
13241TIP3    H261215   2.415   4.655   1.802  2.1684 -1.0833  0.2364
13242TIP3   OH261216   1.160   2.976   2.181 -0.0700  0.6348 -0.0161
13242TIP3    H161217   1.235   2.935   2.226 -1.0304  0.6029  1.5841
13242TIP3    H261218   1.096   2.992   2.250 -0.7435  2.5393 -1.0349
13243TIP3   OH261219   0.578   1.603   6.678 -0.1704 -0.3344 -0.3389
13243TIP3    H161220   0.553   1.529   6.732 -0.7476 -0.1137 -0.3023
13243TIP3    H261221   0.496   1.647   6.658  0.1418  0.1400 -0.5858
13244TIP3   OH261222   0.336   4.025  14.414  0.5729 -0.2250  0.4831
13244TIP3    H161223   0.324   3.956  14.479 -1.0472 -1.0364 -0.6593
13244TIP3    H261224   0.428   4.016  14.387  2.1654  1.9653  4.6901
13245TIP3   OH261225   6.562   1.221  16.285  0.0281 -0.0586 -0.2838
13245TIP3    H161226   6.487   1.168  16.313 -0.9612  0.7402 -1.3477
13245TIP3    H261227   6.559   1.298  16.341 -0.5290  0.4204 -0.9611
13246TIP3   OH261228   5.319   5.783   1.420  0.0473 -0.2819 -0.3734
13246TIP3    H161229   5.400   5.768   1.371  0.4433  0.9380 -0.1087
13246TIP3    H261230   5.320   5.876   1.441 -1.0668 -0.4020  0.2843
13247TIP3   OH261231   2.915   2.596  11.051 -0.5065  0.1880 -0.0855
13247TIP3    H161232   2.826   2.573  11.024 -0.7053  0.8950 -0.0340
13247TIP3    H261233   2.971   2.560  10.982 -0.8899  0.4357 -0.5270
13248TIP3   OH261234   3.790   3.834   1.574  0.5975  0.0750 -0.1298
13248TIP3    H161235   3.823   3.877   1.495 -0.3710 -0.4869 -0.8518
13248TIP3    H261236   3.768   3.906   1.633 -0.7126  0.5753 -1.2036
13249TIP3   OH261237   0.618   4.501  15.426  0.3812  0.1316 -0.2727
13249TIP3    H161238   0.688   4.476  15.485 -0.8995  0.9871  1.6534
13249TIP3    H261239   0.542   4.452  15.456 -0.5979  1.5583 -0.3714
13250TIP3   OH261240   1.486   5.321   5.954  0.5063 -0.7227 -0.4278
13250TIP3    H161241   1.397   5.348   5.932  0.3572  0.3179  1.4235
13250TIP3    H261242   1.474   5.250   6.018  1.0132  0.4424  0.9769
13251TIP3   OH261243   3.202   4.487   0.903  0.3335 -0.0717 -0.3775
13251TIP3    H161244   3.165   4.543   0.972 -0.1459 -0.0253 -0.6688
13251TIP3    H261245   3.234   4.547   0.837  0.6538 -0.1196 -0.2660
13252TIP3   OH261246   1.582   5.252   2.362  0.2263 -0.3786 -0.4632
13252TIP3    H161247   1.614   5.192   2.295 -0.4885 -1.4022  0.1074
13252TIP3    H261248   1.594   5.206   2.445 -1.6563 -0.3330 -0.1477
13253TIP3   OH261249   1.999   3.601   4.330  0.2733 -0.2951  0.4773
13253TIP3    H161250   1.961   3.624   4.245 -0.0056  1.5395  1.0812
13253TIP3    H261251   2.083   3.647   4.332  0.2636 -0.3025  1.2046
13254TIP3   OH261252   3.302   4.381   1.816 -0.0956 -0.4219  0.3113
13254TIP3    H161253   3.213   4.380   1.781  0.0179  2.0074 -0.1756
13254TIP3    H261254   3.290   4.373   1.910 -1.1098  2.8605  0.5549
13255TIP3   OH261255   2.167   3.145  10.642  0.4468  0.9011  0.3786
13255TIP3    H161256   2.161   3.228  10.594 -1.7416  0.2342 -0.5132
13255TIP3    H261257   2.136   3.079  10.581  0.5594 -0.3678  1.6797
13256TIP3   OH261258   6.700   3.323   5.738  0.0657 -0.7176  0.2157
13256TIP3    H161259   6.701   3.406   5.689 -0.6507 -1.4432 -1.0362
13256TIP3    H261260   6.753   3.341   5.815 -2.5903  1.8852  1.5461
13257TIP3   OH261261   4.666   5.035  11.601 -0.4374  0.6226 -0.2600
13257TIP3    H161262   4.597   5.086  11.558  0.4598  1.2219 -0.9859
13257TIP3    H261263   4.684   4.963  11.541 -1.1360 -0.1169  0.3981
13258TIP3   OH261264   3.659   0.601   3.297  0.3856 -0.1782 -0.2786
13258TIP3    H161265   3.617   0.517   3.281  1.0503 -0.9721  1.9866
13258TIP3    H261266   3.589   0.665   3.287 -0.7072 -1.2287  0.5840
13259TIP3   OH261267   1.835   6.133   2.696  0.1237 -0.3607  0.0715
13259TIP3    H161268   1.749   6.126   2.654  0.8673 -0.3099 -1.4811
13259TIP3    H261269   1.882   6.055   2.666  0.0345 -1.3065  2.3104
13260TIP3   OH261270   3.991   6.491  13.576  0.1825 -0.1050 -0.4923
13260TIP3    H161271   3.976   6.584  13.591 -0.8332 -0.4056  0.3955
13260TIP3    H261272   4.080   6.486  13.541  0.0836  1.2336 -0.9484
13261TIP3   OH261273   6.048   6.289  13.205 -0.0571  0.3692  0.0117
13261TIP3    H161274   6.132   6.295  13.160  1.1539  0.1395  2.1579
13261TIP3    H261275   5.987   6.336  13.148  1.6108  0.9348 -1.3647
13262TIP3   OH261276   3.871   1.582   1.240 -0.2557 -0.4489  0.3060
13262TIP3    H161277   3.907   1.513   1.296  2.0487  0.4358 -0.0419
13262TIP3    H261278   3.850   1.653   1.300  3.3285  0.9603 -0.0188
13263TIP3   OH261279   5.025   6.713  11.626 -0.0670 -0.6595 -0.1095
13263TIP3    H161280   4.990   6.747  11.708 -0.7217 -3.6715  0.9427
13263TIP3    H261281   5.063   6.789  11.582  0.3781  0.9930  3.0152
13264TIP3   OH261282   5.603   5.933   2.051 -0.5477 -0.2890  0.5048
13264TIP3    H161283   5.630   5.841   2.044  2.6562  0.5536  1.2432
13264TIP3    H261284   5.633   5.960   2.137  1.0320  2.2303 -0.7999
13265TIP3   OH261285   6.649   4.984  11.950 -0.7618 -0.4976 -0.0335
13265TIP3    H161286   6.705   4.907  11.940 -0.0283  0.1802 -1.1944
13265TIP3    H261287   6.708   5.054  11.976 -1.6267 -0.6053  2.3897
13266TIP3   OH261288   6.510   6.205  14.218 -0.5638 -0.0892  0.6367
13266TIP3    H161289   6.421   6.233  14.239 -1.6692 -3.0273  0.1130
13266TIP3    H261290   6.555   6.202  14.302 -1.2270  0.5720  1.0150
13267TIP3   OH261291   4.905   3.404   4.306  0.0587 -0.3405  0.2918
13267TIP3    H161292   4.999   3.413   4.291  0.0274  0.1253  0.3625
13267TIP3    H261293   4.866   3.478   4.260 -0.2361 -0.2769  0.6426
13268TIP3   OH261294   2.441   4.424  13.811 -0.2109 -0.6517  0.0496
13268TIP3    H161295   2.477   4.339  13.788  0.5445 -1.0271  2.5012
13268TIP3    H261296   2.464   4.436  13.903 -2.4655  1.0995  0.4279
13269TIP3   OH261297   0.796   6.612   0.662  0.7193  0.1456 -1.0989
13269TIP3    H161298   0.857   6.669   0.615 -0.5804  0.6566 -2.1846
13269TIP3    H261299   0.745   6.672   0.717  1.1112 -0.2630 -0.2862
13270TIP3   OH261300   1.300   4.623   3.555 -0.2434  0.5312  0.0486
13270TIP3    H161301   1.277   4.651   3.644  1.7381  0.3456  0.6541
13270TIP3    H261302   1.234   4.664   3.499 -1.7955  0.2741  1.6509
13271TIP3   OH261303   3.809   2.557   6.391 -0.3679 -0.1613  0.5861
13271TIP3    H161304   3.715   2.538   6.392 -0.3769 -0.2599 -0.9404
13271TIP3    H261305   3.820   2.624   6.457 -1.4484 -0.4755  1.1036
13272TIP3   OH261306   5.317   3.551  13.828  0.0172  0.1214  0.3061
13272TIP3    H161307   5.304   3.563  13.922 -0.3460 -3.1664  0.7166
13272TIP3    H261308   5.411   3.540  13.817  0.0757  0.6560  0.2481
13273TIP3   OH261309   0.148   6.258  13.874 -0.0804  0.1362 -0.3686
13273TIP3    H161310   0.116   6.210  13.950 -1.8911  0.6994 -0.7559
13273TIP3    H261311   0.113   6.211  13.798  3.4547 -1.6789 -0.9899
13274TIP3   OH261312   2.480   3.037   5.518  0.0967  0.6442 -0.1182
13274TIP3    H161313   2.435   2.969   5.569 -0.2527  0.2429 -0.9608
13274TIP3    H261314   2.568   3.038   5.555 -0.1766  0.4190  0.5634
13275TIP3   OH261315   6.820   5.121  16.985 -0.0207 -0.0451  0.0626
13275TIP3    H161316   6.740   5.079  17.018 -0.1277 -1.5390 -1.9936
13275TIP3    H261317   6.798   5.214  16.980 -0.8385 -0.1295  1.7189
13276TIP3   OH261318   6.532   5.387  13.267 -0.0525 -0.1979 -0.0901
13276TIP3    H161319   6.460   5.327  13.250  0.8236 -1.4388  0.5081
13276TIP3    H261320   6.595   5.371  13.196 -1.4419  2.6727 -2.0806
13277TIP3   OH261321   3.435   5.933  15.820 -0.0379  0.4642 -0.2362
13277TIP3    H161322   3.488   5.932  15.900  1.9755 -0.2220 -1.5252
13277TIP3    H261323   3.356   5.883  15.842 -0.9427  2.8581  2.2231
13278TIP3   OH261324   5.704   3.591  11.238 -0.4203 -0.4010 -0.3657
13278TIP3    H161325   5.725   3.521  11.176 -0.5142 -1.6361  0.9761
13278TIP3    H261326   5.608   3.594  11.239 -0.4335 -0.9332  0.3174
13279TIP3   OH261327   5.098   2.751   2.689 -0.9814 -0.2994  0.2104
13279TIP3    H161328   5.174   2.722   2.638  0.6088  1.1126  1.7172
13279TIP3    H261329   5.039   2.788   2.625  1.3080  2.1397 -0.5917
13280TIP3   OH261330   6.768   0.743  11.020  0.4954  0.0278 -0.1159
13280TIP3    H161331   6.716   0.714  11.094  1.7783 -1.5473  0.2206
13280TIP3    H261332   6.734   0.693  10.946  1.0655 -0.5122 -0.0212
13281TIP3   OH261333   1.068   5.920   4.024 -0.5773 -0.0628 -0.3008
13281TIP3    H161334   1.065   5.838   4.073  0.0189  0.2547  0.2858
13281TIP3    H261335   1.096   5.985   4.089  1.2405  0.1840 -1.3020
13282TIP3   OH261336   1.514   3.009   1.499  0.0606  0.1902  0.2319
13282TIP3    H161337   1.479   3.068   1.566 -1.3743  1.1827 -1.3462
13282TIP3    H261338   1.473   2.925   1.516  0.6822  0.1122  1.3662
13283TIP3   OH261339   4.354   2.570   4.546 -0.0580  0.3100  0.4595
13283TIP3    H161340   4.309   2.512   4.484  2.0320 -1.5136  0.6226
13283TIP3    H261341   4.290   2.584   4.616 -0.0804 -2.9821  1.1486
13284TIP3   OH261342   5.377   0.424   3.316 -0.0211 -0.5892 -0.0244
13284TIP3    H161343   5.327   0.420   3.397  0.3213 -1.6509  0.1450
13284TIP3    H261344   5.401   0.516   3.307  1.0574 -0.6770  1.7703
13285TIP3   OH261345   5.236   2.644   2.929  0.2890 -0.2859 -0.1570
13285TIP3    H161346   5.261   2.710   2.993 -1.6573  0.3888 -0.0696
13285TIP3    H261347   5.162   2.682   2.882 -0.3245 -2.0538 -0.6765
13286TIP3   OH261348   0.910   6.230   7.020 -0.1415  0.3378  0.3692
13286TIP3    H161349   0.950   6.181   6.948 -0.6304 -0.3093  0.5364
13286TIP3    H261350   0.845   6.170   7.057 -2.3236  1.8866 -0.8216
13287TIP3   OH261351   3.569   0.423  12.230 -0.0288  0.3901 -0.4860
13287TIP3    H161352   3.636   0.356  12.213 -1.3290 -1.2596  0.7162
13287TIP3    H261353   3.591   0.459  12.316 -0.9844 -0.5599  0.1716
13288TIP3   OH261354   6.280   4.887   1.288 -0.0909  0.4163 -0.0274
13288TIP3    H161355   6.265   4.880   1.193 -0.4698  1.1579 -0.0289
13288TIP3    H261356   6.348   4.954   1.296  0.5416 -0.2514  0.1818
13289TIP3   OH261357   2.994   0.232  12.358  0.1833 -0.0883 -0.2498
13289TIP3    H161358   2.971   0.325  12.362 -2.3411 -0.6400 -0.6209
13289TIP3    H261359   2.994   0.203  12.449 -0.3626 -0.0064 -0.2197
13290TIP3   OH261360   6.653   3.130   4.627  0.1420  0.1548  0.3695
13290TIP3    H161361   6.640   3.224   4.615 -0.2265 -0.1695 -2.0988
13290TIP3    H261362   6.737   3.111   4.586  0.2559 -0.5836  0.9215
13291TIP3   OH261363   2.681   4.149   0.933  0.0448  0.7770 -0.3922
13291TIP3    H161364   2.611   4.090   0.906  0.9049 -0.4355  0.0122
13291TIP3    H261365   2.762   4.102   0.914  0.7340  1.6879  0.2327
13292TIP3   OH261366   0.955   3.415   4.638  0.3983 -0.1730 -0.2253
13292TIP3    H161367   0.867   3.437   4.607  0.7893  0.7721 -0.6955
13292TIP3    H261368   0.953   3.435   4.732  0.6614  1.6610 -0.5907
13293TIP3   OH261369   5.976   1.788   1.862  0.2127 -0.0728  0.0566
13293TIP3    H161370   5.903   1.761   1.806 -1.4432 -1.7079  2.8845
13293TIP3    H261371   6.040   1.717   1.854 -0.8270 -1.2186  1.5979
13294TIP3   OH261372   1.714   1.190   2.123  0.0820 -0.3039  0.3863
13294TIP3    H161373   1.647   1.148   2.068 -0.3953  0.0395  0.6988
13294TIP3    H261374   1.755   1.254   2.065 -0.0724 -0.2981  0.2815
13295TIP3   OH261375   6.644   0.149  14.926 -0.2625  0.3304  0.1019
13295TIP3    H161376   6.628   0.216  14.994 -0.5932  0.3536 -0.0011
13295TIP3    H261377   6.558   0.114  14.906 -0.2746  0.9670 -0.9693
13296TIP3   OH261378   4.567   3.085   4.637  0.1176 -0.1006 -0.8452
13296TIP3    H161379   4.526   3.004   4.607  0.4729 -0.9380  0.8340
13296TIP3    H261380   4.500   3.127   4.691  0.6788 -0.3887  0.0956
13297TIP3   OH261381   3.780   3.868   3.005  0.2289 -0.2909 -0.1267
13297TIP3    H161382   3.689   3.899   3.006 -0.3786 -1.9851  0.2070
13297TIP3    H261383   3.832   3.943   3.033 -1.1991  0.3465  0.8791
13298TIP3   OH261384   2.876   5.000  12.926  0.0967 -0.4037  0.1642
13298TIP3    H161385   2.931   4.957  12.862  0.8623  0.9822 -0.1293
13298TIP3    H261386   2.871   5.091  12.897 -2.2627 -0.4687  0.2399
13299TIP3   OH261387   3.895   1.436  13.015 -0.0730 -0.2931 -0.4309
13299TIP3    H161388   3.894   1.383  13.095 -0.4981  0.0866 -0.1821
13299TIP3    H261389   3.983   1.424  12.979  2.3277  4.2436  3.2831
13300TIP3   OH261390   5.688   6.435  12.411 -0.1644  0.4519  0.2389
13300TIP3    H161391   5.742   6.454  12.334 -0.9926  0.0713 -0.4367
13300TIP3    H261392   5.634   6.514  12.422 -2.3786 -0.7574 -1.5416
13301TIP3   OH261393   3.785   2.537   5.676  0.1181  0.3288  0.0679
13301TIP3    H161394   3.830   2.617   5.650 -0.4095  0.9727  1.0945
13301TIP3    H261395   3.699   2.567   5.707 -0.0619 -0.6249  0.5047
13302TIP3   OH261396   2.988   2.040   4.146  0.0288 -0.2211 -0.3618
13302TIP3    H161397   2.967   2.081   4.230  1.3136  0.8982 -0.5653
13302TIP3    H261398   2.925   2.078   4.085 -0.5118 -0.5748 -0.0250
13303TIP3   OH261399   2.363   2.777  15.009  0.2144 -0.3207 -0.1736
13303TIP3    H161400   2.358   2.859  15.058 -0.9130 -1.0995  1.0710
13303TIP3    H261401   2.451   2.744  15.027  0.1210 -0.1580  0.6222
13304TIP3   OH261402   3.866   2.444   4.696  0.0804 -0.1107  0.0039
13304TIP3    H161403   3.878   2.515   4.632  0.4229  1.1069  1.4104
13304TIP3    H261404   3.772   2.444   4.714  0.5824  2.7863  3.1221
13305TIP3   OH261405   1.710   6.622  16.504  0.3204  0.5651 -0.1057
13305TIP3    H161406   1.748   6.549  16.553  0.2561  1.1502  0.8183
13305TIP3    H261407   1.747   6.701  16.545  0.0197  1.0733 -0.7900
13306TIP3   OH261408   1.624   6.612   0.081  0.2461 -0.0239  0.2324
13306TIP3    H161409   1.562   6.614   0.155  0.4150  0.1496  0.3697
13306TIP3    H261410   1.692   6.674   0.106 -0.2158  0.7982 -0.5199
13307TIP3   OH261411   3.070   6.675  12.112 -0.2234 -0.6528  0.0622
13307TIP3    H161412   3.155   6.711  12.137 -0.0508 -0.9925 -0.0300
13307TIP3    H261413   3.086   6.632  12.028  0.3702 -3.8969  1.7545
13308TIP3   OH261414   0.095   3.785  12.973  0.2324  0.2398 -0.0218
13308TIP3    H161415   0.041   3.761  13.049 -0.6704 -0.8248 -0.9745
13308TIP3    H261416   0.031   3.810  12.906  0.9327 -0.6529 -1.0403
13309TIP3   OH261417   4.868   5.104   4.490 -0.5410  0.2267 -0.5427
13309TIP3    H161418   4.777   5.082   4.511 -0.5399 -1.3730 -2.0626
13309TIP3    H261419   4.910   5.118   4.575 -1.5881 -1.6496  0.3076
13310TIP3   OH261420   5.650   3.382   1.914 -0.5462 -0.2369  0.0366
13310TIP3    H161421   5.603   3.436   1.851 -1.6513  0.6141  1.5482
13310TIP3    H261422   5.740   3.414   1.911 -0.6376 -0.0777 -0.9581
13311TIP3   OH261423   3.714   2.777  10.531 -0.0165  0.4800  0.5024
13311TIP3    H161424   3.802   2.767  10.569  0.6301 -0.8523 -1.2634
13311TIP3    H261425   3.675   2.690  10.539 -1.0359  0.9645  0.8907
13312TIP3   OH261426   5.900   0.025   4.183 -0.0659 -0.2540  0.2368
13312TIP3    H161427   5.926  -0.067   4.185 -1.7668 -0.7385  1.9156
13312TIP3    H261428   5.897   0.052   4.275 -0.4338  1.2287 -0.1783
13313TIP3   OH261429   5.494   3.495   6.624  0.0367 -0.3413 -0.2923
13313TIP3    H161430   5.517   3.556   6.694  1.2004 -2.5640  1.3038
13313TIP3    H261431   5.399   3.504   6.616  0.0906  1.0844  0.4629
13314TIP3   OH261432   5.578   2.160  12.422 -0.1624  0.3467  0.5357
13314TIP3    H161433   5.566   2.090  12.486  0.1249  0.1408  0.3653
13314TIP3    H261434   5.581   2.115  12.337 -0.4733  0.6110  0.3829
13315TIP3   OH261435   5.596   6.800   2.868 -0.0857  0.4670  0.1593
13315TIP3    H161436   5.642   6.725   2.830 -0.0276  1.6360 -2.1624
13315TIP3    H261437   5.630   6.806   2.957  1.0156 -1.3429 -0.1083
13316TIP3   OH261438   2.055   1.548  12.781 -0.3880  0.2329  0.4068
13316TIP3    H161439   2.137   1.534  12.735 -0.0866  1.5959  0.5308
13316TIP3    H261440   2.081   1.558  12.873 -0.6557  0.9761  0.4051
13317TIP3   OH261441   0.769   5.452   4.955  0.0523  0.5889  0.2560
13317TIP3    H161442   0.687   5.475   4.913 -0.3758 -1.7083 -0.2525
13317TIP3    H261443   0.747   5.445   5.048 -0.3165  0.0963  0.1359
13318TIP3   OH261444   0.506   6.044   4.934 -0.2497  0.3614  0.1652
13318TIP3    H161445   0.415   6.073   4.940 -0.1269  0.5843  1.1411
13318TIP3    H261446   0.521   5.995   5.015  0.4946  0.3257  0.0137
13319TIP3   OH261447   5.104   4.180  14.016 -0.1034 -0.7014 -0.1928
13319TIP3    H161448   5.104   4.122  14.092 -0.2826  0.4558  0.6853
13319TIP3    H261449   5.070   4.263  14.048  0.0935 -0.1190 -1.4672
13320TIP3   OH261450   5.106   6.277   4.902 -0.3288  0.2915 -0.5256
13320TIP3    H161451   5.072   6.229   4.826 -0.1758 -0.6508  0.0035
13320TIP3    H261452   5.039   6.344   4.919 -0.5264  0.2893 -1.2811
13321TIP3   OH261453   0.677   1.642  14.524  0.3114 -0.2374 -0.3635
13321TIP3    H161454   0.734   1.622  14.597  0.0783 -0.0800 -0.1356
13321TIP3    H261455   0.718   1.717  14.480  0.3949 -0.2639 -0.3286
13322TIP3   OH261456   6.616   2.934  16.238 -0.4521  0.0846  0.1153
13322TIP3    H161457   6.676   3.001  16.206  1.6003 -1.5076  0.5249
13322TIP3    H261458   6.547   2.983  16.283  1.3976  1.8947  1.0490
13323TIP3   OH261459   4.066   0.502   0.667 -0.2347  0.1080 -0.1479
13323TIP3    H161460   4.015   0.422   0.677 -1.4113  0.9696  0.8244
13323TIP3    H261461   4.152   0.479   0.702 -0.6364 -0.6646  0.3645
13324TIP3   OH261462   4.640   0.873  11.464 -0.5842 -0.1594  0.0076
13324TIP3    H161463   4.589   0.793  11.475 -1.1145  0.2309  0.4430
13324TIP3    H261464   4.684   0.885  11.549  0.1283 -0.4274 -0.3240
13325TIP3   OH261465   2.226   1.787  12.352  0.6268  0.4109  0.7305
13325TIP3    H161466   2.192   1.852  12.292 -0.6736  0.0376  1.0319
13325TIP3    H261467   2.191   1.813  12.438 -1.1336 -1.4705  0.6273
13326TIP3   OH261468   3.253   2.090   3.378  0.0836 -0.0701  0.1171
13326TIP3    H161469   3.327   2.038   3.347  0.7083  0.8978 -0.0363
13326TIP3    H261470   3.187   2.082   3.310 -0.6223 -2.3196  1.0260
13327TIP3   OH261471   1.848   6.685  11.398 -0.2701 -0.4216 -0.3262
13327TIP3    H161472   1.786   6.747  11.437  1.2607  1.9235 -1.5029
13327TIP3    H261473   1.794   6.624  11.349 -1.9473 -1.0669  2.2181
13328TIP3   OH261474   6.490   4.624  12.254  0.2514 -0.0943  0.4570
13328TIP3    H161475   6.585   4.616  12.245  0.0253 -1.5007 -0.7612
13328TIP3    H261476   6.473   4.718  12.244  1.6120  0.3121  1.7873
13329TIP3   OH261477   5.156   5.245  16.155  0.0734  0.1378  0.1488
13329TIP3    H161478   5.128   5.196  16.232  0.5954 -0.0135  0.2455
13329TIP3    H261479   5.152   5.181  16.084 -0.0574  0.1777  0.1225
13330TIP3   OH261480   3.162   6.258  10.497 -0.0418  0.5946  0.2317
13330TIP3    H161481   3.112   6.292  10.571 -0.2711  2.4419 -0.7530
13330TIP3    H261482   3.110   6.281  10.420  1.1717  0.4719 -0.6468
13331TIP3   OH261483   4.847   2.631  11.080  0.4281 -0.1098 -0.7228
13331TIP3    H161484   4.844   2.594  10.992  1.3976  1.0036 -1.2436
13331TIP3    H261485   4.885   2.562  11.135 -0.6236 -0.9790 -1.0722
13332TIP3   OH261486   0.330   3.176  15.630 -0.0548  0.2510 -0.1350
13332TIP3    H161487   0.262   3.241  15.650 -0.0935 -0.2522  1.4184
13332TIP3    H261488   0.281   3.098  15.604 -0.0118  0.7441 -1.7471
13333TIP3   OH261489   1.425   3.752   5.710  0.8521 -0.1184 -0.1620
13333TIP3    H161490   1.337   3.745   5.672  0.5906  1.2612  0.1527
13333TIP3    H261491   1.461   3.664   5.703  0.1581 -0.2769 -2.0273
13334TIP3   OH261492   2.682   1.345  11.388  0.1900  0.8157  0.8889
13334TIP3    H161493   2.630   1.419  11.417 -0.1317  0.4955  1.1357
13334TIP3    H261494   2.675   1.346  11.293  0.7870  1.5342  0.8514
13335TIP3   OH261495   6.341   2.122  12.212  0.1786 -0.3209  0.0167
13335TIP3    H161496   6.344   2.210  12.249 -1.6931 -0.9489  1.7862
13335TIP3    H261497   6.269   2.124  12.149  1.2224 -0.1528 -1.1924
13336TIP3   OH261498   2.088   5.928  14.229  0.3748 -0.0975  0.0039
13336TIP3    H161499   2.050   6.013  14.253 -1.9236 -1.3211  0.8622
13336TIP3    H261500   2.035   5.898  14.156  0.5261 -1.2631  0.3685
13337TIP3   OH261501   3.758   2.130  11.126 -0.1889  0.0780 -0.3508
13337TIP3    H161502   3.738   2.039  11.101  2.0497 -0.3802 -0.6286
13337TIP3    H261503   3.730   2.136  11.218  1.9480 -1.6993  0.4689
13338TIP3   OH261504   2.229   0.703   4.727 -0.1795  0.4165  0.3831
13338TIP3    H161505   2.191   0.615   4.722  0.4517  0.1683 -0.1583
13338TIP3    H261506   2.323   0.687   4.736  0.2638  1.0538 -2.6865
13339TIP3   OH261507   4.743   5.089  11.256  0.0686 -0.1764  0.5585
13339TIP3    H161508   4.677   5.076  11.188 -0.9120 -0.3987  1.5493
13339TIP3    H261509   4.712   5.165  11.304  1.0186  0.2718  0.4622
13340TIP3   OH261510   6.803   5.750   2.829  0.3551 -0.0414 -0.1412
13340TIP3    H161511   6.885   5.710   2.798 -1.1266 -2.3052 -1.2391
13340TIP3    H261512   6.771   5.690   2.896 -1.3566 -0.1259 -1.0317
13341TIP3   OH261513   0.258   3.977  10.623 -0.2511  0.8840  0.7494
13341TIP3    H161514   0.314   4.020  10.558 -0.8708  1.0886  0.3427
13341TIP3    H261515   0.182   3.947  10.573 -0.4122  0.4282  1.2587
13342TIP3   OH261516   6.530   3.525  13.104 -0.6135  0.1939 -0.0044
13342TIP3    H161517   6.610   3.573  13.122 -0.6433  0.7897 -1.3710
13342TIP3    H261518   6.513   3.541  13.011 -2.0629 -0.2971  0.1592
13343TIP3   OH261519   1.287   5.578   1.153  0.3065  0.2061  0.4833
13343TIP3    H161520   1.327   5.504   1.198  1.4641  0.4641 -0.0762
13343TIP3    H261521   1.221   5.538   1.095  1.2371 -0.4455 -0.1556
13344TIP3   OH261522   3.344   4.870   2.450  0.6260 -0.1535  0.4387
13344TIP3    H161523   3.285   4.796   2.439  0.7711 -0.1583 -0.3209
13344TIP3    H261524   3.344   4.887   2.544  1.7560 -2.0682  0.8222
13345TIP3   OH261525   6.791   2.411   4.812  0.2693  0.2367  0.0066
13345TIP3    H161526   6.886   2.412   4.807  0.3169  0.1622  0.9222
13345TIP3    H261527   6.763   2.381   4.725  0.9660  3.0127 -1.2187
13346TIP3   OH261528   3.699   3.738   5.909 -0.4895  0.0107  0.5763
13346TIP3    H161529   3.699   3.769   6.000  0.0365 -2.4018  1.4191
13346TIP3    H261530   3.761   3.797   5.865  0.8266 -0.0775  2.2338
13347TIP3   OH261531   4.047   0.458   2.951 -0.3787  0.5298 -0.5723
13347TIP3    H161532   4.016   0.491   3.036 -0.1115 -1.0783  0.1617
13347TIP3    H261533   3.973   0.470   2.892 -1.2322 -0.1386  0.3557
13348TIP3   OH261534   5.854   2.805  16.613 -0.5690  0.0828  0.2235
13348TIP3    H161535   5.813   2.839  16.533 -0.7879  1.5625  0.9453
13348TIP3    H261536   5.788   2.745  16.650 -1.4558  1.2189  0.5290
13349TIP3   OH261537   3.428   4.117   2.745  0.1524  0.2774 -0.4083
13349TIP3    H161538   3.343   4.155   2.723  0.8108  1.1721 -1.4177
13349TIP3    H261539   3.406   4.037   2.792 -1.2536  0.7041 -0.3147
13350TIP3   OH261540   1.666   1.030  12.755  0.5482  0.0148  0.8272
13350TIP3    H161541   1.628   0.943  12.762  0.3946  0.0080 -0.0216
13350TIP3    H261542   1.621   1.071  12.681  1.2144  0.5043  0.6774
13351TIP3   OH261543   1.317   1.091   1.256 -0.0090  0.0733 -0.6304
13351TIP3    H161544   1.359   1.112   1.340 -1.7338 -1.7986  0.7653
13351TIP3    H261545   1.362   1.146   1.192  1.5935  1.2909  1.4677
13352TIP3   OH261546   6.564   3.470  15.921  0.3692 -0.3054  0.4812
13352TIP3    H161547   6.545   3.524  15.845  1.9080  0.0599  0.3371
13352TIP3    H261548   6.642   3.509  15.960  0.6009 -1.4958  1.2563
13353TIP3   OH261549   5.773   1.462   6.236  0.3303 -0.2229  0.3233
13353TIP3    H161550   5.789   1.551   6.207 -1.7052 -0.0738 -0.4959
13353TIP3    H261551   5.679   1.448   6.220 -0.0030 -1.5475  3.0960
13354TIP3   OH261552   3.943   2.027  13.435 -0.5019 -0.1974 -0.0330
13354TIP3    H161553   3.873   1.962  13.428 -2.6851  2.1695 -0.8576
13354TIP3    H261554   3.981   2.011  13.522 -0.9199 -2.6128 -0.2497
13355TIP3   OH261555   2.298   0.650   1.915 -0.4260  0.2226  0.8501
13355TIP3    H161556   2.282   0.593   1.839 -1.8309 -0.8167  1.8877
13355TIP3    H261557   2.363   0.713   1.884 -0.6549 -0.4368 -1.0893
13356TIP3   OH261558   3.373   1.364   2.129 -0.1364 -0.0972 -0.0351
13356TIP3    H161559   3.347   1.272   2.116  0.0949 -0.0274 -1.0165
13356TIP3    H261560   3.459   1.358   2.171 -0.2949 -0.3273  0.2638
13357TIP3   OH261561   0.981   3.096  12.469 -0.1209 -0.3629 -0.3727
13357TIP3    H161562   0.932   3.055  12.398 -0.9981 -0.6814  0.4100
13357TIP3    H261563   0.927   3.171  12.496  0.2678 -0.1711 -0.1224
13358TIP3   OH261564   5.989   0.231  11.516  0.0591  0.2357  0.7069
13358TIP3    H161565   5.958   0.260  11.430 -0.1520 -1.8153  0.0671
13358TIP3    H261566   6.073   0.187  11.498  1.6368  2.6369  1.9773
13359TIP3   OH261567   2.141   5.636  12.852 -0.1314 -0.3494  0.9773
13359TIP3    H161568   2.149   5.549  12.813 -0.0647 -0.6799  1.7163
13359TIP3    H261569   2.075   5.625  12.921 -1.1245  0.4992  0.1697
13360TIP3   OH261570   1.784   1.384  14.156  0.0821 -0.0326  0.1000
13360TIP3    H161571   1.786   1.342  14.242  0.7198 -0.8965 -0.3265
13360TIP3    H261572   1.876   1.392  14.131 -0.0644  1.0369 -0.1100
13361TIP3   OH261573   4.475   1.349  14.035  0.2473 -0.1918 -0.4356
13361TIP3    H161574   4.415   1.409  14.079  0.8283 -0.4224  0.6880
13361TIP3    H261575   4.540   1.405  13.992 -0.5177  0.0426 -1.3061
13362TIP3   OH261576   4.204   6.678  11.483  0.5081  0.3890 -0.7955
13362TIP3    H161577   4.298   6.665  11.473  0.4310 -0.7270 -0.1513
13362TIP3    H261578   4.192   6.690  11.577 -0.1088 -0.5066 -0.7522
13363TIP3   OH261579   0.457   3.782  12.258 -0.2941  0.1134  0.1942
13363TIP3    H161580   0.551   3.764  12.250 -0.1842  0.6817  0.1737
13363TIP3    H261581   0.414   3.710  12.213  0.1465  0.0521 -0.1260
13364TIP3   OH261582   4.168   1.504  10.928 -0.5412 -0.5326 -0.3131
13364TIP3    H161583   4.117   1.551  10.862 -0.4670 -1.9080 -1.3620
13364TIP3    H261584   4.189   1.571  10.994 -1.1274  0.7141 -1.3687
13365TIP3   OH261585   4.054   1.393   4.650  0.0187  0.4958 -0.2464
13365TIP3    H161586   4.029   1.314   4.699  1.9362 -0.1058 -0.2060
13365TIP3    H261587   4.074   1.458   4.718  0.2809  0.4299 -0.2617
13366TIP3   OH261588   6.736   5.079  16.425  0.1545  0.0645 -0.1734
13366TIP3    H161589   6.739   5.033  16.509  0.6934 -1.1573 -0.8529
13366TIP3    H261590   6.664   5.142  16.435 -1.4440 -1.8164  0.3273
13367TIP3   OH261591   3.804   5.295   3.397 -0.0097 -0.3362  0.3670
13367TIP3    H161592   3.757   5.323   3.476 -1.4580  0.1935 -0.6594
13367TIP3    H261593   3.803   5.199   3.402  0.4577 -0.3007  1.3002
13368TIP3   OH261594   2.383   5.419  15.726  0.3295  0.0616  0.7100
13368TIP3    H161595   2.295   5.442  15.694  0.3837 -0.2060  0.3520
13368TIP3    H261596   2.369   5.343  15.782  0.2509  0.4429  1.2004
13369TIP3   OH261597   2.392   0.741  14.199  0.0203 -0.0393  0.2537
13369TIP3    H161598   2.401   0.828  14.160 -2.6010  0.9199  1.6559
13369TIP3    H261599   2.320   0.700  14.151 -0.2119 -0.5793  1.0464
13370TIP3   OH261600   1.741   6.655  14.662 -0.3908 -0.1689  0.1470
13370TIP3    H161601   1.687   6.654  14.583 -0.5789  0.1988  0.2680
13370TIP3    H261602   1.803   6.726  14.648 -1.0204  0.5110  0.7181
13371TIP3   OH261603   4.623   5.139   0.940 -1.0165  0.1928  0.4297
13371TIP3    H161604   4.694   5.161   1.000 -1.3044 -0.0716  0.8739
13371TIP3    H261605   4.641   5.189   0.861 -0.2518  0.0080  0.4881
13372TIP3   OH261606   5.648   6.336  16.371 -0.0289  0.2731 -0.5514
13372TIP3    H161607   5.553   6.339  16.383 -0.0468 -0.4947 -0.4778
13372TIP3    H261608   5.677   6.426  16.385 -0.5685  0.2170  0.9872
13373TIP3   OH261609   2.301   5.997   4.922 -0.1126 -0.2713 -0.2679
13373TIP3    H161610   2.287   5.982   4.829 -1.8188 -0.9437  0.0823
13373TIP3    H261611   2.230   6.055   4.949  0.9879  0.8083  0.4077
13374TIP3   OH261612   6.159   6.662   3.408 -0.0676 -0.3427  0.2681
13374TIP3    H161613   6.195   6.721   3.342  0.0672 -0.3812  0.3053
13374TIP3    H261614   6.194   6.696   3.491 -1.8121  0.8776  0.5203
13375TIP3   OH261615   5.437   0.303  15.798  0.8129  0.5092 -0.2922
13375TIP3    H161616   5.358   0.338  15.838  1.7554  2.1104  0.2106
13375TIP3    H261617   5.405   0.233  15.740 -0.5488 -1.8361  3.1677
13376TIP3   OH261618   5.807   3.796   3.037 -0.3612  0.5439 -1.0185
13376TIP3    H161619   5.741   3.782   3.104  1.2183 -1.8688  0.1157
13376TIP3    H261620   5.873   3.851   3.080 -0.1313  0.3580 -1.1367
13377TIP3   OH261621   2.965   5.665  12.865 -0.6225 -0.1318 -0.1759
13377TIP3    H161622   2.975   5.740  12.923  0.1782  0.1191 -0.6517
13377TIP3    H261623   3.007   5.593  12.912 -1.0719 -0.2048  0.1158
13378TIP3   OH261624   4.781   1.322   4.368  0.4327 -0.6751  0.1000
13378TIP3    H161625   4.729   1.304   4.447 -0.4880 -0.4619 -0.4463
13378TIP3    H261626   4.821   1.407   4.384  1.5390 -1.3520  1.0021
13379TIP3   OH261627   0.842   5.256   3.123  0.0371  0.5050  0.6017
13379TIP3    H161628   0.865   5.275   3.214  2.1606 -0.3699  0.2717
13379TIP3    H261629   0.863   5.163   3.113 -1.5844  0.2305 -0.3823
13380TIP3   OH261630   6.129   2.973  10.602 -0.3917 -0.3434 -0.0818
13380TIP3    H161631   6.168   3.058  10.620 -0.9347 -0.0944 -0.0515
13380TIP3    H261632   6.190   2.909  10.638  0.1907  0.0199 -0.4282
13381TIP3   OH261633   1.034   1.953  14.350 -0.3655  0.3433  0.3106
13381TIP3    H161634   1.091   1.878  14.365 -1.8456 -0.6727  0.8965
13381TIP3    H261635   1.055   2.013  14.422  2.1406  1.3488 -1.1760
13382TIP3   OH261636   2.417   2.902   0.531 -0.2950 -0.1473 -0.0214
13382TIP3    H161637   2.336   2.879   0.577 -0.2280  0.1005  0.2271
13382TIP3    H261638   2.460   2.964   0.590  0.6146 -1.1295  0.3660
13383TIP3   OH261639   1.490   4.368   2.034 -0.6997 -0.1811  0.1721
13383TIP3    H161640   1.544   4.406   2.102  2.6778 -1.4142 -1.7217
13383TIP3    H261641   1.480   4.276   2.059  0.1855 -0.5348 -0.7128
13384TIP3   OH261642   5.192   3.128   4.442  0.2759 -0.5792 -0.0578
13384TIP3    H161643   5.217   3.113   4.351  0.4950 -1.4697  0.1469
13384TIP3    H261644   5.140   3.051   4.465 -1.9028  0.7928 -0.1964
13385TIP3   OH261645   0.326   2.143  14.618  0.7452  0.1800 -0.5296
13385TIP3    H161646   0.338   2.050  14.633  2.2250  0.2130 -1.4033
13385TIP3    H261647   0.303   2.150  14.526 -1.0598  0.5539 -0.0650
13386TIP3   OH261648   3.648   6.674   1.277 -0.2548 -0.0239 -0.6354
13386TIP3    H161649   3.714   6.615   1.315  0.4768  0.9089 -0.4538
13386TIP3    H261650   3.565   6.643   1.314  0.1573 -0.7539 -0.3045
13387TIP3   OH261651   0.860   3.235   5.799  0.6553  0.3122 -0.4227
13387TIP3    H161652   0.919   3.310   5.812  1.2603 -0.0767 -0.8574
13387TIP3    H261653   0.772   3.273   5.802  0.9196  0.8881  0.3471
13388TIP3   OH261654   4.620   2.733   4.231 -0.6687  0.0362 -0.3995
13388TIP3    H161655   4.710   2.711   4.208 -0.8757  0.4308 -1.6065
13388TIP3    H261656   4.567   2.699   4.159 -1.3366  1.0710 -0.4158
13389TIP3   OH261657   2.014   5.267  15.793  0.7435 -0.6248  0.0195
13389TIP3    H161658   2.060   5.313  15.863 -1.8808  1.0219  0.7304
13389TIP3    H261659   1.955   5.333  15.755 -1.7010 -2.8621 -0.2372
13390TIP3   OH261660   4.757   5.691   6.332 -0.2977  0.5541 -0.2854
13390TIP3    H161661   4.676   5.645   6.311 -1.2017  1.1628  1.7200
13390TIP3    H261662   4.769   5.752   6.259 -0.2606 -1.2976 -1.8648
13391TIP3   OH261663   0.925   3.652  14.465 -0.5144 -0.4369 -0.4869
13391TIP3    H161664   0.849   3.655  14.408 -1.6650  0.2128  1.0220
13391TIP3    H261665   0.891   3.620  14.549  0.9037 -0.3395  0.1465
13392TIP3   OH261666   6.050   3.295   0.984  0.8098 -0.6935 -0.0827
13392TIP3    H161667   6.057   3.211   0.940  0.8321 -0.2337 -0.9644
13392TIP3    H261668   6.140   3.316   1.009  0.7700 -1.0511  0.3760
13393TIP3   OH261669   4.886   4.894   2.820 -0.5861  0.4571  0.0973
13393TIP3    H161670   4.840   4.810   2.820  1.3746 -0.6458  0.0503
13393TIP3    H261671   4.822   4.956   2.854 -1.9492 -1.1164  0.4761
13394TIP3   OH261672   4.322   4.557   4.653 -0.6896 -0.0103 -0.1845
13394TIP3    H161673   4.291   4.645   4.674 -0.5278  0.0872 -0.3507
13394TIP3    H261674   4.250   4.516   4.605 -0.9989 -0.1776  0.4187
13395TIP3   OH261675   1.004   1.066   0.866 -0.0430  0.4746 -0.2916
13395TIP3    H161676   1.064   1.115   0.922 -0.0326 -0.1620  0.2657
13395TIP3    H261677   1.060   1.003   0.821 -0.4787 -1.0754  1.2933
13396TIP3   OH261678   6.371   2.475  14.893  0.4513  0.3393  0.2814
13396TIP3    H161679   6.342   2.565  14.908 -3.3016 -0.6665 -0.3994
13396TIP3    H261680   6.417   2.451  14.973 -0.7466  2.0211  1.5261
13397TIP3   OH261681   1.627   1.838  14.208  0.0333  0.0139 -0.1794
13397TIP3    H161682   1.537   1.867  14.201  0.0177 -0.3550 -1.7648
13397TIP3    H261683   1.624   1.745  14.184  0.4958 -0.5999  2.0404
13398TIP3   OH261684   4.649   3.811  17.171 -0.4989 -0.0874  0.4845
13398TIP3    H161685   4.682   3.878  17.230 -1.0161 -1.4070  2.3114
13398TIP3    H261686   4.555   3.829  17.163 -0.6536 -0.6271  1.0399
13399TIP3   OH261687   2.754   0.160  10.770  0.3410  0.5062 -0.2073
13399TIP3    H161688   2.810   0.134  10.697 -0.0337 -0.2067 -0.2405
13399TIP3    H261689   2.727   0.078  10.811 -0.1882  0.8670  0.1770
13400TIP3   OH261690   1.871   3.472  12.301  0.4374  1.2359  0.6048
13400TIP3    H161691   1.819   3.509  12.371 -1.0244 -0.4102  0.4185
13400TIP3    H261692   1.862   3.533  12.228 -0.4332  1.4532  0.8996
13401TIP3   OH261693   3.170   2.295  17.200 -0.2994  0.3162 -0.3306
13401TIP3    H161694   3.236   2.316  17.135 -0.3559 -0.9623 -0.8116
13401TIP3    H261695   3.090   2.279  17.149 -0.6456  0.4986  0.1467
13402TIP3   OH261696   1.093   5.666   2.432 -0.1033 -0.5316  0.1548
13402TIP3    H161697   1.175   5.712   2.419  0.0789 -0.5952  1.0501
13402TIP3    H261698   1.028   5.735   2.445  0.0289 -0.4991  0.6767
13403TIP3   OH261699   1.161   0.652  12.281 -0.1751  0.4563 -0.4148
13403TIP3    H161700   1.072   0.617  12.273 -0.0139  0.3296 -1.8671
13403TIP3    H261701   1.151   0.733  12.330 -0.8700 -0.4217  0.9032
13404TIP3   OH261702   6.325   2.140   0.254  0.3412 -0.0125 -0.6624
13404TIP3    H161703   6.392   2.141   0.186  1.0202  1.1312  0.0038
13404TIP3    H261704   6.276   2.059   0.239  1.3483 -0.4402 -1.6614
13405TIP3   OH261705   6.239   5.697   4.834  0.4849  0.1850  0.1218
13405TIP3    H161706   6.266   5.759   4.765  1.4916  0.2238  0.5416
13405TIP3    H261707   6.145   5.686   4.821  0.3422  1.6137 -0.1165
13406TIP3   OH261708   2.551   4.138   4.557 -0.4584  0.7151  0.0353
13406TIP3    H161709   2.603   4.172   4.630  0.2610  0.8783 -0.5544
13406TIP3    H261710   2.497   4.212   4.529 -1.9009  0.2346  1.4059
13407TIP3   OH261711   3.005   0.065  13.785 -0.1390  0.7674 -0.0636
13407TIP3    H161712   2.998   0.047  13.691  1.0664  0.2811 -0.0647
13407TIP3    H261713   2.914   0.069  13.814 -0.5254 -0.7110 -0.9590
13408TIP3   OH261714   0.554   5.118   5.501 -0.1965  0.0983  0.0217
13408TIP3    H161715   0.477   5.172   5.521 -0.3514 -0.5392  1.1907
13408TIP3    H261716   0.605   5.119   5.582  1.7720  1.7028 -1.1776
13409TIP3   OH261717   6.041   3.809   4.373  0.6832 -0.2084 -0.3120
13409TIP3    H161718   6.038   3.747   4.300 -0.6678  0.4895 -0.8795
13409TIP3    H261719   6.016   3.893   4.334  0.1525  0.2178  0.9068
13410TIP3   OH261720   3.462   5.513  16.687  0.6229  0.2417  0.0800
13410TIP3    H161721   3.523   5.564  16.739 -0.4974  0.7261  0.9460
13410TIP3    H261722   3.506   5.429  16.674  0.9185  0.1038  1.8330
13411TIP3   OH261723   1.302   6.744   1.511  0.3039 -0.1226  0.1324
13411TIP3    H161724   1.319   6.677   1.446  0.6675 -1.1345  1.2421
13411TIP3    H261725   1.207   6.758   1.509  0.2710 -0.4352 -0.3324
13412TIP3   OH261726   6.606   3.791  16.459  0.3022 -0.0294  0.5398
13412TIP3    H161727   6.516   3.816  16.439  0.6315  0.8494  0.1245
13412TIP3    H261728   6.647   3.780  16.373  0.4202 -1.0728  0.7227
13413TIP3   OH261729   0.051   2.199  11.168  0.3539 -0.0731 -0.5170
13413TIP3    H161730   0.015   2.285  11.143 -2.7424 -0.6795  1.5023
13413TIP3    H261731   0.127   2.220  11.223  1.3378  1.3187 -2.3699
13414TIP3   OH261732   4.037   5.911  15.060  0.2506  0.0444  0.4937
13414TIP3    H161733   4.008   5.998  15.034  1.7883  0.6633  0.7797
13414TIP3    H261734   3.974   5.851  15.020  0.7242  1.1448 -1.9698
13415TIP3   OH261735   6.723   0.929   2.507  0.0809 -0.3852 -0.1178
13415TIP3    H161736   6.744   0.926   2.601 -1.2481  2.3127  0.3012
13415TIP3    H261737   6.659   0.860   2.494 -1.2208  0.5091  1.3876
13416TIP3   OH261738   0.696   4.536   6.003  0.6912  0.0401  0.1626
13416TIP3    H161739   0.606   4.506   6.019  1.2935 -2.1585 -0.4651
13416TIP3    H261740   0.713   4.598   6.074 -1.6647  1.2842 -0.2803
13417TIP3   OH261741   0.785   1.981  16.365  0.3931 -0.2762 -0.1206
13417TIP3    H161742   0.836   1.934  16.431  2.3483  0.5691 -0.9869
13417TIP3    H261743   0.812   1.941  16.282  0.9920  1.3754 -0.7354
13418TIP3   OH261744   2.955   6.274   3.733 -0.5996 -0.0032  0.0223
13418TIP3    H161745   2.976   6.203   3.794 -0.6884 -0.2856 -0.2673
13418TIP3    H261746   2.995   6.352   3.771 -1.3179 -0.0273  0.8221
13419TIP3   OH261747   2.719   6.771   4.090  0.9178 -0.7492 -0.6594
13419TIP3    H161748   2.710   6.865   4.103 -3.1477 -0.9034 -1.7655
13419TIP3    H261749   2.687   6.732   4.171  1.6939 -1.2036 -0.5678
13420TIP3   OH261750   0.803   4.172  11.806  0.3359  0.0949  0.2072
13420TIP3    H161751   0.887   4.210  11.831  1.5849 -2.7279  0.4012
13420TIP3    H261752   0.765   4.142  11.888  0.0131 -0.4274 -0.1325
13421TIP3   OH261753   2.606   5.038  11.238  0.3962 -0.0429  0.4843
13421TIP3    H161754   2.644   4.992  11.163  0.7843 -2.6951  2.2484
13421TIP3    H261755   2.681   5.074  11.285  0.3615 -0.7727  1.1044
13422TIP3   OH261756   6.712   1.651  16.622 -0.2531  0.0777 -0.0738
13422TIP3    H161757   6.803   1.672  16.642 -0.0917 -1.6545  1.1226
13422TIP3    H261758   6.711   1.629  16.529  1.0202 -2.3742  0.4837
13423TIP3   OH261759   2.957   4.912  11.283 -0.1747 -0.3740 -0.1361
13423TIP3    H161760   2.985   4.898  11.193 -0.1548  2.4027 -0.5938
13423TIP3    H261761   2.887   4.848  11.297  0.2805 -1.2711 -1.8884
13424TIP3   OH261762   0.015   3.383   5.953 -0.5281 -0.6662  0.4978
13424TIP3    H161763  -0.056   3.330   5.989 -2.3794  0.7580 -0.9508
13424TIP3    H261764  -0.007   3.472   5.978  0.1163 -0.0801 -1.0023
13425TIP3   OH261765   0.221   3.200   4.167 -0.2107  0.0526  0.2319
13425TIP3    H161766   0.226   3.111   4.132  0.7525  0.2308 -0.0853
13425TIP3    H261767   0.138   3.202   4.214 -1.8049 -0.0335 -2.4612
13426TIP3   OH261768   4.371   5.029  12.867 -0.4710  0.3445  0.0543
13426TIP3    H161769   4.424   5.044  12.788  0.9909 -1.2148  0.7165
13426TIP3    H261770   4.369   5.115  12.910  1.5285  0.4458  0.0012
13427TIP3   OH261771   1.366   5.626   5.891 -0.0436 -0.2668 -0.5866
13427TIP3    H161772   1.289   5.574   5.916 -0.8935  1.2093  0.0289
13427TIP3    H261773   1.373   5.616   5.797 -0.2684 -1.3856 -0.4877
13428TIP3   OH261774   4.026   1.417  12.227 -0.0716  0.0746  0.0226
13428TIP3    H161775   3.975   1.478  12.280 -2.3766 -1.5496 -0.2759
13428TIP3    H261776   4.097   1.390  12.285 -0.9283  0.4987  1.3035
13429TIP3   OH261777   2.921   1.214   0.937  0.0984  0.4931 -0.2293
13429TIP3    H161778   2.921   1.119   0.949 -0.7662  0.6219  0.8612
13429TIP3    H261779   3.000   1.232   0.886 -0.7961 -1.0189 -2.2422
13430TIP3   OH261780   5.986   4.859   4.201  0.1925 -0.1950  0.1671
13430TIP3    H161781   6.014   4.908   4.124  1.0873 -2.0854 -0.7292
13430TIP3    H261782   6.054   4.876   4.266  0.4603 -0.1676 -0.1180
13431TIP3   OH261783   6.300   2.364  12.332 -0.3927 -0.1357  0.2135
13431TIP3    H161784   6.355   2.387  12.407 -0.4193 -2.1399  0.9056
13431TIP3    H261785   6.210   2.380  12.363 -0.3050  1.2542 -0.2212
13432TIP3   OH261786   6.087   1.162   0.302 -0.2059  0.2249  0.0425
13432TIP3    H161787   6.015   1.183   0.242 -0.7278 -0.5968  0.3770
13432TIP3    H261788   6.100   1.242   0.353  0.3968  1.0133 -1.3197
13433TIP3   OH261789   2.170   5.069  14.700 -0.5224  0.0897  0.1575
13433TIP3    H161790   2.251   5.022  14.679 -1.6944 -1.3731 -1.2633
13433TIP3    H261791   2.172   5.145  14.642  0.8392  1.2097  1.6478
13434TIP3   OH261792   5.029   5.239   2.366 -0.6563  0.0617 -0.5192
13434TIP3    H161793   4.964   5.204   2.305 -1.8948  0.0257  0.7904
13434TIP3    H261794   5.079   5.163   2.395  0.1371  0.1225 -1.7132
13435TIP3   OH261795   0.718   4.225  14.153  0.2570  0.6421  0.2165
13435TIP3    H161796   0.786   4.161  14.175  0.9298  1.8898  1.8084
13435TIP3    H261797   0.703   4.211  14.059  3.1312  0.7218 -0.3196
13436TIP3   OH261798   5.842   1.587  15.207  0.7149 -0.3023  0.0726
13436TIP3    H161799   5.893   1.628  15.276 -1.4561  0.1092  1.4785
13436TIP3    H261800   5.774   1.538  15.253 -0.7554 -0.0352 -1.7383
13437TIP3   OH261801   3.903   3.371  16.614  0.5340  0.0425 -0.2049
13437TIP3    H161802   3.940   3.283  16.616  0.0493 -0.1737 -0.7868
13437TIP3    H261803   3.825   3.366  16.668  1.0498  0.3632  0.5731
13438TIP3   OH261804   0.618   0.088  16.008 -0.0247 -0.2603 -0.7196
13438TIP3    H161805   0.628  -0.005  16.029  0.2740  0.0425  0.4989
13438TIP3    H261806   0.696   0.130  16.044 -1.2681  0.7943  0.7724
13439TIP3   OH261807   0.248   1.107   0.166 -0.2853 -0.6038  0.2318
13439TIP3    H161808   0.194   1.151   0.232  1.8027 -1.0634  2.2853
13439TIP3    H261809   0.190   1.040   0.129 -2.1869  1.1469 -0.0523
13440TIP3   OH261810   1.914   0.929  12.663  0.0572 -1.0072  0.2990
13440TIP3    H161811   1.888   0.938  12.571  0.4992 -0.6939  0.2036
13440TIP3    H261812   1.847   0.979  12.711  0.5012 -0.1526  0.0464
13441TIP3   OH261813   2.518   1.102  15.012 -0.0135 -0.4630 -0.2896
13441TIP3    H161814   2.497   1.194  15.001 -1.9946 -0.8681 -0.0437
13441TIP3    H261815   2.496   1.062  14.928 -1.8259 -1.1713  0.4951
13442TIP3   OH261816   0.546   1.140  15.925 -0.2561 -0.0108 -0.0336
13442TIP3    H161817   0.572   1.209  15.864 -1.4957  1.0766  0.6320
13442TIP3    H261818   0.616   1.075  15.919  0.0227  0.4438 -2.0083
13443TIP3   OH261819   3.686   4.340  16.376 -0.2263 -1.1018 -0.0409
13443TIP3    H161820   3.737   4.407  16.422  0.8296 -0.5448 -1.9316
13443TIP3    H261821   3.748   4.268  16.362 -0.6546 -1.4494 -0.1706
13444TIP3   OH261822   6.221   6.487   5.843 -0.1197  0.1740  0.1732
13444TIP3    H161823   6.244   6.505   5.934 -0.4616  0.1917  0.2601
13444TIP3    H261824   6.147   6.546   5.826  0.0937  0.3340 -0.1847
13445TIP3   OH261825   5.618   2.033  12.680 -0.1587 -0.4090  0.2115
13445TIP3    H161826   5.620   1.940  12.700  0.0246 -0.0019  2.1823
13445TIP3    H261827   5.707   2.063  12.697 -0.5046  0.3541  0.6879
13446TIP3   OH261828   2.509   5.109   2.911  0.3064  0.0760  0.1303
13446TIP3    H161829   2.434   5.128   2.967  2.5159  4.1412  1.9534
13446TIP3    H261830   2.549   5.032   2.950 -1.7329 -0.8983  0.3511
13447TIP3   OH261831   1.045   6.459   3.484 -0.0561 -0.3376  0.5550
13447TIP3    H161832   1.097   6.379   3.496 -0.3240 -0.5431  0.3473
13447TIP3    H261833   1.103   6.519   3.437 -0.1648 -0.7268 -0.0725
13448TIP3   OH261834   4.859   3.394  13.586 -0.2062  0.2186 -0.1321
13448TIP3    H161835   4.867   3.302  13.612 -1.4088  0.5017  1.3378
13448TIP3    H261836   4.919   3.441  13.644  0.1053  0.4110 -0.6075
13449TIP3   OH261837   0.703   5.877  16.906 -0.2753 -0.5456 -0.3082
13449TIP3    H161838   0.715   5.895  16.812  1.8789  1.6018  0.3239
13449TIP3    H261839   0.611   5.851  16.914 -0.7269  0.0991 -2.8859
13450TIP3   OH261840   3.651   5.679  16.817  0.0276  0.2571 -0.4125
13450TIP3    H161841   3.598   5.711  16.890 -1.3663 -0.7103 -0.9871
13450TIP3    H261842   3.728   5.640  16.858  0.0472  1.1844  0.4539
13451TIP3   OH261843   4.469   1.077   1.198  0.4030  0.0792 -0.2294
13451TIP3    H161844   4.435   0.990   1.217 -1.1081  0.8404  0.6558
13451TIP3    H261845   4.455   1.089   1.104 -0.6917 -0.0913 -0.0923
13452TIP3   OH261846   4.406   4.494   0.978  0.3673  0.0192 -0.1420
13452TIP3    H161847   4.359   4.567   1.018  2.1168  1.6086 -0.9036
13452TIP3    H261848   4.373   4.416   1.023 -2.3726  1.1546 -0.1070
13453TIP3   OH261849   4.466   5.486  17.278 -0.3849 -0.0701 -0.2371
13453TIP3    H161850   4.386   5.447  17.242 -0.1349 -0.5266 -0.3017
13453TIP3    H261851   4.452   5.486  17.373 -0.8346  0.6746 -0.2965
13454TIP3   OH261852   0.850   1.473  12.943  0.1236  0.2596  0.5363
13454TIP3    H161853   0.820   1.429  13.022 -0.7015  0.4712  0.3481
13454TIP3    H261854   0.773   1.522  12.912  1.2502  2.6145  1.2889
13455TIP3   OH261855   6.462   2.602  11.332  0.2883  0.0883 -0.9304
13455TIP3    H161856   6.457   2.554  11.249 -2.3846 -1.3445 -0.0100
13455TIP3    H261857   6.380   2.580  11.377  0.9951  2.0741  1.4265
13456TIP3   OH261858   4.179   1.699   2.352  0.0645  0.2178  0.0767
13456TIP3    H161859   4.274   1.705   2.347  0.1332 -2.1170 -2.1966
13456TIP3    H261860   4.148   1.765   2.290  0.1910  0.9110  0.7446
13457TIP3   OH261861   5.283   4.240  15.679  0.0761 -0.1083 -0.3632
13457TIP3    H161862   5.309   4.153  15.710  0.6503  0.1520 -0.1010
13457TIP3    H261863   5.203   4.260  15.727  2.4933  1.5149  3.1936
13458TIP3   OH261864   3.168   1.291   0.519 -0.8288  0.2816  0.2324
13458TIP3    H161865   3.196   1.284   0.611  0.0075 -0.0782 -0.0421
13458TIP3    H261866   3.097   1.355   0.520 -1.4756 -0.4410  1.2725
13459TIP3   OH261867   1.465   5.540  16.069  0.3769 -0.4758  0.6026
13459TIP3    H161868   1.508   5.551  16.153  0.1029  0.8716  0.5752
13459TIP3    H261869   1.537   5.526  16.007  0.7778  1.3347  0.6246
13460TIP3   OH261870   1.372   3.103   5.033 -0.5028 -0.1232  0.3111
13460TIP3    H161871   1.341   3.069   4.949 -0.1077  1.0424 -0.3126
13460TIP3    H261872   1.359   3.031   5.095 -1.5077 -0.7214 -0.5949
13461TIP3   OH261873   0.237   0.675   6.624  1.2233 -0.5212  0.1697
13461TIP3    H161874   0.206   0.668   6.715 -1.0002  0.1138 -0.5034
13461TIP3    H261875   0.262   0.586   6.601  0.4540 -0.9583  0.9543
13462TIP3   OH261876   5.741   5.313   4.750  0.0394  0.0461 -0.7215
13462TIP3    H161877   5.664   5.303   4.806 -0.3673  1.3690 -1.0203
13462TIP3    H261878   5.706   5.348   4.668  0.7224 -1.2095 -1.5574
13463TIP3   OH261879   5.309   3.108   5.698 -0.5633 -0.1532 -0.5157
13463TIP3    H161880   5.253   3.171   5.742 -2.6474 -1.6883 -0.8855
13463TIP3    H261881   5.295   3.026   5.745 -1.5637 -1.4319 -2.9830
13464TIP3   OH261882   2.703   6.723  14.461  0.2459  0.3682 -0.2700
13464TIP3    H161883   2.637   6.746  14.526  0.3671 -0.6595  0.2228
13464TIP3    H261884   2.730   6.634  14.485  1.1689  0.4524 -0.9913
13465TIP3   OH261885   3.175   2.093  15.660 -0.5398 -0.5130  0.1533
13465TIP3    H161886   3.237   2.078  15.731 -0.4264 -0.3635  0.0867
13465TIP3    H261887   3.225   2.140  15.593 -1.3914  2.0056  1.1995
13466TIP3   OH261888   1.004   2.802   3.551 -0.1766 -0.0200  0.0004
13466TIP3    H161889   0.971   2.712   3.561  1.2373 -0.3436  1.9998
13466TIP3    H261890   1.017   2.833   3.640  1.4359  1.4146 -0.7148
13467TIP3   OH261891   3.639   4.260  15.092  0.2326  0.3629 -0.2919
13467TIP3    H161892   3.692   4.202  15.146  1.0466  1.7699  0.4502
13467TIP3    H261893   3.658   4.348  15.125  0.2387  1.2018 -2.4211
13468TIP3   OH261894   2.659   6.658  11.378  0.5524 -0.5154 -0.1926
13468TIP3    H161895   2.572   6.643  11.414  0.5197 -1.2511 -0.5775
13468TIP3    H261896   2.693   6.733  11.427 -1.2726  1.3862 -1.7409
13469TIP3   OH261897   0.257   2.960  17.002 -0.6033 -0.0094  0.6934
13469TIP3    H161898   0.252   2.999  17.090 -1.4620  1.5037 -0.0122
13469TIP3    H261899   0.295   2.874  17.017 -0.3061  0.4044  2.5076
13470TIP3   OH261900   0.866   1.090  12.732 -0.7634  0.6766 -0.1486
13470TIP3    H161901   0.872   1.008  12.683 -1.4908 -0.2414  1.2498
13470TIP3    H261902   0.948   1.136  12.712  0.0027 -0.7359 -0.3387
13471TIP3   OH261903   5.003   3.858  15.104  0.1675  0.7333 -0.3250
13471TIP3    H161904   5.013   3.803  15.026 -0.7682 -1.3765  1.0047
13471TIP3    H261905   4.921   3.828  15.144  1.2556  0.9245  2.1238
13472TIP3   OH261906   5.357   3.465  11.075  0.3248 -0.0190 -0.2276
13472TIP3    H161907   5.367   3.371  11.059  0.7067  0.2345 -1.5009
13472TIP3    H261908   5.398   3.478  11.161  0.3468 -0.9920 -0.0773
13473TIP3   OH261909   1.939   3.496   5.531 -0.4846 -0.0656  0.1697
13473TIP3    H161910   1.962   3.583   5.498 -0.3546  0.5711  1.8945
13473TIP3    H261911   2.012   3.440   5.505 -0.7782  0.2369 -1.3265
13474TIP3   OH261912   4.416   6.180  16.370  0.2476 -0.0167 -0.0373
13474TIP3    H161913   4.425   6.120  16.445 -0.8915  0.5317  0.5457
13474TIP3    H261914   4.375   6.127  16.302  1.7337 -0.6577 -0.4580
13475TIP3   OH261915   3.446   1.216  12.784 -0.5903  0.1928  0.0107
13475TIP3    H161916   3.519   1.268  12.817 -0.3506  1.6837 -2.7417
13475TIP3    H261917   3.454   1.132  12.829  3.2279  0.0607 -0.7795
13476TIP3   OH261918   5.357   2.957  14.147  0.0513 -0.4521 -0.0599
13476TIP3    H161919   5.314   2.908  14.217  0.9557  0.2636  1.0185
13476TIP3    H261920   5.447   2.924  14.146  0.1451 -0.1828 -0.6303
13477TIP3   OH261921   0.232   0.292  14.185 -0.4786  0.1763  0.2212
13477TIP3    H161922   0.289   0.253  14.251 -0.0430  0.1373 -0.1714
13477TIP3    H261923   0.214   0.381  14.217 -0.7797 -0.0601  0.6970
13478TIP3   OH261924   5.276   0.519   5.334 -1.1638  0.5341  0.8988
13478TIP3    H161925   5.336   0.446   5.350 -2.8238 -0.6254  2.1537
13478TIP3    H261926   5.273   0.566   5.418  0.8221  2.8128 -0.2501
13479TIP3   OH261927   3.749   2.916   0.515 -0.3844 -0.0557  0.0380
13479TIP3    H161928   3.765   2.830   0.555  0.0829  0.1168  0.2340
13479TIP3    H261929   3.654   2.924   0.511 -0.4331 -0.9039 -0.6772
13480TIP3   OH261930   4.928   2.961  12.811 -0.4778 -0.4024  0.4519
13480TIP3    H161931   4.969   3.028  12.866 -1.8205 -0.6390  1.7529
13480TIP3    H261932   5.001   2.923  12.762  0.4640  1.1451  0.6197
13481TIP3   OH261933   5.747   6.183  11.215 -0.3190  0.3014 -0.0081
13481TIP3    H161934   5.671   6.133  11.182 -0.3341  0.8538 -0.8330
13481TIP3    H261935   5.786   6.221  11.136 -0.6655  2.0998  0.6782
13482TIP3   OH261936   5.522   4.110  16.516  0.2453  0.0863  0.1723
13482TIP3    H161937   5.615   4.132  16.523 -0.3755  2.3839  1.6406
13482TIP3    H261938   5.502   4.122  16.423  1.6133 -1.4807 -0.3757
13483TIP3   OH261939   0.012   6.739   1.167 -0.0092 -0.1461 -0.0309
13483TIP3    H161940  -0.056   6.802   1.193  1.1296  1.9193 -1.9128
13483TIP3    H261941  -0.035   6.673   1.116 -0.7079  1.0618 -0.9914
13484TIP3   OH261942   5.624   5.752   5.986  0.0688 -0.0638 -0.1456
13484TIP3    H161943   5.552   5.803   6.025  0.1680  0.9001 -1.2093
13484TIP3    H261944   5.703   5.799   6.012  0.1359  0.6042 -1.5146
13485TIP3   OH261945   6.118   5.028   3.224  0.0356 -0.3909  0.1221
13485TIP3    H161946   6.153   5.079   3.297 -1.9665  1.0630  0.1223
13485TIP3    H261947   6.186   5.031   3.157  1.5669 -1.0632  1.6047
13486TIP3   OH261948   2.609   2.129  14.620  0.6369  0.2114  0.0457
13486TIP3    H161949   2.581   2.194  14.554 -1.0753  0.1842  0.7238
13486TIP3    H261950   2.625   2.050  14.569 -1.6520 -0.0951 -0.2434
13487TIP3   OH261951   5.398   0.163   5.640  0.1459 -0.8757  0.1788
13487TIP3    H161952   5.414   0.215   5.719 -2.8502  0.4318 -0.0170
13487TIP3    H261953   5.340   0.093   5.669  0.9248 -1.7778 -0.4132
13488TIP3   OH261954   6.651   4.218  12.979  0.0582 -0.1345  0.6419
13488TIP3    H161955   6.627   4.309  12.999 -0.8161 -0.3367  0.5311
13488TIP3    H261956   6.596   4.165  13.036  1.0761 -0.5891  1.2177
13489TIP3   OH261957   1.955   4.249  15.574  0.0455 -0.1354 -0.3229
13489TIP3    H161958   1.878   4.214  15.529 -0.7342  0.3665  0.6103
13489TIP3    H261959   1.919   4.306  15.642  1.2505  0.3457 -0.0821
13490TIP3   OH261960   6.587   1.699  12.587 -0.4599 -0.0182  0.5894
13490TIP3    H161961   6.569   1.613  12.548 -0.7607 -0.2029  1.1294
13490TIP3    H261962   6.525   1.758  12.544  0.1529  0.0593 -0.2286
13491TIP3   OH261963   4.308   6.471   2.252 -0.3533  0.7885 -0.3225
13491TIP3    H161964   4.245   6.540   2.230 -0.3692  0.7620 -0.3606
13491TIP3    H261965   4.257   6.407   2.301 -0.3193  0.8421 -0.2166
13492TIP3   OH261966   0.509   2.143   3.396  0.3547 -0.0700 -0.6465
13492TIP3    H161967   0.543   2.059   3.429 -2.2140 -1.1000 -0.5020
13492TIP3    H261968   0.485   2.124   3.305  1.0586  0.9083 -1.0392
13493TIP3   OH261969   3.653   6.002  13.649 -0.0134 -0.2995 -0.2578
13493TIP3    H161970   3.623   5.918  13.614  1.2285 -0.5208 -0.8149
13493TIP3    H261971   3.582   6.063  13.630 -0.7447 -1.1303 -0.2303
13494TIP3   OH261972   0.323   0.567   1.510 -0.3202 -0.6606 -0.0144
13494TIP3    H161973   0.335   0.523   1.594 -0.5213 -1.8834 -0.6152
13494TIP3    H261974   0.288   0.499   1.452  1.5333 -0.2943 -1.5864
13495TIP3   OH261975   0.203   4.358   0.157 -0.0708  0.5486 -0.2328
13495TIP3    H161976   0.127   4.320   0.203  0.8633 -0.3277  0.6121
13495TIP3    H261977   0.172   4.443   0.126 -0.8878  0.9284  1.5598
13496TIP3   OH261978   1.311   5.669  12.537 -0.3360  0.2358  0.3290
13496TIP3    H161979   1.361   5.599  12.579 -2.2809 -0.5855  1.3450
13496TIP3    H261980   1.260   5.707  12.608 -0.6036  1.5441 -0.5584
13497TIP3   OH261981   1.497   3.939  13.084 -0.4575  0.0097  0.5122
13497TIP3    H161982   1.573   3.909  13.034  0.3022  0.1868  1.5309
13497TIP3    H261983   1.489   3.876  13.156  0.0896  1.2230  1.6730
13498TIP3   OH261984   1.228   1.318  15.266  0.1050 -0.5196 -0.0460
13498TIP3    H161985   1.299   1.262  15.297  1.7789  0.8386 -1.3756
13498TIP3    H261986   1.256   1.407  15.287 -1.8804 -0.0505  0.7261
13499TIP3   OH261987   0.143   3.784   0.735 -0.1530 -0.6488 -0.0064
13499TIP3    H161988   0.225   3.831   0.716  0.1914 -0.9609  0.7005
13499TIP3    H261989   0.137   3.718   0.666 -0.2868 -0.0308 -0.6033
13500TIP3   OH261990   4.961   5.535  12.687 -0.3042  0.2125 -0.4070
13500TIP3    H161991   5.045   5.539  12.733  0.2529  0.8804 -1.4591
13500TIP3    H261992   4.975   5.469  12.619 -1.2377 -1.0402  0.5799
13501TIP3   OH261993   1.239   5.241   1.538  0.2107 -0.1403 -0.3444
13501TIP3    H161994   1.172   5.241   1.470 -0.5401 -1.0007  0.3744
13501TIP3    H261995   1.309   5.185   1.504  0.1865  0.0702 -0.7354
13502TIP3   OH261996   3.273   5.243   5.275  0.3173 -0.2734 -0.2508
13502TIP3    H161997   3.212   5.302   5.320  0.1700  0.4476 -1.3590
13502TIP3    H261998   3.218   5.197   5.211  0.6356 -0.8243 -0.1267
13503TIP3   OH261999   3.579   2.724  15.027 -0.3514 -0.1770  0.4180
13503TIP3    H162000   3.559   2.742  15.119  1.2233 -0.1564  0.7771
13503TIP3    H262001   3.513   2.771  14.978 -0.2844  1.0723  1.5057
13504TIP3   OH262002   1.641   5.750   6.650  0.3356 -0.5054 -0.6393
13504TIP3    H162003   1.614   5.663   6.623  0.3343  0.1930 -2.9601
13504TIP3    H262004   1.696   5.736   6.727 -0.5535 -2.4610 -0.3427
13505TIP3   OH262005   1.038   3.587  13.838  0.7266 -0.4463  0.4120
13505TIP3    H162006   1.074   3.505  13.804  0.3521 -1.1580  1.7176
13505TIP3    H262007   1.029   3.642  13.760  0.7587 -1.7158 -0.5146
13506TIP3   OH262008   0.856   1.589  11.153 -0.1771  0.2543  0.5359
13506TIP3    H162009   0.782   1.622  11.104 -0.6712 -1.2622  0.2400
13506TIP3    H262010   0.933   1.621  11.105 -0.6408 -1.9102 -1.7477
13507TIP3   OH262011   3.096   3.495  17.209 -0.6813 -0.4321  0.1826
13507TIP3    H162012   3.130   3.428  17.267 -0.5926 -1.6882 -1.2823
13507TIP3    H262013   3.162   3.504  17.141 -0.3991  1.6028  0.6996
13508TIP3   OH262014   2.126   2.197  14.323  0.3221  0.2047  0.2543
13508TIP3    H162015   2.195   2.149  14.277  0.9020  1.4677 -0.1923
13508TIP3    H262016   2.058   2.131  14.339  1.0061 -0.7102 -0.5798
13509TIP3   OH262017   3.719   2.210  16.507 -0.2584  0.1055 -0.1657
13509TIP3    H162018   3.625   2.231  16.512 -0.4773 -0.6082 -1.2241
13509TIP3    H262019   3.760   2.294  16.486 -0.7839  0.1945 -0.8838
13510TIP3   OH262020   1.563   6.383   0.506 -0.0579  0.1047 -0.1718
13510TIP3    H162021   1.565   6.305   0.450  1.3884  0.8083 -1.1340
13510TIP3    H262022   1.636   6.372   0.566  0.5217  0.9798 -0.6967
13511TIP3   OH262023   2.173   0.791  13.717  0.0289  0.0319 -0.7288
13511TIP3    H162024   2.094   0.796  13.662 -0.9017 -0.0437  0.5615
13511TIP3    H262025   2.194   0.882  13.736 -2.5440 -0.0030  2.7615
13512TIP3   OH262026   4.272   3.607   2.358 -0.0483  0.0183  0.6565
13512TIP3    H162027   4.298   3.644   2.274  1.9254 -0.3487  1.0749
13512TIP3    H262028   4.316   3.663   2.423 -1.2766  0.0964  1.4484
13513TIP3   OH262029   0.912   6.797  13.922 -0.4117 -0.0163  0.2254
13513TIP3    H162030   0.937   6.769  14.011 -1.6078 -0.4590  0.4328
13513TIP3    H262031   0.952   6.884  13.912  1.4471 -0.8307  0.4207
13514TIP3   OH262032   3.141   3.649   0.211 -0.4718 -0.2748 -0.0006
13514TIP3    H162033   3.175   3.726   0.165 -0.6025  0.5795  1.2998
13514TIP3    H262034   3.089   3.686   0.284  0.3531 -1.5846  1.2703
13515TIP3   OH262035   0.645   6.695  11.456 -0.2321 -0.3504  0.0298
13515TIP3    H162036   0.560   6.716  11.494 -0.2474 -0.4672  0.0625
13515TIP3    H262037   0.671   6.774  11.409 -0.0075 -0.0488  0.6527
13516TIP3   OH262038   0.317   4.799  16.509 -0.1224  0.2130  0.1452
13516TIP3    H162039   0.290   4.855  16.437  2.1652  1.4867  0.2149
13516TIP3    H262040   0.263   4.827  16.583 -0.1493  1.2029 -0.2387
13517TIP3   OH262041   5.745   4.517   1.945  0.0860  0.1145  0.1900
13517TIP3    H162042   5.814   4.559   1.894 -0.4424  0.1925 -0.4645
13517TIP3    H262043   5.792   4.462   2.008  0.7416 -0.8479 -1.1128
13518TIP3   OH262044   1.418   3.944   1.419  0.5147  0.4075  0.6192
13518TIP3    H162045   1.467   4.015   1.462  0.0915  0.6604  0.6840
13518TIP3    H262046   1.345   3.988   1.375  0.2732  0.0170  0.6265
13519TIP3   OH262047   6.207   6.519  14.513 -0.3685  0.1384  0.5269
13519TIP3    H162048   6.138   6.522  14.579 -1.2103 -1.1650 -0.2794
13519TIP3    H262049   6.226   6.426  14.502  0.3138  0.3885 -0.5111
13520TIP3   OH262050   2.648   0.320  14.589 -0.5373  0.6304 -0.4436
13520TIP3    H162051   2.706   0.390  14.615 -0.5329  0.7264 -0.7061
13520TIP3    H262052   2.639   0.330  14.494 -0.8483  0.5169 -0.4292
13521TIP3   OH262053   1.219   3.295   4.098 -0.1769  0.1933  0.0619
13521TIP3    H162054   1.223   3.201   4.115 -0.1732  0.0890 -0.4904
13521TIP3    H262055   1.285   3.333   4.156 -0.2611 -0.1329  0.3706
13522TIP3   OH262056   5.639   6.499   6.498  0.3440 -0.2256  0.3277
13522TIP3    H162057   5.705   6.500   6.429  1.6734 -0.6778  1.5634
13522TIP3    H262058   5.570   6.442   6.465  2.1833 -2.5701  0.4592
13523TIP3   OH262059   2.328   1.152   0.631 -0.5468  0.5389 -0.0544
13523TIP3    H162060   2.263   1.175   0.565 -1.2727 -0.2256  0.3695
13523TIP3    H262061   2.410   1.144   0.583 -1.2667 -1.0582 -1.0549
13524TIP3   OH262062   4.457   2.750  13.456  0.1351 -0.1093 -0.0030
13524TIP3    H162063   4.537   2.703  13.482  1.1400  0.1212 -2.5870
13524TIP3    H262064   4.397   2.682  13.427  0.4249 -0.0541 -0.7317
13525TIP3   OH262065   2.919   1.199   5.764 -0.5556  0.3952  0.2457
13525TIP3    H162066   2.834   1.232   5.734 -0.5743  0.7467  0.6814
13525TIP3    H262067   2.910   1.104   5.763 -1.5421  0.4575  2.0061
13526TIP3   OH262068   1.575   0.786  15.574 -0.1324  0.5598 -0.2490
13526TIP3    H162069   1.488   0.755  15.548 -0.3552  1.3137 -0.4171
13526TIP3    H262070   1.557   0.861  15.632  0.3958  0.4148  0.1046
13527TIP3   OH262071   0.356   6.529  13.156  0.9366 -0.2371 -0.9052
13527TIP3    H162072   0.360   6.603  13.216  1.1868 -0.0866 -1.1057
13527TIP3    H262073   0.372   6.453  13.211  0.8648 -0.1281 -0.7309
13528TIP3   OH262074   4.414   2.873   0.390 -0.2664  0.4320  0.0716
13528TIP3    H162075   4.344   2.900   0.331  0.1366 -0.3026 -0.7512
13528TIP3    H262076   4.373   2.810   0.449 -0.6457  1.0991  0.5276
13529TIP3   OH262077   4.099   4.144   4.645  0.6703 -0.1430 -0.0473
13529TIP3    H162078   4.110   4.179   4.557 -2.1339 -0.6767 -0.6404
13529TIP3    H262079   4.080   4.051   4.632  0.0714 -0.1884  1.1056
13530TIP3   OH262080   2.967   2.126  11.900  0.4092  0.5815  0.3300
13530TIP3    H162081   2.923   2.081  11.972 -0.9332 -0.4519 -1.0826
13530TIP3    H262082   2.961   2.219  11.922 -0.5840  0.3126  1.2158
13531TIP3   OH262083   2.211   4.166  11.497  0.3579 -0.2949 -0.6601
13531TIP3    H162084   2.233   4.161  11.590  0.4364 -0.0029 -0.6604
13531TIP3    H262085   2.293   4.191  11.454  0.0067  0.9238 -0.6470
13532TIP3   OH262086   6.252   4.153   6.188 -0.0289 -0.3500 -0.2360
13532TIP3    H162087   6.212   4.230   6.148 -0.8488 -0.9298 -0.5409
13532TIP3    H262088   6.335   4.142   6.142 -0.5203 -0.4358 -1.1059
13533TIP3   OH262089   3.189   2.877   1.927  0.2150 -0.0349  0.2486
13533TIP3    H162090   3.212   2.871   1.834 -0.6629  0.5388 -0.0229
13533TIP3    H262091   3.097   2.850   1.930  0.0022  0.7373  0.8308
13534TIP3   OH262092   3.186   1.944   5.453 -0.1911  0.6398  0.4433
13534TIP3    H162093   3.140   1.998   5.388  2.1750  2.5200  0.2259
13534TIP3    H262094   3.173   1.991   5.535  0.4303  0.6242  0.5539
13535TIP3   OH262095   3.825   0.140  14.895 -0.3201  0.2491  0.4853
13535TIP3    H162096   3.900   0.192  14.868  0.5279 -1.5389 -0.7493
13535TIP3    H262097   3.774   0.198  14.952 -0.2195  2.8858 -2.0188
13536TIP3   OH262098   5.859   6.776  17.120  0.2555  1.0012  0.1589
13536TIP3    H162099   5.823   6.844  17.177 -2.1069  0.7058 -0.8912
13536TIP3    H262100   5.786   6.715  17.108  1.7834 -0.7457 -0.3989
13537TIP3   OH262101   1.462   0.993  14.556  0.6712 -0.1870 -0.1630
13537TIP3    H162102   1.429   0.905  14.537 -0.9341  0.3317  0.1442
13537TIP3    H262103   1.444   1.043  14.476  0.3100  0.2081  0.1631
13538TIP3   OH262104   1.109   4.956   4.287  0.2520  0.1258 -0.0100
13538TIP3    H162105   1.192   4.993   4.318 -0.5299  3.5493 -1.7151
13538TIP3    H262106   1.055   5.033   4.267 -2.7377 -2.0243 -0.5025
13539TIP3   OH262107   4.835   4.922  13.290  0.1847  0.5626  0.7714
13539TIP3    H162108   4.801   4.832  13.293  0.8978  0.3224  2.5059
13539TIP3    H262109   4.851   4.938  13.197 -0.2595 -0.9887  0.3979
13540TIP3   OH262110   3.651   4.088  15.988  0.1547 -1.1062  0.1143
13540TIP3    H162111   3.729   4.136  16.017  0.5611 -0.9954 -1.1567
13540TIP3    H262112   3.684   4.001  15.965 -0.1888 -1.2327  0.1039
13541TIP3   OH262113   3.914   3.353  12.310  0.7588 -0.2155 -0.8829
13541TIP3    H162114   3.967   3.284  12.270  1.8126  0.3886 -0.5326
13541TIP3    H262115   3.954   3.367  12.396  0.4081  0.6752 -0.8619
13542TIP3   OH262116   5.576   3.274  13.889  0.6565 -0.2434 -0.0074
13542TIP3    H162117   5.535   3.244  13.809  1.7897  2.5953 -1.7452
13542TIP3    H262118   5.654   3.220  13.899  1.5583  0.6736 -1.9272
13543TIP3   OH262119   4.029   6.441  17.229  0.1637 -0.1954  0.2562
13543TIP3    H162120   4.123   6.423  17.235 -0.0355 -1.8062 -0.9729
13543TIP3    H262121   3.993   6.404  17.310  0.2613 -2.0310 -0.5127
13544TIP3   OH262122   6.590   0.659  11.893  0.8003 -0.5307  0.5602
13544TIP3    H162123   6.655   0.728  11.904  1.1177 -0.9238  1.2266
13544TIP3    H262124   6.629   0.600  11.828 -0.0050  0.5361 -0.9101
13545TIP3   OH262125   2.187   2.052   2.400  0.4894  0.2775  0.6293
13545TIP3    H162126   2.117   2.116   2.387  0.1140 -0.3636 -0.4968
13545TIP3    H262127   2.144   1.975   2.437  0.4926 -0.3443 -0.6396
13546TIP3   OH262128   1.156   3.882  11.306  0.4521  0.0096 -0.2832
13546TIP3    H162129   1.200   3.810  11.261  0.0326 -0.5670  0.2352
13546TIP3    H262130   1.095   3.917  11.241  0.8696  0.0977 -0.6347
13547TIP3   OH262131   0.465   1.578   0.999 -0.3270  0.0986 -0.1281
13547TIP3    H162132   0.496   1.668   0.996  0.7356 -0.2637 -0.2356
13547TIP3    H262133   0.374   1.585   1.028  0.0860  1.1277  0.9435
13548TIP3   OH262134   4.421   2.949  16.692 -0.3376  0.9447 -0.1765
13548TIP3    H162135   4.489   2.881  16.702 -2.2846 -0.9265  0.7611
13548TIP3    H262136   4.429   3.002  16.771  0.7205  1.3840 -0.5699
13549TIP3   OH262137   6.782   0.869   5.505 -0.0287  0.2550 -0.0429
13549TIP3    H162138   6.842   0.927   5.551 -0.9399  1.1811 -0.0166
13549TIP3    H262139   6.751   0.809   5.573  2.8953 -1.9794 -0.5683
13550TIP3   OH262140   5.384   4.145  16.018 -0.2214 -0.1332 -0.2393
13550TIP3    H162141   5.344   4.058  16.010 -1.2636  0.2396  0.7136
13550TIP3    H262142   5.318   4.205  15.984 -0.8205  0.5608  2.0034
13551TIP3   OH262143   1.523   4.616   0.078 -0.0978  0.6446  0.2004
13551TIP3    H162144   1.605   4.615   0.127 -0.1446 -2.2999  0.3049
13551TIP3    H262145   1.461   4.571   0.134 -1.4055  1.4940 -0.5386
13552TIP3   OH262146   1.957   0.070  13.916  0.0752  0.0854 -0.1584
13552TIP3    H162147   2.009   0.122  13.977 -1.5167 -1.8051  2.9431
13552TIP3    H262148   2.011  -0.007  13.897  0.5714  0.6738 -1.2063
13553TIP3   OH262149   6.292   4.100   4.968 -0.8031  0.2992  0.4094
13553TIP3    H162150   6.278   4.008   4.945 -0.6126  0.7954 -1.8106
13553TIP3    H262151   6.363   4.129   4.911 -1.3116  2.0006  0.5929
13554TIP3   OH262152   5.883   0.576  17.278 -0.6668  0.6292 -0.5795
13554TIP3    H162153   5.949   0.518  17.316 -0.2681  0.1465 -1.9924
13554TIP3    H262154   5.800   0.529  17.290 -0.6125  0.7120  0.1470
13555TIP3   OH262155   1.519   3.987   3.382  0.0860  0.3245 -0.1574
13555TIP3    H162156   1.458   3.914   3.391  1.4430 -0.9114 -0.7415
13555TIP3    H262157   1.587   3.970   3.447  0.5641  0.9109 -0.4992
13556TIP3   OH262158   1.522   4.715   5.679 -0.5642  0.1420 -0.0829
13556TIP3    H162159   1.588   4.678   5.738 -0.0768 -1.6906 -1.7035
13556TIP3    H262160   1.564   4.792   5.640 -1.1856  1.8515  2.5138
13557TIP3   OH262161   3.006   3.606  15.394  0.6806  1.3270 -0.1598
13557TIP3    H162162   3.098   3.581  15.405  0.5117  0.4962 -0.6218
13557TIP3    H262163   2.984   3.650  15.476  1.0270  0.0647  0.6343
13558TIP3   OH262164   4.436   3.926   5.353  0.3505  0.2638  0.2606
13558TIP3    H162165   4.359   3.978   5.330  0.4383 -0.2115 -1.1327
13558TIP3    H262166   4.490   3.926   5.275 -0.1218 -2.7432 -0.1281
13559TIP3   OH262167   0.274   5.643   3.618 -0.8763  0.8610 -0.1157
13559TIP3    H162168   0.295   5.563   3.666  3.2033  2.0111  0.2462
13559TIP3    H262169   0.204   5.684   3.668 -1.0057 -1.0521  1.3116
13560TIP3   OH262170   4.658   1.889  16.619 -0.2307  0.2535 -0.2174
13560TIP3    H162171   4.667   1.802  16.658  1.1108  0.4082 -0.1413
13560TIP3    H262172   4.644   1.873  16.526  0.1673 -0.0513 -0.2281
13561TIP3   OH262173   4.321   5.723  12.827  0.2651 -0.2294 -0.0970
13561TIP3    H162174   4.341   5.816  12.813  0.6786 -0.4640 -1.0697
13561TIP3    H262175   4.378   5.677  12.766  1.0709 -1.2103  1.3853
13562TIP3   OH262176   0.564   6.429   1.799 -0.1917 -0.1639 -0.4580
13562TIP3    H162177   0.583   6.409   1.891 -0.8100 -1.5128 -0.6075
13562TIP3    H262178   0.642   6.398   1.752 -0.3469 -0.5019 -0.4956
13563TIP3   OH262179   3.093   1.728   5.567  0.3380 -0.1674  0.1993
13563TIP3    H162180   3.008   1.753   5.603  0.6734  0.7616  0.3480
13563TIP3    H262181   3.116   1.799   5.507  0.8422 -0.5944 -0.1146
13564TIP3   OH262182   2.174   1.049  12.642  0.5239 -0.0716 -0.4832
13564TIP3    H162183   2.080   1.037  12.655  0.8151 -0.5694  1.3795
13564TIP3    H262184   2.210   0.960  12.642  1.0650  0.1425 -0.5904
13565TIP3   OH262185   0.969   5.581   2.150 -0.0601  0.0294 -0.9666
13565TIP3    H162186   0.900   5.519   2.173  1.1523 -1.3682 -1.0273
13565TIP3    H262187   1.050   5.539   2.180  0.6631  2.2120  0.2781
13566TIP3   OH262188   6.189   6.004   2.309  0.4391 -0.1662  0.7244
13566TIP3    H162189   6.155   5.960   2.230 -0.6780 -1.8022  2.0740
13566TIP3    H262190   6.128   6.077   2.323  2.0182  1.6072 -1.2451
13567TIP3   OH262191   2.939   5.262   0.719  0.5408  0.0379 -0.3605
13567TIP3    H162192   2.951   5.168   0.713  2.2233  0.3152 -1.7284
13567TIP3    H262193   2.880   5.274   0.794  0.3350 -2.0748 -0.1528
13568TIP3   OH262194   2.289   1.085   3.600  0.1778  0.5323  0.2048
13568TIP3    H162195   2.379   1.053   3.604 -0.2590 -0.8964 -0.9869
13568TIP3    H262196   2.261   1.090   3.692  0.6001 -1.6273  0.4893
13569TIP3   OH262197   0.244   3.820  11.368  0.2041 -0.1997  0.3392
13569TIP3    H162198   0.212   3.757  11.303 -1.1281 -1.1828  1.8832
13569TIP3    H262199   0.196   3.797  11.448  1.5928  1.1614  1.5887
13570TIP3   OH262200   3.561   0.171  11.705 -0.0019  0.3944  0.8488
13570TIP3    H162201   3.581   0.174  11.798 -3.0127  1.8197  1.4951
13570TIP3    H262202   3.471   0.204  11.698  0.3895  0.9297 -2.6225
13571TIP3   OH262203   2.539   0.173  13.900 -0.2508  0.1474  0.0701
13571TIP3    H162204   2.534   0.263  13.933 -1.8498  0.2138 -0.3119
13571TIP3    H262205   2.448   0.144  13.897  0.3154 -1.8011  1.0379
13572TIP3   OH262206   1.283   2.972   0.988  0.0532 -0.1766  1.2473
13572TIP3    H162207   1.355   3.002   0.932 -1.1213  1.5057  0.6083
13572TIP3    H262208   1.325   2.955   1.073  1.5478 -1.1825  0.3314
13573TIP3   OH262209   1.924   5.440  16.765 -0.1405  0.4639 -0.0172
13573TIP3    H162210   1.854   5.440  16.831  0.1199 -2.2894  0.3131
13573TIP3    H262211   1.879   5.460  16.683 -1.1442 -0.2342  0.3558
13574TIP3   OH262212   3.774   0.860   1.831  0.0460 -0.5850 -0.4791
13574TIP3    H162213   3.823   0.930   1.786 -3.3082  0.7857 -2.1857
13574TIP3    H262214   3.803   0.780   1.788  1.3279  0.1159 -0.9509
13575TIP3   OH262215   0.700   0.753  15.527  0.1842  0.2677 -0.0017
13575TIP3    H162216   0.641   0.828  15.518  1.5311  1.3117 -0.4163
13575TIP3    H262217   0.645   0.683  15.563 -1.6863  0.7029 -1.8849
13576TIP3   OH262218   2.242   4.145   0.600  0.0602  0.0730 -0.3528
13576TIP3    H162219   2.325   4.127   0.555 -0.1912 -0.8663 -0.4506
13576TIP3    H262220   2.249   4.097   0.683  1.2937  3.2725  1.4860
13577TIP3   OH262221   5.811   1.021   0.816 -0.3127  0.2487 -0.4207
13577TIP3    H162222   5.872   1.027   0.889  0.3154 -3.3785 -0.5184
13577TIP3    H262223   5.863   1.044   0.739  0.2281 -0.2228 -0.1984
13578TIP3   OH262224   3.774   4.180  13.480 -0.3765  0.0790 -0.2240
13578TIP3    H162225   3.806   4.263  13.447  0.2212 -0.5429 -1.2294
13578TIP3    H262226   3.785   4.186  13.575  2.5030 -0.0336 -0.5265
13579TIP3   OH262227   4.049   3.741  12.659 -0.4967 -0.3675 -0.4981
13579TIP3    H162228   3.973   3.757  12.603 -0.0105 -2.6021 -1.8705
13579TIP3    H262229   4.021   3.769  12.746 -1.3745  2.8640 -1.7603
13580TIP3   OH262230   5.249   5.914   0.755 -0.8195 -0.3820  0.2569
13580TIP3    H162231   5.235   5.828   0.714 -1.4396  0.2468 -0.8454
13580TIP3    H262232   5.169   5.963   0.736 -0.3550  0.5343  0.6726
13581TIP3   OH262233   3.722   3.971   4.089 -0.6192 -0.3533  0.1533
13581TIP3    H162234   3.651   4.019   4.133 -0.7533 -0.6365  0.2477
13581TIP3    H262235   3.711   3.881   4.118 -0.7782 -0.5649 -0.5503
13582TIP3   OH262236   0.143   5.532   3.116  0.0077 -0.1475 -0.2320
13582TIP3    H162237   0.146   5.475   3.039  1.1333 -1.2671  0.6252
13582TIP3    H262238   0.170   5.476   3.189  0.0232  1.1822  0.8108
13583TIP3   OH262239   1.456   5.213  12.090 -0.1851  0.0066  0.0023
13583TIP3    H162240   1.502   5.198  12.007  1.9596  1.5783  0.8527
13583TIP3    H262241   1.461   5.307  12.103  2.1261 -0.5013  3.3653
13584TIP3   OH262242   3.356   1.606  13.628  0.5287  0.6337 -0.0825
13584TIP3    H162243   3.315   1.683  13.667  1.2876  0.1504  1.6736
13584TIP3    H262244   3.349   1.621  13.533 -0.2917  2.3382  0.2331
13585TIP3   OH262245   0.652   5.471   5.205 -0.3870 -0.0644 -0.0831
13585TIP3    H162246   0.664   5.460   5.299  1.6206  1.4983 -0.1223
13585TIP3    H262247   0.557   5.477   5.193 -0.6297  0.2607  1.8976
13586TIP3   OH262248   1.689   5.791   0.807  0.1470 -0.5942 -0.1171
13586TIP3    H162249   1.695   5.837   0.890 -0.2915 -0.0418 -0.3954
13586TIP3    H262250   1.598   5.802   0.779 -0.0646 -1.9440  0.0054
13587TIP3   OH262251   1.223   2.376   5.097 -0.3464  0.4875 -0.3250
13587TIP3    H162252   1.224   2.348   5.189 -0.0500 -0.6313 -0.6668
13587TIP3    H262253   1.214   2.295   5.047 -1.4572  1.1648 -1.2585
13588TIP3   OH262254   3.015   3.685   5.681 -0.1011 -0.3547 -0.0082
13588TIP3    H162255   3.039   3.592   5.681  0.6192 -0.1942 -1.7314
13588TIP3    H262256   3.015   3.710   5.773 -1.1023 -2.2616  0.5428
13589TIP3   OH262257   3.456   6.588  11.452  0.0877  0.0505 -0.0520
13589TIP3    H162258   3.512   6.619  11.523  1.9663 -1.6546 -0.7461
13589TIP3    H262259   3.383   6.545  11.497  0.0546  1.0181  0.8453
13590TIP3   OH262260   2.761   0.179  15.106 -0.4156  1.6595 -0.0442
13590TIP3    H162261   2.757   0.155  15.198 -1.1383  0.0059 -0.4760
13590TIP3    H262262   2.671   0.166  15.074  0.2545  0.1405 -1.4389
13591TIP3   OH262263   4.058   5.537  15.568  0.2097 -0.0802 -0.1143
13591TIP3    H162264   4.107   5.555  15.488 -1.7566 -0.8510 -1.5495
13591TIP3    H262265   4.037   5.444  15.563 -0.4641  0.0029  0.9984
13592TIP3   OH262266   3.926   4.259  17.180 -0.1038  0.1601  0.0785
13592TIP3    H162267   3.879   4.285  17.259  0.2172  0.4692  0.1642
13592TIP3    H262268   4.017   4.251  17.207 -0.1215 -0.5458 -0.0693
13593TIP3   OH262269   6.638   0.894   1.907 -0.1072  0.0840 -0.4176
13593TIP3    H162270   6.677   0.972   1.946  1.0696  0.7156 -2.7409
13593TIP3    H262271   6.712   0.845   1.870 -1.1643 -0.3056 -2.1162
13594TIP3   OH262272   3.118   0.992   4.660  0.2020  0.0677 -0.3017
13594TIP3    H162273   3.050   0.929   4.638 -1.7012  1.8083  0.4523
13594TIP3    H262274   3.197   0.958   4.618 -1.0951 -2.0570 -1.0685
13595TIP3   OH262275   4.000   5.869  12.555  0.4521 -0.4360  0.0716
13595TIP3    H162276   3.959   5.827  12.479 -1.0869  1.2851 -0.0754
13595TIP3    H262277   3.994   5.803  12.624  1.1662 -1.7303 -1.0517
13596TIP3   OH262278   3.133   4.058   2.973  0.4975 -0.1617  0.4692
13596TIP3    H162279   3.187   3.979   2.964 -0.9645 -0.9458 -1.7708
13596TIP3    H262280   3.174   4.121   2.913  0.0598 -0.1329  0.1982
13597TIP3   OH262281   6.375   5.685   1.015 -0.0144 -0.1816 -0.3338
13597TIP3    H162282   6.334   5.646   0.938  0.4340  1.5946 -1.5118
13597TIP3    H262283   6.347   5.630   1.088  0.1530 -2.3128 -1.8542
13598TIP3   OH262284   3.677   1.046  13.068  0.5258 -0.5758 -0.0131
13598TIP3    H162285   3.712   1.032  12.980 -0.0997 -2.7718  0.0677
13598TIP3    H262286   3.592   1.004  13.067 -0.6031  1.6091  0.8911
13599TIP3   OH262287   5.376   2.495   1.679  0.1214  0.0233 -0.2886
13599TIP3    H162288   5.318   2.423   1.702 -0.9430  1.2010  0.8635
13599TIP3    H262289   5.397   2.536   1.763  1.2252  0.6661 -0.8613
13600TIP3   OH262290   2.142   3.880   4.991  0.2030 -0.2553  0.1897
13600TIP3    H162291   2.217   3.857   5.046 -1.2852 -2.3689  1.4599
13600TIP3    H262292   2.128   3.803   4.936 -2.1057 -0.6955  1.2856
13601TIP3   OH262293   1.937   3.176   1.530 -0.2938  0.3765 -0.1234
13601TIP3    H162294   1.996   3.246   1.501 -0.2783  0.5732  0.3737
13601TIP3    H262295   1.856   3.192   1.481 -0.8936  1.8166  1.2805
13602TIP3   OH262296   1.293   5.368  14.543 -0.2535  0.0361  0.3449
13602TIP3    H162297   1.310   5.460  14.565  0.9837 -0.4515  1.5681
13602TIP3    H262298   1.201   5.354  14.566 -0.4495  0.9776  0.1440
13603TIP3   OH262299   3.798   5.388  15.761 -0.3179 -0.0401  0.3570
13603TIP3    H162300   3.714   5.415  15.798 -0.3308 -2.5324  2.2642
13603TIP3    H262301   3.862   5.445  15.803 -0.9533  1.2331 -0.3894
13604TIP3   OH262302   0.123   0.901  16.161 -0.4303 -0.0863 -0.1320
13604TIP3    H162303   0.174   0.866  16.088  1.6051 -0.8774  1.6250
13604TIP3    H262304   0.178   0.969  16.198 -1.4067  0.2441  0.7289
13605TIP3   OH262305   2.802   6.098  11.400  0.1441  0.1164 -0.5963
13605TIP3    H162306   2.865   6.032  11.372  1.0828  0.5145  0.5665
13605TIP3    H262307   2.824   6.176  11.347  0.6624  0.2652 -0.1715
13606TIP3   OH262308   0.974   0.433  12.578 -0.0566 -0.6146 -0.6375
13606TIP3    H162309   0.915   0.412  12.651 -1.0714 -1.3228 -1.6311
13606TIP3    H262310   0.959   0.526  12.561  0.8580 -0.2271  0.6414
13607TIP3   OH262311   3.760   6.144   5.747  0.0262  0.8760 -0.3284
13607TIP3    H162312   3.698   6.072   5.733  0.1040  1.2141 -2.5635
13607TIP3    H262313   3.783   6.173   5.659  0.1209  3.5432  0.5303
13608TIP3   OH262314   4.936   2.448   1.387 -0.2356 -0.5958  0.7917
13608TIP3    H162315   4.882   2.501   1.445 -0.3615  0.2028 -0.0389
13608TIP3    H262316   4.914   2.358   1.410 -0.1836 -0.2910  2.0621
13609TIP3   OH262317   2.153   2.819   3.171 -0.2906 -0.0280  0.2485
13609TIP3    H162318   2.132   2.911   3.151  1.8723  0.2657 -0.8600
13609TIP3    H262319   2.157   2.776   3.085 -0.7390 -1.0485  0.7309
13610TIP3   OH262320   2.067   6.000   1.161  0.2748 -0.3120 -0.1898
13610TIP3    H162321   2.103   6.089   1.166  1.3915 -0.7276 -0.7632
13610TIP3    H262322   2.085   5.962   1.246  0.3282 -0.1922 -0.1472
13611TIP3   OH262323   3.033   2.948   3.167 -0.3979 -0.2270 -0.1064
13611TIP3    H162324   2.961   2.996   3.208  0.6284  0.7900  0.5035
13611TIP3    H262325   3.055   2.879   3.230  0.6363  0.8331  0.7009
13612TIP3   OH262326   6.252   5.222   5.142 -0.4634  0.0869  0.3372
13612TIP3    H162327   6.268   5.158   5.212  1.4737 -0.1512 -0.3193
13612TIP3    H262328   6.224   5.170   5.067 -1.7145  0.2759  0.6528
13613TIP3   OH262329   5.536   5.237   0.058 -0.2926 -0.0705  0.1428
13613TIP3    H162330   5.465   5.202   0.111 -0.2022 -0.2928  0.1184
13613TIP3    H262331   5.571   5.161   0.011 -0.0778  0.0453  0.1125
13614TIP3   OH262332   4.134   3.995   0.730 -0.7645  0.0496  0.9498
13614TIP3    H162333   4.093   3.935   0.792 -1.1371  0.2904  0.9371
13614TIP3    H262334   4.205   4.036   0.780 -2.2119  1.6109  1.7935
13615TIP3   OH262335   2.338   2.392   1.380 -0.1083 -0.4441  0.3159
13615TIP3    H162336   2.299   2.467   1.423  1.0333  1.5322 -1.9541
13615TIP3    H262337   2.404   2.360   1.441 -0.6458  0.3508  1.3161
13616TIP3   OH262338   2.393   4.700   4.244  0.5850  0.1858 -0.8037
13616TIP3    H162339   2.373   4.682   4.335 -1.7517  1.8001 -0.9644
13616TIP3    H262340   2.330   4.648   4.194  1.9350 -0.7955 -1.5182
13617TIP3   OH262341   0.470   4.876  15.755  0.0813  0.0844  0.5008
13617TIP3    H162342   0.526   4.925  15.816  0.4593  0.0960  0.1493
13617TIP3    H262343   0.496   4.908  15.669  0.0887 -0.4958  0.2900
13618TIP3   OH262344   2.787   2.057  11.705  0.3075  0.2082  0.0059
13618TIP3    H162345   2.838   2.081  11.782 -1.8384  1.8091  0.9790
13618TIP3    H262346   2.721   1.996  11.738 -0.3057  0.5027 -0.6396
13619TIP3   OH262347   3.876   4.905  10.698 -0.4772  0.2069  0.3739
13619TIP3    H162348   3.787   4.934  10.682  0.1526  2.2494  0.4204
13619TIP3    H262349   3.884   4.901  10.794 -1.2646 -2.4574  0.3652
13620TIP3   OH262350   1.024   0.060   1.431 -0.0729  0.4904  0.3287
13620TIP3    H162351   0.989  -0.020   1.470 -2.4621 -0.2585 -3.0642
13620TIP3    H262352   1.014   0.127   1.499  0.1378 -1.6537  2.5368
13621TIP3   OH262353   0.735   3.313  15.403 -0.3157 -0.2106  0.4309
13621TIP3    H162354   0.761   3.225  15.376 -1.1334 -0.3887  0.2144
13621TIP3    H262355   0.640   3.314  15.396 -0.1622  1.6522 -2.5248
13622TIP3   OH262356   2.601   0.241  11.794 -0.0283  0.0946  0.1453
13622TIP3    H162357   2.669   0.213  11.732 -1.3246  1.3221 -1.9202
13622TIP3    H262358   2.536   0.171  11.792  0.5510 -0.4666  1.1053
13623TIP3   OH262359   2.948   1.097   1.756 -0.1931  0.5463  0.2518
13623TIP3    H162360   2.957   1.033   1.686 -0.9815  1.3818 -0.6285
13623TIP3    H262361   3.002   1.063   1.828  0.0608 -0.6592 -0.5103
13624TIP3   OH262362   3.674   3.457   0.761  0.4259 -0.1363  0.1969
13624TIP3    H162363   3.726   3.458   0.681 -0.7126  0.7413 -0.5312
13624TIP3    H262364   3.584   3.446   0.732  0.2276 -2.3376  1.4908
13625TIP3   OH262365   0.789   3.181   2.723  0.1068 -0.1825 -0.6983
13625TIP3    H162366   0.882   3.197   2.735  0.2899 -0.9461 -1.0968
13625TIP3    H262367   0.748   3.222   2.800  0.7297  0.4712 -0.7112
13626TIP3   OH262368   2.413   3.304  12.269  0.0742 -0.0612 -0.3473
13626TIP3    H162369   2.445   3.247  12.339 -0.5637  0.9031  0.7428
13626TIP3    H262370   2.325   3.273  12.251 -0.1777  0.4208  0.0649
13627TIP3   OH262371   0.471   3.098   2.996 -0.1614 -0.6822  0.0395
13627TIP3    H162372   0.460   3.068   2.905  0.7580 -2.0835  0.3759
13627TIP3    H262373   0.386   3.080   3.037 -0.7321  0.3770 -0.6407
13628TIP3   OH262374   2.180   2.861  15.681 -0.6318  0.0498  0.0625
13628TIP3    H162375   2.102   2.815  15.653  0.8424 -1.2018 -2.1564
13628TIP3    H262376   2.233   2.870  15.601  2.4779 -1.1651  1.8803
13629TIP3   OH262377   5.184   4.696  15.314 -0.6551 -0.4024 -0.2725
13629TIP3    H162378   5.220   4.772  15.267 -1.1337 -0.2016 -0.3222
13629TIP3    H262379   5.090   4.705  15.303 -0.8000 -0.1059  1.1015
13630TIP3   OH262380   3.413   6.162  15.635  0.3011  0.0264  0.4566
13630TIP3    H162381   3.464   6.082  15.649  1.2220  0.7591  1.4290
13630TIP3    H262382   3.421   6.210  15.717 -2.0965  0.1167  0.6812
13631TIP3   OH262383   3.025   4.510   2.529  0.2962  0.4822  0.0141
13631TIP3    H162384   3.055   4.600   2.530  1.0637  0.2227  1.0900
13631TIP3    H262385   2.930   4.516   2.524  0.4130  1.3301 -1.3617
13632TIP3   OH262386   2.570   5.009   0.899  0.0588  0.0021  0.3996
13632TIP3    H162387   2.517   5.041   0.973 -0.3513 -1.5369  0.7891
13632TIP3    H262388   2.508   4.963   0.843  0.4351  0.8679 -0.7491
13633TIP3   OH262389   6.765   1.823  11.818  0.3159 -0.5399  0.1037
13633TIP3    H162390   6.717   1.741  11.805  0.9095 -0.9858  0.6930
13633TIP3    H262391   6.848   1.810  11.771 -0.2487  0.3507 -1.1867
13634TIP3   OH262392   3.797   1.749  15.913  0.4029  0.4833 -0.8932
13634TIP3    H162393   3.701   1.744  15.907  0.5254 -0.2619 -2.4563
13634TIP3    H262394   3.821   1.816  15.849  0.8925  1.0398 -0.1248
13635TIP3   OH262395   5.642   1.174   1.089  0.6402 -0.3686 -0.8002
13635TIP3    H162396   5.717   1.227   1.062 -0.8182  1.2208 -1.7625
13635TIP3    H262397   5.618   1.209   1.175  0.3045 -0.1144 -0.9946
13636TIP3   OH262398   0.150   0.952  13.032 -0.0248  0.7301  0.0353
13636TIP3    H162399   0.067   0.919  13.067 -0.1438  0.0786 -0.8463
13636TIP3    H262400   0.170   1.028  13.087 -1.0462  0.7100  0.4569
13637TIP3   OH262401   3.008   3.640  11.717  0.2791  0.2346  0.5348
13637TIP3    H162402   3.051   3.630  11.632 -1.0086  0.2422 -0.1291
13637TIP3    H262403   2.968   3.555  11.734  2.8401 -0.6341  2.4507
13638TIP3   OH262404   1.202   0.163  15.285  0.1638 -0.2683 -0.3862
13638TIP3    H162405   1.198   0.119  15.200 -0.9419 -1.1801  0.1117
13638TIP3    H262406   1.190   0.093  15.349  1.0957  0.3909  0.5340
13639TIP3   OH262407   2.926   6.194  17.136  0.1844  0.6311  0.1984
13639TIP3    H162408   2.984   6.150  17.198 -2.3386 -3.1670  0.0087
13639TIP3    H262409   2.860   6.128  17.113 -0.3479  2.6592 -4.7405
13640TIP3   OH262410   2.921   5.712  11.844 -0.3780 -0.4116 -0.0100
13640TIP3    H162411   2.911   5.726  11.938 -0.7845 -1.1526  0.0609
13640TIP3    H262412   2.928   5.800  11.807  1.4377 -0.1533  0.8821
13641TIP3   OH262413   3.520   1.262  16.489  0.2434 -0.0904 -0.7376
13641TIP3    H162414   3.518   1.260  16.585 -0.4331 -0.4093 -0.7527
13641TIP3    H262415   3.429   1.247  16.464  0.4652 -0.2591 -1.4385
13642TIP3   OH262416   3.229   2.466   1.446  0.1912  0.5993  0.3983
13642TIP3    H162417   3.249   2.373   1.449  1.5552  0.8893  0.8574
13642TIP3    H262418   3.259   2.495   1.360  2.5791  1.2026  1.4057
13643TIP3   OH262419   1.517   6.148   0.747  0.0784  0.5049 -0.4474
13643TIP3    H162420   1.586   6.203   0.709 -0.4920  0.5986 -1.3501
13643TIP3    H262421   1.512   6.072   0.688  0.9997 -0.6222  0.8955
13644TIP3   OH262422   3.950   5.639   2.689  0.0871 -0.5726 -0.3701
13644TIP3    H162423   4.013   5.664   2.621  1.1060 -0.5211  0.5912
13644TIP3    H262424   3.936   5.718   2.740 -1.5774 -0.3000 -1.1989
13645TIP3   OH262425   2.461   0.097  11.065  0.1566 -0.1485  1.1780
13645TIP3    H162426   2.419   0.138  11.141 -0.2937  0.6006  0.5269
13645TIP3    H262427   2.491   0.171  11.012  1.2633 -0.6736  1.0632
13646TIP3   OH262428   3.050   1.587   1.919 -0.1699  0.1658  0.5372
13646TIP3    H162429   3.061   1.524   1.847  0.0811 -0.0265  0.7424
13646TIP3    H262430   3.139   1.601   1.952 -0.0104  1.8394 -0.5338
13647TIP3   OH262431   2.138   3.239  16.088 -0.1998  0.4216 -0.1064
13647TIP3    H162432   2.131   3.189  16.006 -1.6586  2.2632 -1.1545
13647TIP3    H262433   2.197   3.311  16.067  0.1736  0.3576  0.7392
13648TIP3   OH262434   3.518   4.886   5.627 -0.1428 -0.2807  0.1865
13648TIP3    H162435   3.454   4.957   5.618 -1.0139 -0.8746  1.4331
13648TIP3    H262436   3.523   4.847   5.540  0.4591  1.3970 -0.5426
13649TIP3   OH262437   5.328   3.195  12.816 -0.1363  0.1536  0.2040
13649TIP3    H162438   5.268   3.121  12.806  0.3100  0.2122 -3.1566
13649TIP3    H262439   5.271   3.272  12.808 -0.1218  0.2103  0.6096
13650TIP3   OH262440   6.305   4.834  13.712 -0.0092  0.0546  0.1943
13650TIP3    H162441   6.378   4.878  13.669 -0.4669 -0.3235 -0.9997
13650TIP3    H262442   6.344   4.794  13.790  1.4398 -1.5594 -1.2980
13651TIP3   OH262443   3.712   0.257  11.488  0.4586 -0.0471  0.7680
13651TIP3    H162444   3.656   0.228  11.560  1.2986 -0.7431  1.1586
13651TIP3    H262445   3.651   0.286  11.420 -0.3703 -1.0004  1.0940
13652TIP3   OH262446   3.602   0.940  16.613 -0.1276 -0.6444 -0.1415
13652TIP3    H162447   3.662   1.014  16.617  0.7564 -1.3097 -0.8810
13652TIP3    H262448   3.558   0.941  16.697  0.9872 -0.1920  0.4513
13653TIP3   OH262449   6.123   1.362   4.883 -0.5889 -0.8115  0.2102
13653TIP3    H162450   6.065   1.288   4.868  0.8357 -1.9092  0.0299
13653TIP3    H262451   6.206   1.336   4.843 -0.5630  1.5761 -1.3641
13654TIP3   OH262452   5.594   0.668  14.793 -0.3393  0.5019 -0.6431
13654TIP3    H162453   5.574   0.762  14.793  1.0973  0.8269  0.7633
13654TIP3    H262454   5.681   0.662  14.755 -0.4075 -0.2673 -0.6904
13655TIP3   OH262455   1.510   3.584  16.743  0.0593  0.0705  0.3133
13655TIP3    H162456   1.546   3.497  16.724  0.5784  0.4757 -0.6062
13655TIP3    H262457   1.571   3.621  16.808  1.0026  0.5259 -0.8041
13656TIP3   OH262458   3.169   3.199  13.377 -0.0011  0.3100 -0.3005
13656TIP3    H162459   3.251   3.205  13.329 -1.1034  1.7022 -2.0768
13656TIP3    H262460   3.104   3.239  13.319 -2.3067 -2.5049  0.2324
13657TIP3   OH262461   4.029   2.599   2.771 -0.0024  0.9581  0.4588
13657TIP3    H162462   4.107   2.597   2.715 -0.4697  0.3171 -0.1782
13657TIP3    H262463   4.013   2.692   2.784 -0.1403  1.1343 -0.8484
13658TIP3   OH262464   1.780   3.588  12.530 -0.1253  0.2000  0.4428
13658TIP3    H162465   1.793   3.630  12.615  1.4219 -0.7259  0.6925
13658TIP3    H262466   1.790   3.494  12.548 -2.6377 -0.2187 -0.2582
13659TIP3   OH262467   6.801   3.602  11.341  0.6518 -0.0124  0.2699
13659TIP3    H162468   6.864   3.610  11.269 -0.5150  0.4945 -0.7165
13659TIP3    H262469   6.806   3.510  11.367 -0.0470 -0.5744 -1.5226
13660TIP3   OH262470   3.392   5.968  16.966  0.1413  0.6604  0.2606
13660TIP3    H162471   3.312   6.019  16.949  0.6513  1.7494  1.0649
13660TIP3    H262472   3.359   5.884  16.997 -0.7130  0.4985 -1.0387
13661TIP3   OH262473   0.933   5.712   5.847  0.2288 -0.4181  0.1378
13661TIP3    H162474   0.913   5.805   5.846  1.1138 -0.2270 -1.5874
13661TIP3    H262475   0.971   5.696   5.934 -0.6201  0.6592  0.7120
13662TIP3   OH262476   5.869   4.911   3.325 -0.0353  0.4057 -0.2725
13662TIP3    H162477   5.951   4.919   3.277 -0.7357  0.7345 -1.4266
13662TIP3    H262478   5.855   4.817   3.333  0.2628  0.3516 -0.3784
13663TIP3   OH262479   5.603   2.976   2.141 -0.6678  0.3467 -0.2147
13663TIP3    H162480   5.509   2.990   2.131 -0.5850  1.3782  0.4506
13663TIP3    H262481   5.643   3.040   2.081 -0.3597  0.9872  0.6702
13664TIP3   OH262482   1.240   3.747  17.260 -0.7995  0.3013 -0.1080
13664TIP3    H162483   1.241   3.682  17.330  0.0532  1.6479  1.1557
13664TIP3    H262484   1.262   3.698  17.181  0.7610 -0.7680  0.9728
13665TIP3   OH262485   4.479   5.169   0.391 -0.2427 -0.5929 -0.4454
13665TIP3    H162486   4.448   5.091   0.346  0.2400 -0.7841 -0.4561
13665TIP3    H262487   4.574   5.169   0.376 -0.0694 -0.6803  0.6016
13666TIP3   OH262488   4.090   3.150  12.231 -0.2487  0.1975  0.1729
13666TIP3    H162489   4.141   3.229  12.216 -0.7874  0.3146 -1.1733
13666TIP3    H262490   4.097   3.101  12.148 -1.3027 -0.3506  0.3919
13667TIP3   OH262491   2.627   4.241   3.159 -0.3373  0.1456 -0.0100
13667TIP3    H162492   2.663   4.329   3.157  2.0234 -0.7788 -1.2172
13667TIP3    H262493   2.537   4.250   3.129  0.2626  1.9740 -1.2996
13668TIP3   OH262494   4.917   1.792   5.056 -0.0905  0.0887 -0.2867
13668TIP3    H162495   4.850   1.840   5.104  0.6233 -0.5601  1.4015
13668TIP3    H262496   4.998   1.808   5.106  0.1868 -2.7077  0.2351
13669TIP3   OH262497   2.474   5.156   4.766 -0.3086 -0.3858  0.3848
13669TIP3    H162498   2.439   5.191   4.684  0.8787  1.9199  0.8292
13669TIP3    H262499   2.514   5.072   4.742  1.6198  1.0964 -1.7453
13670TIP3   OH262500   2.231   0.829   4.475  0.2258  0.2503 -0.0847
13670TIP3    H162501   2.322   0.848   4.454  0.0725  0.0029 -0.9724
13670TIP3    H262502   2.233   0.798   4.566  0.9785  0.5707  0.0101
13671TIP3   OH262503   6.212   6.025   3.488 -0.2300 -0.5316  0.5624
13671TIP3    H162504   6.197   6.055   3.398  0.5972 -0.4571  0.4420
13671TIP3    H262505   6.243   5.934   3.477 -0.1681 -0.5352  0.7694
13672TIP3   OH262506   5.698   0.437  16.979  0.5341  0.2850 -0.1398
13672TIP3    H162507   5.626   0.455  16.919  0.2117 -1.3459 -0.2409
13672TIP3    H262508   5.659   0.444  17.066  0.4452  0.2389 -0.1767
13673TIP3   OH262509   4.430   0.498   2.917  0.9487 -0.3100 -0.1770
13673TIP3    H162510   4.503   0.468   2.864  0.8876 -1.1448  0.1978
13673TIP3    H262511   4.371   0.541   2.855  1.3736 -0.3477 -0.6099
13674TIP3   OH262512   6.373   3.266  11.908 -0.2942  0.0825 -0.4462
13674TIP3    H162513   6.406   3.255  11.998 -0.2284  0.2009 -0.4555
13674TIP3    H262514   6.398   3.185  11.864 -0.3129  0.0301 -0.3598
13675TIP3   OH262515   6.156   3.054   0.438 -0.2558 -0.3735 -0.3898
13675TIP3    H162516   6.081   3.029   0.492 -0.7786  2.4660  0.3119
13675TIP3    H262517   6.230   3.057   0.500 -0.2263 -0.1186 -0.4353
13676TIP3   OH262518   1.885   0.247   4.882 -0.1169 -0.3263 -0.4403
13676TIP3    H162519   1.805   0.271   4.835 -0.0622  0.0672 -0.3341
13676TIP3    H262520   1.942   0.324   4.873  0.1447 -0.5015 -0.2846
13677TIP3   OH262521   2.065   2.582  17.164 -0.0835 -0.1786 -0.4024
13677TIP3    H162522   2.107   2.598  17.248  0.1154 -0.4738 -0.4444
13677TIP3    H262523   2.031   2.667  17.137 -0.0366 -0.0587 -0.0829
13678TIP3   OH262524   1.959   2.724  11.447  0.3248  0.2408 -0.7613
13678TIP3    H162525   1.867   2.737  11.424 -0.1284 -1.7033 -0.1711
13678TIP3    H262526   1.975   2.785  11.519 -1.4271 -1.5748  1.2603
13679TIP3   OH262527   2.728   4.266   4.707 -0.0968 -0.0876  0.2309
13679TIP3    H162528   2.807   4.266   4.653  0.0851  0.4859  0.4871
13679TIP3    H262529   2.704   4.359   4.714 -0.9909 -0.2845 -0.1320
13680TIP3   OH262530   2.994   3.430   3.351  0.2077 -0.2453 -0.6517
13680TIP3    H162531   2.948   3.396   3.275  0.3254 -1.9100 -0.0006
13680TIP3    H262532   3.055   3.361   3.375  1.0182  0.7519  0.2427
13681TIP3   OH262533   5.491   4.270   4.828 -0.4323  0.0985 -0.2827
13681TIP3    H162534   5.586   4.285   4.830 -0.2887 -0.0661 -3.0947
13681TIP3    H262535   5.480   4.180   4.859  0.3529  0.0071 -0.2457
13682TIP3   OH262536   2.939   1.374   3.994 -0.1481  0.1933 -0.4461
13682TIP3    H162537   2.942   1.297   3.937 -0.2030  1.0277 -1.5792
13682TIP3    H262538   2.854   1.413   3.978 -0.2414  0.3253  0.3574
13683TIP3   OH262539   0.773   3.151   0.715 -0.3003  0.4226 -0.1787
13683TIP3    H162540   0.804   3.241   0.704  0.7316 -0.0367 -1.1663
13683TIP3    H262541   0.696   3.146   0.659  0.2134  0.4197 -0.8957
13684TIP3   OH262542   1.827   3.001  13.472  0.1766  0.7466  0.5817
13684TIP3    H162543   1.849   3.057  13.398  2.9654 -1.1556 -0.0930
13684TIP3    H262544   1.770   2.934  13.435  3.6162 -1.7041 -0.5143
13685TIP3   OH262545   5.728   4.965   3.000  0.1205 -0.3206 -0.1681
13685TIP3    H162546   5.729   4.879   3.041  0.4061 -0.6080 -0.7726
13685TIP3    H262547   5.661   5.014   3.049  0.5436 -0.6136  0.7121
13686TIP3   OH262548   3.902   3.796  13.751 -0.5226 -0.1509 -0.5943
13686TIP3    H162549   3.928   3.855  13.680  1.6101 -0.9713 -0.5396
13686TIP3    H262550   3.906   3.851  13.830  0.8094 -0.1783 -0.6298
13687TIP3   OH262551   1.393   3.463   5.605  0.5526  0.7210  0.6645
13687TIP3    H162552   1.435   3.447   5.521  1.0499 -0.9942  1.2335
13687TIP3    H262553   1.300   3.450   5.588  0.4810  2.0555 -0.0096
13688TIP3   OH262554   2.590   1.116   0.520  0.0267  0.6705 -0.4928
13688TIP3    H162555   2.658   1.119   0.587 -0.4623 -0.1326  0.0495
13688TIP3    H262556   2.635   1.140   0.439  1.3788 -1.6811 -0.4674
13689TIP3   OH262557   4.523   3.661   2.988 -0.2715  0.1088  0.0222
13689TIP3    H162558   4.585   3.681   2.918 -0.7948 -0.6278 -0.6810
13689TIP3    H262559   4.488   3.575   2.964 -0.1392 -0.3532  1.4321
13690TIP3   OH262560   6.753   4.621  12.336  0.6794  0.0436  0.6434
13690TIP3    H162561   6.728   4.709  12.365 -0.2975  0.0002 -0.0428
13690TIP3    H262562   6.848   4.623  12.332  0.7187  0.6855  1.8501
13691TIP3   OH262563   0.227   0.509  11.044 -0.3407 -0.0258 -0.0418
13691TIP3    H162564   0.238   0.602  11.024 -0.6902 -0.2423 -1.2291
13691TIP3    H262565   0.267   0.499  11.131  1.6485  0.7853 -0.8510
13692TIP3   OH262566   2.877   4.210  11.968 -0.2424  0.0220 -0.1234
13692TIP3    H162567   2.964   4.174  11.981  0.0482  1.5006  2.4225
13692TIP3    H262568   2.818   4.143  12.003  0.0285 -0.0195  0.2637
13693TIP3   OH262569   0.118   6.591   1.392 -0.4820 -0.1587  0.2942
13693TIP3    H162570   0.045   6.536   1.417 -0.6975 -0.6318 -1.2885
13693TIP3    H262571   0.086   6.640   1.316 -0.4265  2.4253  1.8596
13694TIP3   OH262572   3.877   4.310  11.677  0.2779  0.4549  0.1533
13694TIP3    H162573   3.826   4.233  11.700  2.3194 -0.8264  0.5150
13694TIP3    H262574   3.965   4.292  11.710  0.8670  2.8295  0.0238
13695TIP3   OH262575   2.727   3.970  14.472 -0.6985 -0.2422  0.1914
13695TIP3    H162576   2.765   3.900  14.525  0.4048 -0.5000 -0.9281
13695TIP3    H262577   2.725   4.046  14.531 -1.1142 -0.9915  1.1433
13696TIP3   OH262578   1.512   5.868   4.594 -0.1935 -0.3829 -0.1785
13696TIP3    H162579   1.590   5.827   4.555  0.8121  0.0506  1.3217
13696TIP3    H262580   1.461   5.898   4.519  0.6943 -1.3920 -1.2100
13697TIP3   OH262581   2.279   2.837   5.686  0.4773  0.0661  0.2796
13697TIP3    H162582   2.259   2.749   5.656 -1.4866  0.3167  0.7622
13697TIP3    H262583   2.331   2.825   5.765  1.2800 -0.6324 -0.3486
13698TIP3   OH262584   2.996   1.266  16.273 -0.1607  0.2041 -0.1643
13698TIP3    H162585   3.017   1.250  16.181  0.1817 -1.8860  0.2299
13698TIP3    H262586   2.939   1.342  16.272 -0.9358 -0.3593 -2.2008
13699TIP3   OH262587   4.906   1.807   4.605 -0.4211 -0.2731 -0.0648
13699TIP3    H162588   4.853   1.821   4.527  0.3297  1.1960 -0.3425
13699TIP3    H262589   4.995   1.830   4.578 -0.2267  0.6862  1.3165
13700TIP3   OH262590   5.118   0.016  10.234 -0.3457  0.3410 -0.7583
13700TIP3    H162591   5.035  -0.010  10.273  0.0622  1.4070  0.8906
13700TIP3    H262592   5.179  -0.054  10.259 -0.1366  0.9116  0.3837
13701TIP3   OH262593   1.759   2.938  11.821 -0.5381  0.2247 -0.2973
13701TIP3    H162594   1.796   2.975  11.901 -0.6607  0.5815 -0.4036
13701TIP3    H262595   1.721   3.013  11.775  0.2793  0.1692 -1.0882
13702TIP3   OH262596   0.565   6.345  13.659  0.1526  0.0576 -0.0550
13702TIP3    H162597   0.576   6.286  13.734  2.6591 -0.2704 -0.6492
13702TIP3    H262598   0.481   6.320  13.621 -0.6491 -0.4920  2.0015
13703TIP3   OH262599   5.818   4.534  17.139 -0.2762  0.7959 -0.4556
13703TIP3    H162600   5.838   4.560  17.229 -1.7002 -0.8712  0.3802
13703TIP3    H262601   5.903   4.534  17.095  0.3776  2.1167  0.7548
13704TIP3   OH262602   1.819   6.262   2.160 -0.6480  0.6613  0.3437
13704TIP3    H162603   1.860   6.226   2.081  1.3116 -0.3747  1.7944
13704TIP3    H262604   1.759   6.194   2.189 -0.4623  0.5350  0.4327
13705TIP3   OH262605   5.557   1.876   3.519 -0.0774  0.1259  1.3112
13705TIP3    H162606   5.466   1.860   3.495 -0.1791  0.2860  1.5851
13705TIP3    H262607   5.578   1.960   3.477 -0.4243  0.6777  2.2130
13706TIP3   OH262608   3.399   5.271  13.103 -0.1847  0.4167 -0.2949
13706TIP3    H162609   3.324   5.256  13.160  1.7289 -0.7675  2.0044
13706TIP3    H262610   3.432   5.357  13.127  2.2083 -1.1500  2.3934
13707TIP3   OH262611   6.693   5.327  15.378 -0.5136  0.3431 -0.2068
13707TIP3    H162612   6.634   5.255  15.399 -0.8149  0.2371 -1.3992
13707TIP3    H262613   6.696   5.330  15.283  1.4849  0.2942 -0.1745
13708TIP3   OH262614   2.884   0.099  14.522  0.3183 -0.4191 -0.3656
13708TIP3    H162615   2.823   0.059  14.460 -1.1675  0.8943  0.2099
13708TIP3    H262616   2.861   0.061  14.607 -1.1000  1.5887  0.1833
13709TIP3   OH262617   0.276   3.910  12.440 -0.9675 -0.3124 -0.5366
13709TIP3    H162618   0.329   3.878  12.367  0.7959 -0.9246  0.9861
13709TIP3    H262619   0.338   3.949  12.501 -2.6842  2.5587 -0.5230
13710TIP3   OH262620   0.191   5.075  15.434  0.3847 -0.1941 -0.0343
13710TIP3    H162621   0.285   5.060  15.432  0.3650 -0.2632 -0.5663
13710TIP3    H262622   0.179   5.158  15.388  0.1570 -0.3456 -0.2488
13711TIP3   OH262623   5.134   3.393  11.892  0.0947 -0.3802  0.1469
13711TIP3    H162624   5.097   3.481  11.901  1.6659  0.2559  0.7105
13711TIP3    H262625   5.059   3.334  11.898 -1.3000  1.0082 -2.6728
13712TIP3   OH262626   3.729   1.783   6.084 -0.6822  0.2913  0.3636
13712TIP3    H162627   3.684   1.698   6.091 -0.0436  0.0768  2.1039
13712TIP3    H262628   3.675   1.833   6.023 -2.8117 -0.2868  1.7015
13713TIP3   OH262629   1.252   1.797   3.296  0.2006 -0.1175 -0.0576
13713TIP3    H162630   1.276   1.824   3.207 -0.2800  4.0897  0.9652
13713TIP3    H262631   1.157   1.808   3.299  0.3469  0.9570  1.2950
13714TIP3   OH262632   6.385   0.813   2.638 -0.6319 -0.3717  0.3618
13714TIP3    H162633   6.343   0.882   2.690  1.2136 -0.4185  1.9526
13714TIP3    H262634   6.458   0.783   2.692  0.5683 -1.3106 -1.7105
13715TIP3   OH262635   3.175   5.700   5.699  0.4092  0.7452 -0.3375
13715TIP3    H162636   3.197   5.783   5.743 -0.3561  0.5081  0.5068
13715TIP3    H262637   3.084   5.684   5.722  0.9969 -1.1210  0.7935
13716TIP3   OH262638   2.064   4.349  12.953 -0.5314  0.0650 -0.3001
13716TIP3    H162639   2.015   4.379  12.877  0.3694  0.3769 -0.7694
13716TIP3    H262640   2.062   4.254  12.948 -1.6163  0.0695  0.0309
13717TIP3   OH262641   6.501   6.260   1.391  0.1080  0.1767 -0.7344
13717TIP3    H162642   6.410   6.232   1.404 -0.0232 -0.0539 -2.0843
13717TIP3    H262643   6.537   6.197   1.329  1.1089  0.4446 -0.4345
13718TIP3   OH262644   5.243   6.489   1.259 -0.2658  0.0792  0.0910
13718TIP3    H162645   5.286   6.450   1.182 -1.1686  0.0384 -0.4026
13718TIP3    H262646   5.266   6.582   1.255  0.4711 -0.0905  0.3037
13719TIP3   OH262647   4.596   6.818   1.969 -0.9575  0.3124  0.4034
13719TIP3    H162648   4.672   6.824   2.026 -1.5739  1.5476  1.1134
13719TIP3    H262649   4.633   6.816   1.880 -0.0469 -0.6100  0.7956
13720TIP3   OH262650   3.582   4.101   5.571 -0.1707  0.1445  0.1536
13720TIP3    H162651   3.676   4.118   5.577 -0.3681  0.5329  3.3324
13720TIP3    H262652   3.547   4.175   5.522  1.1703  0.0949 -0.8859
13721TIP3   OH262653   5.505   0.855  13.013 -0.0847 -0.1079 -0.3069
13721TIP3    H162654   5.464   0.937  13.041  0.2005 -0.1635  0.2895
13721TIP3    H262655   5.454   0.787  13.055  1.1983 -0.1450  1.2565
13722TIP3   OH262656   2.038   4.053   0.436  0.5509 -0.2964 -0.1376
13722TIP3    H162657   2.073   3.996   0.368  1.9308 -0.8219  0.9977
13722TIP3    H262658   2.115   4.098   0.471 -0.1486 -0.0260  1.0723
13723TIP3   OH262659   5.763   0.300   4.983 -0.3837 -0.0212  0.0977
13723TIP3    H162660   5.754   0.391   4.956  1.1815  1.0346  2.9329
13723TIP3    H262661   5.674   0.271   5.000 -0.8971  0.9346 -0.8748
13724TIP3   OH262662   0.862   2.096  10.555 -0.0350  0.3095 -0.4311
13724TIP3    H162663   0.836   2.155  10.625 -1.8355 -1.7578  0.7021
13724TIP3    H262664   0.870   2.011  10.597  2.5766 -0.2941 -2.0216
13725TIP3   OH262665   1.570   0.644  13.870 -0.0457  0.1982  0.0402
13725TIP3    H162666   1.486   0.598  13.872 -0.6177  1.2591  0.7182
13725TIP3    H262667   1.569   0.691  13.787  0.3679 -0.6912 -0.4727
13726TIP3   OH262668   6.643   5.421   2.364 -0.1265 -0.1739 -0.3193
13726TIP3    H162669   6.661   5.511   2.391 -0.5592 -0.6604  1.6714
13726TIP3    H262670   6.585   5.430   2.289 -1.4732  1.2187  0.8372
13727TIP3   OH262671   6.676   6.766   0.912  0.0048 -0.3494 -0.4704
13727TIP3    H162672   6.695   6.761   0.818  1.7358 -0.5049 -0.1316
13727TIP3    H262673   6.628   6.686   0.931  0.2327 -0.6403 -1.0986
13728TIP3   OH262674   3.556   6.741   1.004  0.7233  0.7129  0.1970
13728TIP3    H162675   3.591   6.736   1.093  0.9845 -0.0387  0.0530
13728TIP3    H262676   3.620   6.792   0.955  2.1377 -1.4998 -0.3105
13729TIP3   OH262677   4.466   2.880  14.342 -0.6967 -0.1400 -0.4056
13729TIP3    H162678   4.506   2.795  14.359 -2.1471 -0.7113  0.1756
13729TIP3    H262679   4.497   2.903  14.255 -0.5381 -1.3978 -0.6972
13730TIP3   OH262680   0.712   6.371  12.414  0.2655 -0.1302  0.8490
13730TIP3    H162681   0.679   6.434  12.478  0.4796  0.5248  0.3224
13730TIP3    H262682   0.734   6.294  12.466  0.3744  0.3674  1.5627
13731TIP3   OH262683   3.381   0.206  14.927 -0.2960 -0.6526  0.3321
13731TIP3    H162684   3.343   0.228  14.842  0.1344 -0.9798  0.0540
13731TIP3    H262685   3.309   0.164  14.975 -0.6004 -0.2760  0.2085
13732TIP3   OH262686   3.536   3.464   3.878 -0.1997  0.3025  0.1442
13732TIP3    H162687   3.547   3.558   3.865  1.6835  0.0078 -0.5015
13732TIP3    H262688   3.459   3.441   3.826 -0.1386  1.3358 -0.4079
13733TIP3   OH262689   2.115   0.659  15.142 -0.1876 -0.2590 -0.2039
13733TIP3    H162690   2.033   0.708  15.155 -0.5945 -0.3422 -2.2312
13733TIP3    H262691   2.165   0.674  15.222 -1.3092  1.5391  0.1915
13734TIP3   OH262692   5.320   6.535  12.472 -0.4966 -0.2419 -0.9111
13734TIP3    H162693   5.353   6.527  12.562 -2.6111  2.9397  0.2375
13734TIP3    H262694   5.382   6.593  12.429 -0.7209  0.0762 -0.8094
13735TIP3   OH262695   3.475   2.354   5.468 -0.3276 -0.4081 -0.1553
13735TIP3    H162696   3.410   2.402   5.417  1.6100  0.8598 -1.5156
13735TIP3    H262697   3.471   2.393   5.555  0.7609  1.8010 -1.0718
13736TIP3   OH262698   1.979   4.398   2.228  0.0915 -0.0956  0.0940
13736TIP3    H162699   1.890   4.431   2.217  0.1109 -0.3163 -0.6935
13736TIP3    H262700   2.031   4.475   2.250  0.1240  0.3869 -1.6672
13737TIP3   OH262701   5.433   5.066   1.613 -0.4400  0.4575 -0.4903
13737TIP3    H162702   5.371   5.012   1.563  0.9840 -0.7213 -1.0238
13737TIP3    H262703   5.499   5.092   1.548 -0.0377  1.1700  0.2028
13738TIP3   OH262704   4.838   3.874   3.649  0.8627 -0.3960  0.1112
13738TIP3    H162705   4.749   3.850   3.623  0.7029 -0.8996  1.0944
13738TIP3    H262706   4.874   3.794   3.687  0.8621  0.5043  2.0377
13739TIP3   OH262707   0.311   4.939   4.128  0.3965  0.3944 -0.3314
13739TIP3    H162708   0.287   4.988   4.207 -0.9248 -1.2866  0.3370
13739TIP3    H262709   0.227   4.916   4.087  1.0445  0.4748 -1.7629
13740TIP3   OH262710   3.021   4.449  11.953  0.0888  0.2028 -0.4324
13740TIP3    H162711   2.976   4.385  11.898 -1.1763  0.2710  0.4804
13740TIP3    H262712   3.083   4.397  12.004 -1.6650 -0.5136  1.0716
13741TIP3   OH262713   2.673   5.707   2.263  0.1560 -0.2754  0.3753
13741TIP3    H162714   2.718   5.627   2.235 -0.4938 -0.6647  0.4498
13741TIP3    H262715   2.580   5.686   2.256 -0.1082  1.5806 -3.0022
13742TIP3   OH262716   5.596   0.484  12.253 -0.2555 -0.0201 -0.4041
13742TIP3    H162717   5.641   0.432  12.319 -0.2397 -0.4905 -0.7847
13742TIP3    H262718   5.658   0.552  12.229 -1.3493  1.9618  2.2200
13743TIP3   OH262719   2.523   2.651   0.561 -0.4460  0.3182  0.2356
13743TIP3    H162720   2.483   2.737   0.551 -0.5839  0.3035  0.6379
13743TIP3    H262721   2.600   2.667   0.617 -0.4550  0.1839  0.2862
13744TIP3   OH262722   3.962   5.832   3.032 -0.4463  0.0789 -0.3410
13744TIP3    H162723   3.979   5.756   3.087  0.0869  0.4637  0.0365
13744TIP3    H262724   3.967   5.907   3.092  1.9235  0.6644 -1.2062
13745TIP3   OH262725   2.178   6.585   4.279 -0.1820 -0.4654  0.1408
13745TIP3    H162726   2.163   6.623   4.192 -1.6178 -0.4838  0.3576
13745TIP3    H262727   2.178   6.490   4.264 -1.7789 -0.5099  0.3415
13746TIP3   OH262728   3.780   5.582   5.317  0.4266 -0.0624 -0.3197
13746TIP3    H162729   3.763   5.500   5.270 -0.4484 -0.7401  1.1710
13746TIP3    H262730   3.710   5.641   5.288  2.0253  0.7754 -2.7211
13747TIP3   OH262731   5.897   2.391  15.737  0.0354 -0.2966 -0.3787
13747TIP3    H162732   5.900   2.412  15.644 -0.3547 -0.9459 -0.5417
13747TIP3    H262733   5.834   2.319  15.743  0.1296 -0.3178  0.3750
13748TIP3   OH262734   1.168   4.153   6.143 -0.1145 -0.1114 -0.4934
13748TIP3    H162735   1.110   4.079   6.128  0.2456 -0.4946 -0.0294
13748TIP3    H262736   1.251   4.126   6.104  0.1413 -0.1368  0.0629
13749TIP3   OH262737   6.443   2.044  14.006  0.4193  0.0770  0.0551
13749TIP3    H162738   6.380   2.079  14.070  0.7564  0.8452 -0.0267
13749TIP3    H262739   6.522   2.026  14.058  0.1075 -0.9699  0.1735
13750TIP3   OH262740   0.034   0.365  13.264 -0.6196  0.5983  0.2198
13750TIP3    H162741   0.087   0.334  13.338  0.0407 -0.1707 -0.5650
13750TIP3    H262742   0.058   0.457  13.256 -0.5329  0.6344  0.8247
13751TIP3   OH262743   0.785   2.265   3.380  0.2210  0.0841  0.3542
13751TIP3    H162744   0.710   2.207   3.367  0.6596 -0.2101 -0.9600
13751TIP3    H262745   0.823   2.237   3.463  0.5947 -1.7272 -0.3977
13752TIP3   OH262746   1.843   5.646   2.822 -0.0268 -0.1078  0.0980
13752TIP3    H162747   1.926   5.658   2.777  0.8315 -1.2084  1.3517
13752TIP3    H262748   1.811   5.561   2.791  1.2379 -1.5237  2.5328
13753TIP3   OH262749   3.809   3.470   2.861 -0.3249  0.2518 -0.0775
13753TIP3    H162750   3.865   3.542   2.833  0.0453  0.1352  0.3563
13753TIP3    H262751   3.857   3.428   2.932 -0.7531 -0.1328 -0.0091
13754TIP3   OH262752   0.402   0.416  13.022  0.5493  0.6197  0.1878
13754TIP3    H162753   0.335   0.349  13.037  1.1310 -0.4797 -1.8887
13754TIP3    H262754   0.354   0.490  12.987  0.3080  0.1562 -0.4670
13755TIP3   OH262755   2.941   1.614   0.837  0.1298 -0.1412 -0.3073
13755TIP3    H162756   3.026   1.572   0.821 -0.0461 -0.5469 -0.1761
13755TIP3    H262757   2.961   1.685   0.897  0.4599  0.0798 -0.6772
13756TIP3   OH262758   1.309   6.717  14.033 -0.4177 -0.2115  0.0907
13756TIP3    H162759   1.297   6.635  14.080  3.6971  0.4566  2.5290
13756TIP3    H262760   1.397   6.710  13.994 -1.8256  1.2073 -3.5767
13757TIP3   OH262761   2.769   2.212   5.288 -0.5300  0.1641  0.4198
13757TIP3    H162762   2.801   2.242   5.203  1.0324  0.8031  1.2051
13757TIP3    H262763   2.756   2.292   5.338 -0.6711 -0.2486  1.0425
13758TIP3   OH262764   2.545   0.514   5.636 -0.7375 -0.6614  0.2134
13758TIP3    H162765   2.582   0.497   5.722  0.7058  0.1703 -0.2231
13758TIP3    H262766   2.457   0.477   5.639 -0.8356 -0.2793  2.1700
13759TIP3   OH262767   6.005   2.486  10.917  0.4307  1.1083 -0.0887
13759TIP3    H162768   5.963   2.531  10.844 -1.1552  1.0649  0.7764
13759TIP3    H262769   5.962   2.521  10.995  0.5304 -0.4530  0.6918
13760TIP3   OH262770   3.648   2.585  14.650 -0.3239 -0.1648  0.3701
13760TIP3    H162771   3.710   2.605  14.720  2.5928 -2.6411 -1.3768
13760TIP3    H262772   3.630   2.669  14.608 -0.1474  0.9441  2.4700
13761TIP3   OH262773   6.101   4.538   0.605 -0.5637  0.6056 -0.3560
13761TIP3    H162774   6.155   4.613   0.630 -0.5921 -0.3099  2.7116
13761TIP3    H262775   6.019   4.577   0.574  0.1855  1.8688 -0.7903
13762TIP3   OH262776   3.275   2.996  16.590 -0.6781  0.3149 -0.1740
13762TIP3    H162777   3.226   2.943  16.527  1.4209 -0.1018 -1.4770
13762TIP3    H262778   3.351   2.943  16.613  0.3312  1.8593  0.1303
13763TIP3   OH262779   1.002   1.577   3.490 -0.4652  0.1631 -0.0903
13763TIP3    H162780   1.088   1.585   3.451  0.0702  0.4823  1.1223
13763TIP3    H262781   0.972   1.489   3.465 -0.0838  0.3055 -1.0657
13764TIP3   OH262782   2.255   1.223   5.299 -0.3204  0.5647 -0.0468
13764TIP3    H162783   2.274   1.234   5.206  3.8152  0.2899  0.6748
13764TIP3    H262784   2.188   1.289   5.317 -0.2969  1.4580 -2.9544
13765TIP3   OH262785   4.753   5.953   1.594  0.1810  0.1551 -0.0069
13765TIP3    H162786   4.783   5.872   1.554 -2.5467 -0.5514 -0.7496
13765TIP3    H262787   4.785   6.022   1.535 -0.8719 -0.6616 -1.5786
13766TIP3   OH262788   3.184   6.787  16.174  0.3370  0.1868 -0.2702
13766TIP3    H162789   3.125   6.833  16.233  0.2866 -1.2805  0.8561
13766TIP3    H262790   3.163   6.820  16.087  0.7389  2.7240  0.5760
13767TIP3   OH262791   1.130   3.522  16.814 -0.9698 -0.3992 -0.5195
13767TIP3    H162792   1.142   3.427  16.814 -1.5179 -0.4659 -0.6020
13767TIP3    H262793   1.062   3.538  16.880  1.9306  0.2751  2.4683
13768TIP3   OH262794   3.364   6.550   2.461 -0.5432  0.0634 -0.6788
13768TIP3    H162795   3.412   6.631   2.481 -0.0501 -0.5569  0.6830
13768TIP3    H262796   3.381   6.535   2.368  1.1280  0.3796 -0.4431
13769TIP3   OH262797   6.022   3.898  11.444  0.3781  0.0631 -0.7034
13769TIP3    H162798   5.971   3.818  11.435 -0.5089  0.7092 -1.5862
13769TIP3    H262799   6.019   3.918  11.537 -0.3782 -0.3119 -0.6408
13770TIP3   OH262800   0.929   1.199  11.454 -0.0528 -0.2904  0.3398
13770TIP3    H162801   0.966   1.152  11.379  0.1569 -0.7353  0.7228
13770TIP3    H262802   0.922   1.290  11.424  0.7314 -0.3246  0.0358
13771TIP3   OH262803   5.448   5.696   0.744 -0.1158 -0.2344 -0.7004
13771TIP3    H162804   5.379   5.681   0.808  1.2423  2.1200  1.4529
13771TIP3    H262805   5.519   5.639   0.772 -0.1957 -0.5999 -1.2427
13772TIP3   OH262806   0.079   3.819   5.118  0.4776 -0.2888  0.2093
13772TIP3    H162807   0.063   3.817   5.212  1.4855  0.2192  0.4036
13772TIP3    H262808   0.022   3.888   5.086  0.9380  0.2885  0.6189
13773TIP3   OH262809   4.898   6.787  11.342 -0.1078  0.1165  0.2695
13773TIP3    H162810   4.936   6.705  11.373  1.4480  0.5137 -0.5169
13773TIP3    H262811   4.842   6.816  11.414 -1.9537 -2.4298 -0.1242
13774TIP3   OH262812   1.555   3.792  15.401  0.0509 -0.5045 -0.2494
13774TIP3    H162813   1.551   3.707  15.356 -0.3002 -0.1012 -0.9907
13774TIP3    H262814   1.641   3.793  15.443  0.2665 -1.0116 -0.6678
13775TIP3   OH262815   1.074   2.099   2.903  0.1878  0.2274 -0.1728
13775TIP3    H162816   1.102   2.189   2.914  1.2612  0.0433 -1.2370
13775TIP3    H262817   1.080   2.061   2.991  3.2725  0.2210 -0.3172
13776TIP3   OH262818   5.476   4.727  15.985  1.0002  0.1451 -0.2079
13776TIP3    H162819   5.532   4.654  15.960  0.6258 -0.9834  2.1478
13776TIP3    H262820   5.488   4.736  16.080 -2.1747  0.3892  0.2288
13777TIP3   OH262821   5.192   3.546  15.959 -0.1349 -0.0906 -0.4791
13777TIP3    H162822   5.113   3.573  16.005 -0.9615 -1.5292 -1.0594
13777TIP3    H262823   5.161   3.501  15.880  1.2420 -1.5036 -0.2387
13778TIP3   OH262824   4.107   6.313  11.186  0.3652  0.5420 -0.7162
13778TIP3    H162825   4.056   6.387  11.219 -0.4012  0.8369 -2.4982
13778TIP3    H262826   4.196   6.332  11.213  0.0220  1.6567 -0.3241
13779TIP3   OH262827   4.597   0.141   6.107  0.2886  0.2270  0.2419
13779TIP3    H162828   4.512   0.117   6.145  0.4533 -1.2236 -0.2635
13779TIP3    H262829   4.640   0.057   6.090  1.5409  0.9352 -0.1632
13780TIP3   OH262830   2.241   5.562   5.052  0.2245 -0.4744 -0.6458
13780TIP3    H162831   2.322   5.592   5.010  0.2984 -2.4696 -2.0318
13780TIP3    H262832   2.204   5.640   5.092  2.9942  0.4145  0.2696
13781TIP3   OH262833   1.916   4.324  11.148  0.2663  0.0239 -0.1973
13781TIP3    H162834   1.854   4.369  11.092  1.1002  0.9960 -0.3471
13781TIP3    H262835   1.946   4.249  11.096 -0.7543 -0.4456 -0.1215
13782TIP3   OH262836   1.542   3.995   4.811 -0.6062  0.0512  0.4104
13782TIP3    H162837   1.490   4.075   4.818 -0.9722 -0.0586 -0.9746
13782TIP3    H262838   1.631   4.026   4.793 -0.6595  0.1615  0.3354
13783TIP3   OH262839   3.026   1.467   4.977  0.4448  0.1630 -0.0499
13783TIP3    H162840   3.002   1.556   4.955 -0.6541 -0.3207 -0.8087
13783TIP3    H262841   2.962   1.440   5.043  0.4407 -0.2565 -0.2243
13784TIP3   OH262842   0.928   6.496  15.663  0.0149  0.1703 -0.6729
13784TIP3    H162843   0.839   6.529  15.662 -0.7790 -1.8795 -1.2595
13784TIP3    H262844   0.960   6.509  15.574  1.0208  2.6544  0.0010
13785TIP3   OH262845   1.493   6.534  13.207 -0.7415  0.1116  0.2985
13785TIP3    H162846   1.506   6.619  13.248 -1.1471  0.0070  0.6507
13785TIP3    H262847   1.465   6.477  13.279  0.0126 -0.4394  0.1578
13786TIP3   OH262848   0.534   2.413   0.214  0.0948 -0.4317 -0.1160
13786TIP3    H162849   0.556   2.484   0.154  1.3684 -1.4850 -0.9391
13786TIP3    H262850   0.542   2.333   0.161 -1.2645 -1.2010  0.7948
13787TIP3   OH262851   4.096   0.401  13.221  0.1648 -0.0761 -0.0661
13787TIP3    H162852   4.030   0.337  13.248 -2.8513  2.4907 -1.0270
13787TIP3    H262853   4.104   0.389  13.127  0.5572  0.0752 -0.0526
13788TIP3   OH262854   3.103   2.739   4.118  0.0250  0.1325  0.3780
13788TIP3    H162855   3.029   2.760   4.174 -0.7358 -1.5163  0.0449
13788TIP3    H262856   3.126   2.821   4.076 -1.7014  0.6413  0.3914
13789TIP3   OH262857   3.579   4.658  12.313  0.1768 -0.6282 -0.2386
13789TIP3    H162858   3.608   4.589  12.373  0.5019 -1.1905 -1.0464
13789TIP3    H262859   3.660   4.699  12.282 -0.0253  0.7273  0.9215
13790TIP3   OH262860   6.328   0.776   0.445 -0.1989  0.3581  0.0900
13790TIP3    H162861   6.356   0.713   0.378  0.3671  0.0057  0.6406
13790TIP3    H262862   6.275   0.724   0.505  1.1002  0.1549  1.0959
13791TIP3   OH262863   1.296   5.636   3.467  0.0504 -0.0432  0.0879
13791TIP3    H162864   1.389   5.615   3.472 -0.1331 -0.9195  0.0529
13791TIP3    H262865   1.292   5.719   3.420  0.7246 -0.9735 -1.6707
13792TIP3   OH262866   1.544   2.188   6.113 -0.2134 -0.1934  0.6551
13792TIP3    H162867   1.618   2.184   6.053 -0.8246  0.0607 -0.1357
13792TIP3    H262868   1.540   2.279   6.143 -0.2821 -0.1739  0.5896
13793TIP3   OH262869   2.202   4.785   5.538  0.6262 -0.3057 -0.1850
13793TIP3    H162870   2.175   4.874   5.560 -1.3962 -1.3091  1.5985
13793TIP3    H262871   2.230   4.790   5.447 -2.4530  1.5240 -1.1048
13794TIP3   OH262872   3.546   3.863   0.052 -0.0930  0.3400  0.2514
13794TIP3    H162873   3.472   3.910   0.013 -0.8767 -0.2608  0.9962
13794TIP3    H262874   3.589   3.928   0.107 -0.3080  0.5843  0.1336
13795TIP3   OH262875   1.608   4.397  12.280  0.5608 -0.4065  0.3588
13795TIP3    H162876   1.515   4.372  12.280  0.6477 -0.8412 -1.6029
13795TIP3    H262877   1.610   4.481  12.234  1.2314 -0.8662 -0.4707
13796TIP3   OH262878   5.966   5.027  15.213 -0.2507  0.5278 -0.0147
13796TIP3    H162879   6.035   5.084  15.178 -0.6728  1.0239 -0.0527
13796TIP3    H262880   5.885   5.070  15.187 -0.5769  0.4758  0.8931
13797TIP3   OH262881   3.319   2.538  15.275  0.1387 -0.6665  0.0851
13797TIP3    H162882   3.356   2.453  15.252  1.0664 -0.5968  1.3081
13797TIP3    H262883   3.393   2.589  15.307 -0.6401  0.1734  0.5752
13798TIP3   OH262884   0.215   0.366   1.731 -0.0818 -0.5605  0.0325
13798TIP3    H162885   0.215   0.392   1.823 -0.7439 -1.6305  0.3485
13798TIP3    H262886   0.125   0.378   1.702  0.0305 -0.6487 -0.3611
13799TIP3   OH262887   1.756   3.019   5.280  0.0418 -0.3815  0.5495
13799TIP3    H162888   1.738   2.931   5.311 -0.1774 -0.8495 -0.8857
13799TIP3    H262889   1.813   3.057   5.347 -1.1472 -1.0434  1.9779
13800TIP3   OH262890   3.334   3.366   0.703  0.7823 -0.0439  0.0581
13800TIP3    H162891   3.314   3.318   0.783 -1.0294 -0.0466 -0.3920
13800TIP3    H262892   3.374   3.300   0.646  0.8485 -0.3594  0.4637
13801TIP3   OH262893   5.618   6.660  10.720 -0.2845 -0.1839  0.3305
13801TIP3    H162894   5.577   6.744  10.743  0.8750  0.3990  0.3277
13801TIP3    H262895   5.551   6.594  10.738 -1.5333  0.8289 -0.5534
13802TIP3   OH262896   3.153   0.333  16.557 -0.1961 -0.2292 -0.0642
13802TIP3    H162897   3.060   0.326  16.534 -1.4563  2.2939  3.7228
13802TIP3    H262898   3.193   0.255  16.517 -3.9429 -1.5570 -1.5484
13803TIP3   OH262899   6.648   4.382   3.044 -0.4408 -0.3821 -0.4418
13803TIP3    H162900   6.732   4.427   3.039 -0.9592  0.5515 -0.9394
13803TIP3    H262901   6.599   4.432   3.109  0.0341 -2.0303  1.2389
13804TIP3   OH262902   2.415   3.463   2.894 -0.0536 -0.0087 -0.4117
13804TIP3    H162903   2.404   3.390   2.834 -0.4231 -0.9590  0.8030
13804TIP3    H262904   2.451   3.425   2.974  0.4680  1.2453 -0.0322
13805TIP3   OH262905   1.583   0.824   3.872 -0.7635 -0.2534  0.1489
13805TIP3    H162906   1.596   0.789   3.784 -0.1680  2.0256 -0.6851
13805TIP3    H262907   1.672   0.837   3.906 -0.9623  1.3477  0.0804
13806TIP3   OH262908   5.780   6.009  11.427  0.3287  0.5118 -0.1426
13806TIP3    H162909   5.787   6.083  11.368  0.2813 -0.2768 -1.1601
13806TIP3    H262910   5.830   5.939  11.383  0.6597  0.0468  0.9571
13807TIP3   OH262911   1.694   6.009  15.433  0.6367 -0.6573 -0.2393
13807TIP3    H162912   1.609   5.977  15.403  0.4890 -1.6207  1.1189
13807TIP3    H262913   1.753   5.934  15.424  1.1780 -0.2085 -0.4965
13808TIP3   OH262914   2.572   1.386  13.700  0.4731  0.3887 -0.2928
13808TIP3    H162915   2.582   1.372  13.794 -0.9100  1.8365  0.1018
13808TIP3    H262916   2.652   1.430  13.673  0.0406  1.7219  0.5898
13809TIP3   OH262917   1.727   2.007   5.803  0.0118 -0.1591 -1.0292
13809TIP3    H162918   1.649   1.964   5.840  0.2703 -0.8910 -1.3249
13809TIP3    H262919   1.700   2.033   5.715  0.1867 -0.6749 -1.2397
13810TIP3   OH262920   4.835   4.086   1.465  0.5043 -0.1066 -0.2159
13810TIP3    H162921   4.905   4.088   1.530  0.3422 -1.3555  0.0165
13810TIP3    H262922   4.881   4.091   1.381  0.9013 -1.2759 -0.0750
13811TIP3   OH262923   0.833   3.301  10.618 -0.0140 -0.1815 -0.1596
13811TIP3    H162924   0.883   3.229  10.656 -0.6584 -1.1161 -1.0694
13811TIP3    H262925   0.897   3.370  10.601  0.7078 -0.8042  0.0622
13812TIP3   OH262926   6.303   0.862   2.995  0.1180  0.4660 -0.1271
13812TIP3    H162927   6.260   0.777   3.002  0.5622  0.2512  0.0286
13812TIP3    H262928   6.273   0.898   2.912 -1.3572  0.8765  0.5548
13813TIP3   OH262929   0.522   0.737   5.270  0.2469  0.2512  0.7171
13813TIP3    H162930   0.451   0.797   5.248  1.4500  1.6530  0.5838
13813TIP3    H262931   0.545   0.696   5.186 -1.6069 -1.5944  1.0633
13814TIP3   OH262932   2.661   6.361   4.501  0.3490 -0.2172 -0.3917
13814TIP3    H162933   2.589   6.392   4.446  0.1606  0.0507  0.0114
13814TIP3    H262934   2.619   6.329   4.581  0.6935  0.0898 -0.0888
13815TIP3   OH262935   1.133   2.463  14.176  0.1128  0.4283  0.3990
13815TIP3    H162936   1.084   2.381  14.170  2.7670 -1.1955  0.3417
13815TIP3    H262937   1.090   2.521  14.114 -1.9281 -0.8435  0.5721
13816TIP3   OH262938   4.955   2.619  15.743  0.4861  0.2907  0.8945
13816TIP3    H162939   4.996   2.535  15.765  1.0380  0.3673  0.1736
13816TIP3    H262940   4.929   2.610  15.652 -0.2902  0.5746  1.0879
13817TIP3   OH262941   2.927   6.803  14.172 -0.1652  0.3094 -0.2148
13817TIP3    H162942   2.908   6.790  14.079 -0.3758  0.2248 -0.1623
13817TIP3    H262943   2.865   6.870  14.200  0.7094  1.2015 -0.4137
13818TIP3   OH262944   6.073   1.370  16.458 -0.2733 -0.2047 -0.1175
13818TIP3    H162945   6.024   1.434  16.510 -3.2579 -0.8885 -1.9254
13818TIP3    H262946   6.005   1.313  16.421  1.9071 -1.0988 -2.9107
13819TIP3   OH262947   1.474   5.173  14.439 -0.2592  0.8582  0.1298
13819TIP3    H162948   1.394   5.225  14.440 -0.1900  0.9702 -0.2162
13819TIP3    H262949   1.509   5.183  14.351  0.6953  1.6556  0.5853
13820TIP3   OH262950   1.861   1.411  15.616  0.0898  0.3288 -0.1137
13820TIP3    H162951   1.900   1.325  15.603 -0.1950 -0.2543  2.6818
13820TIP3    H262952   1.924   1.472  15.577  1.1162 -0.9926 -0.5580
13821TIP3   OH262953   3.775   6.354  11.623 -0.2149 -0.6972  0.2949
13821TIP3    H162954   3.712   6.420  11.651 -0.5725  1.2251 -4.5363
13821TIP3    H262955   3.738   6.318  11.543  3.0963 -2.0966 -0.7006
13822TIP3   OH262956   0.133   0.549  16.545  0.1967  0.1366 -0.3207
13822TIP3    H162957   0.186   0.511  16.475  0.3481  0.2313 -0.2575
13822TIP3    H262958   0.108   0.635  16.513 -1.7191 -0.7479 -1.2737
13823TIP3   OH262959   0.337   1.319  14.558  0.7888 -0.9190  0.3065
13823TIP3    H162960   0.248   1.352  14.570  0.7967 -0.9326  0.4103
13823TIP3    H262961   0.381   1.386  14.507  0.7674 -0.8320  0.4014
13824TIP3   OH262962   3.597   0.677  16.163  0.0531  0.8277  0.4005
13824TIP3    H162963   3.570   0.653  16.252 -0.5584  0.5251  0.1387
13824TIP3    H262964   3.515   0.676  16.113 -0.0328  3.6077  0.4053
13825TIP3   OH262965   3.985   5.067   5.697  0.1144  0.4110 -0.3388
13825TIP3    H162966   3.949   5.153   5.721  0.7853  0.2586  1.2672
13825TIP3    H262967   4.061   5.056   5.754  0.4351 -0.9721 -1.0034
13826TIP3   OH262968   1.503   2.480  11.437 -0.3294 -0.3238 -0.4317
13826TIP3    H162969   1.415   2.442  11.430 -1.4180  2.0644 -0.2182
13826TIP3    H262970   1.510   2.538  11.361  1.1713 -0.6611 -0.5644
13827TIP3   OH262971   4.886   6.145  13.097 -0.1281  0.0437 -0.2362
13827TIP3    H162972   4.836   6.077  13.051 -0.4663 -0.1630  0.4304
13827TIP3    H262973   4.874   6.125  13.189  0.8790  0.2278 -0.0571
13828TIP3   OH262974   4.776   1.535   0.669  0.0348 -0.1992  0.2113
13828TIP3    H162975   4.821   1.541   0.585  1.4257  1.8692  1.0761
13828TIP3    H262976   4.692   1.579   0.654 -0.3981 -1.2702 -0.5348
13829TIP3   OH262977   2.538   2.051  12.854  0.1470 -0.3835  0.1898
13829TIP3    H162978   2.606   2.019  12.913 -0.4449 -0.3509  0.8987
13829TIP3    H262979   2.464   2.072  12.911  0.2364  1.4999 -0.3420
13830TIP3   OH262980   6.745   4.928  16.091  0.9261  0.0341 -0.6779
13830TIP3    H162981   6.677   4.923  16.158  1.4695 -2.3281 -0.2610
13830TIP3    H262982   6.755   5.022  16.075 -0.2352  0.5746  1.4858
13831TIP3   OH262983   3.623   0.937  10.343  0.3264 -0.1272  0.2873
13831TIP3    H162984   3.670   1.021  10.339 -1.3820  0.8132 -0.8149
13831TIP3    H262985   3.690   0.873  10.368  2.4503  0.9651 -2.3336
13832TIP3   OH262986   6.570   5.782  15.783 -0.3538  0.5331  0.7480
13832TIP3    H162987   6.549   5.858  15.729 -0.1635  0.4374  0.5392
13832TIP3    H262988   6.530   5.802  15.868  2.8852  2.6238  1.8763
13833TIP3   OH262989   0.527   4.385  11.806  0.1048  0.4723 -0.4348
13833TIP3    H162990   0.500   4.305  11.852 -2.9530  1.4290 -0.4444
13833TIP3    H262991   0.623   4.385  11.811  0.1279 -2.7978  0.2155
13834TIP3   OH262992   6.357   4.493  14.465 -0.2427  0.1150  0.0280
13834TIP3    H162993   6.312   4.457  14.542  0.2472  0.8433  0.6652
13834TIP3    H262994   6.337   4.431  14.395 -1.0914 -0.3065  0.6268
13835TIP3   OH262995   0.218   5.967  14.486 -0.4788 -0.1183  0.9128
13835TIP3    H162996   0.159   5.948  14.559  0.5529 -1.6094  1.3851
13835TIP3    H262997   0.299   5.921  14.508 -0.2374 -0.7952 -1.2705
13836TIP3   OH262998   1.727   4.335   2.750  0.1934  0.2177  0.3529
13836TIP3    H162999   1.737   4.257   2.804  0.5577  0.4388  0.6086
13836TIP3    H263000   1.724   4.407   2.813  3.0346  0.7032 -0.0060
13837TIP3   OH263001   5.645   0.662   3.901  0.0109 -1.0961 -0.5675
13837TIP3    H163002   5.611   0.576   3.924  0.0309 -1.0420 -0.3326
13837TIP3    H263003   5.704   0.646   3.828 -1.5525 -1.0333 -1.8895
13838TIP3   OH263004   6.400   4.218  11.254  0.3519  0.3680  0.6654
13838TIP3    H163005   6.354   4.202  11.337 -0.8988 -1.2234 -0.3224
13838TIP3    H263006   6.472   4.155  11.254 -0.5832 -0.7058 -0.1703
13839TIP3   OH263007   3.636   1.579  15.517 -0.3759  0.2096 -0.3454
13839TIP3    H163008   3.544   1.589  15.490 -0.9371  3.3288  2.4087
13839TIP3    H263009   3.630   1.551  15.608  1.4878 -2.2313 -0.9135
13840TIP3   OH263010   2.650   1.321   2.122  0.1756 -0.0359 -0.1101
13840TIP3    H163011   2.661   1.405   2.078 -1.3987 -0.0147 -0.4720
13840TIP3    H263012   2.696   1.258   2.067  1.5001  0.5999  0.2461
13841TIP3   OH263013   0.636   3.207  16.408 -0.0191 -0.5961 -0.4307
13841TIP3    H163014   0.668   3.296  16.394 -2.9827  0.3976 -1.2634
13841TIP3    H263015   0.598   3.209  16.496 -0.4940 -0.9116 -0.6280
13842TIP3   OH263016   5.116   3.980  12.253 -0.1868 -0.5954  0.4057
13842TIP3    H163017   5.206   3.971  12.284  0.0641 -1.0540 -0.4683
13842TIP3    H263018   5.085   4.061  12.295  1.2081  0.5422 -0.7246
13843TIP3   OH263019   2.652   1.119   3.824 -0.0372 -0.0717 -0.4423
13843TIP3    H163020   2.617   1.170   3.751 -0.3279 -0.0377 -0.2813
13843TIP3    H263021   2.745   1.140   3.826 -0.1726  0.5221 -0.3184
13844TIP3   OH263022   3.096   0.563   1.847 -0.4822  0.4719 -0.0283
13844TIP3    H163023   3.101   0.556   1.943  3.4879  3.6618  0.1335
13844TIP3    H263024   3.158   0.497   1.815  0.9268  1.8534 -0.2122
13845TIP3   OH263025   0.981   1.457  15.580  0.2708  0.5000 -0.1044
13845TIP3    H163026   1.052   1.517  15.556 -0.0300  0.2577 -1.7113
13845TIP3    H263027   0.986   1.388  15.514 -0.5504 -0.2693  0.6407
13846TIP3   OH263028   1.599   0.291  15.007  0.2987  0.1983  0.1265
13846TIP3    H163029   1.584   0.246  14.924  1.3193 -0.6629  0.3968
13846TIP3    H263030   1.535   0.253  15.068  0.8069 -0.5178  0.2175
13847TIP3   OH263031   5.374   3.554  17.197  0.1679 -1.0612 -0.0206
13847TIP3    H163032   5.374   3.573  17.103  2.1481 -0.9918 -0.0271
13847TIP3    H263033   5.296   3.598  17.230 -0.2027 -0.5416 -1.5369
13848TIP3   OH263034   0.546   0.819  16.593 -0.4849 -0.1779  0.2236
13848TIP3    H163035   0.536   0.802  16.687  2.9530 -0.1842  0.6591
13848TIP3    H263036   0.529   0.735  16.551 -0.7623 -0.4905  0.9508
13849TIP3   OH263037   5.766   5.063   2.188  0.0651 -0.1272 -0.0585
13849TIP3    H163038   5.683   5.017   2.199  0.9785 -1.5760  0.8041
13849TIP3    H263039   5.790   5.091   2.276  0.5770  0.1651 -0.2883
13850TIP3   OH263040   2.134   5.342   4.744  0.1848  0.4779  0.4881
13850TIP3    H163041   2.195   5.325   4.672 -1.1827  0.4128 -0.6744
13850TIP3    H263042   2.174   5.299   4.820  1.5340  0.3633 -0.2686
13851TIP3   OH263043   4.948   2.692   3.857 -0.0367  0.5421 -0.4344
13851TIP3    H163044   4.990   2.752   3.918  1.3365  0.3475 -1.1740
13851TIP3    H263045   4.983   2.716   3.771  0.2894 -1.1047 -0.7789
13852TIP3   OH263046   2.416   2.541  13.664 -0.6028  0.5627  0.0710
13852TIP3    H163047   2.341   2.536  13.722 -2.1597  0.1377 -1.9083
13852TIP3    H263048   2.416   2.458  13.616  0.0782  1.2564 -1.1854
13853TIP3   OH263049   2.154   1.270   6.258  1.0781  0.3554 -0.4115
13853TIP3    H163050   2.123   1.208   6.192  1.8885  1.2802 -1.6866
13853TIP3    H263051   2.104   1.249   6.336 -0.0114 -0.6632 -1.3651
13854TIP3   OH263052   2.500   4.208  11.402  0.3655  0.4894  0.7277
13854TIP3    H163053   2.481   4.192  11.310  0.6426 -1.0894  0.9335
13854TIP3    H263054   2.546   4.292  11.402 -0.2224  0.8260 -0.5043
13855TIP3   OH263055   4.196   3.609  17.223 -0.6133 -0.5213 -0.4002
13855TIP3    H163056   4.188   3.664  17.301 -2.3618 -0.0530 -0.9093
13855TIP3    H263057   4.178   3.667  17.150 -2.0843 -1.6709 -0.9655
13856TIP3   OH263058   5.177   5.762   5.252  0.1962 -0.4831 -0.1054
13856TIP3    H163059   5.220   5.736   5.334  1.0709 -0.4968 -0.5682
13856TIP3    H263060   5.218   5.708   5.185  0.7144  0.7636 -0.8080
13857TIP3   OH263061   3.538   6.470   5.416  0.2580  0.5744  0.6152
13857TIP3    H163062   3.490   6.508   5.342 -0.4024 -0.3153  0.5724
13857TIP3    H263063   3.514   6.524   5.491 -0.0956  0.6872  0.4225
13858TIP3   OH263064   3.484   5.449   6.274  0.0089  0.1062  0.7905
13858TIP3    H163065   3.529   5.478   6.354  0.1132  0.6214  0.5438
13858TIP3    H263066   3.543   5.474   6.203 -0.9085  1.2794  0.4215
13859TIP3   OH263067   2.645   3.543  14.985 -0.2617 -0.3091  0.3604
13859TIP3    H163068   2.574   3.491  14.948 -2.5327  2.8383  0.0747
13859TIP3    H263069   2.642   3.524  15.078  0.2598 -2.1957  0.0096
13860TIP3   OH263070   0.706   1.689  11.374  0.1565  0.6022  0.2946
13860TIP3    H163071   0.781   1.678  11.315  0.4140  1.5613  0.4360
13860TIP3    H263072   0.657   1.762  11.337 -0.5426  0.1728  0.3782
13861TIP3   OH263073   5.440   3.818   1.615 -0.2563  0.0030  0.5086
13861TIP3    H163074   5.351   3.796   1.587  0.2685 -0.1816 -1.0343
13861TIP3    H263075   5.434   3.907   1.649 -1.3464 -0.5949  1.9501
13862TIP3   OH263076   5.577   4.264   3.537 -0.3322  0.3771  0.1225
13862TIP3    H163077   5.542   4.216   3.462  2.3982  1.5200 -1.9665
13862TIP3    H263078   5.646   4.208   3.572  1.4812  1.8210 -1.0642
13863TIP3   OH263079   3.357   4.974   3.322  0.4264 -0.7271 -0.2710
13863TIP3    H163080   3.316   4.979   3.235 -0.0973 -0.8657 -0.0360
13863TIP3    H263081   3.395   5.061   3.335  0.5884 -0.7364 -0.6806
13864TIP3   OH263082   5.937   0.722   4.235  0.2829  0.4411  0.1681
13864TIP3    H163083   5.851   0.710   4.276  0.6310 -0.4547  0.6376
13864TIP3    H263084   5.961   0.812   4.257 -0.3082  0.5279  0.4642
13865TIP3   OH263085   2.279   2.951   3.734  0.2539  0.0446 -0.3942
13865TIP3    H163086   2.295   2.935   3.641  1.1732 -0.4684 -0.1590
13865TIP3    H263087   2.343   2.896   3.779  0.7278  1.3040  0.5212
13866TIP3   OH263088   0.896   5.901   1.298 -0.2276  0.0625  0.5885
13866TIP3    H163089   0.983   5.863   1.294 -0.9083 -1.4592 -0.2131
13866TIP3    H263090   0.903   5.984   1.251  0.9637  0.3385  1.2316
13867TIP3   OH263091   2.370   5.004  15.507  0.1113 -0.4809  0.2601
13867TIP3    H163092   2.293   5.057  15.525 -0.6035 -0.5805 -2.3797
13867TIP3    H263093   2.366   4.933  15.571 -1.3668  0.1398  0.8711
13868TIP3   OH263094   5.752   4.033   3.554  0.4674 -0.1631  0.0561
13868TIP3    H163095   5.704   3.954   3.579  0.8991 -0.4170  0.0816
13868TIP3    H263096   5.769   4.078   3.637  0.8480 -0.4041  0.1110
13869TIP3   OH263097   0.182   0.100   4.997 -0.2048  1.0289  0.0277
13869TIP3    H163098   0.126   0.169   5.032 -0.1931  0.7841  0.5360
13869TIP3    H263099   0.186   0.118   4.903 -3.7228 -0.7839 -0.5548
13870TIP3   OH263100   1.884   4.522   0.489  0.0875 -0.3465  0.4604
13870TIP3    H163101   1.916   4.570   0.565 -0.6660  0.4063  0.3223
13870TIP3    H263102   1.900   4.430   0.509 -1.1542 -0.2422  2.0426
13871TIP3   OH263103   6.701   2.193  13.782  0.6296  0.0849  0.3217
13871TIP3    H163104   6.643   2.264  13.810 -1.7658 -1.0258 -1.6118
13871TIP3    H263105   6.645   2.116  13.780  1.0532 -0.3109 -5.3623
13872TIP3   OH263106   5.487   3.542  15.185  0.0393  0.3314  0.1157
13872TIP3    H163107   5.425   3.614  15.193  0.0484  0.3730 -0.1923
13872TIP3    H263108   5.470   3.487  15.262 -1.6277 -0.6357 -0.8995
13873TIP3   OH263109   4.702   6.726   5.085  0.1908 -0.5469 -0.4503
13873TIP3    H163110   4.665   6.642   5.057 -1.1165 -0.1157 -0.0738
13873TIP3    H263111   4.761   6.704   5.157 -3.6547 -0.7258  2.8019
13874TIP3   OH263112   1.070   5.634  11.594  0.3124  0.3802 -0.1506
13874TIP3    H163113   1.129   5.569  11.556  0.0529 -0.5722  1.0632
13874TIP3    H263114   1.126   5.684  11.654  0.3241  0.7643 -0.4761
13875TIP3   OH263115   1.999   2.818  16.463 -0.2956  0.0790  0.1945
13875TIP3    H163116   2.075   2.782  16.508  1.3775  1.9544 -1.0587
13875TIP3    H263117   1.974   2.894  16.515 -1.8165 -0.9679  1.0315
13876TIP3   OH263118   4.434   3.445   0.252  0.1529 -0.2253 -0.0275
13876TIP3    H163119   4.362   3.498   0.287 -0.4196 -0.8382 -0.2627
13876TIP3    H263120   4.437   3.368   0.310  1.7703  0.6322  1.0520
13877TIP3   OH263121   1.337   5.323   1.222 -0.3905 -0.6537  0.0063
13877TIP3    H163122   1.252   5.282   1.241 -0.3067 -0.9326 -0.2021
13877TIP3    H263123   1.383   5.324   1.306 -0.6897 -0.2917  0.1657
13878TIP3   OH263124   5.172   5.943  16.215 -0.1476  0.3171 -0.1753
13878TIP3    H163125   5.175   5.883  16.140 -0.3259  0.0386  0.0389
13878TIP3    H263126   5.098   5.911  16.267 -0.2944  0.7747 -0.1065
13879TIP3   OH263127   0.506   2.577  14.439 -0.1749  0.3407 -0.3294
13879TIP3    H163128   0.501   2.664  14.400 -0.6423  0.0294 -0.9791
13879TIP3    H263129   0.597   2.569  14.469 -0.2867  1.2762  0.2765
13880TIP3   OH263130   3.356   6.817  12.161  0.1249 -0.2128 -0.3834
13880TIP3    H163131   3.424   6.818  12.228 -1.9389 -2.7301  1.9030
13880TIP3    H263132   3.388   6.756  12.095  0.0037 -1.6481  0.8504
13881TIP3   OH263133   1.508   3.563   4.687 -0.6282  0.4535 -0.5837
13881TIP3    H163134   1.480   3.553   4.778  1.7120 -2.5375 -0.1107
13881TIP3    H263135   1.463   3.492   4.640  1.8494 -1.0725 -0.7760
13882TIP3   OH263136   4.848   6.234   1.459 -0.1580  0.4012 -0.1927
13882TIP3    H163137   4.931   6.282   1.459  0.1909 -0.1807  0.4166
13882TIP3    H263138   4.846   6.189   1.375 -0.4845  1.4676 -0.7623
13883TIP3   OH263139   3.623   0.800   5.479 -0.2803 -0.2314  0.4893
13883TIP3    H163140   3.589   0.885   5.451  1.1752 -0.1222 -1.0952
13883TIP3    H263141   3.623   0.804   5.575 -2.1795  0.7466  0.4571
13884TIP3   OH263142   4.827   3.952   1.126 -0.4813 -0.5809  0.5337
13884TIP3    H163143   4.745   3.954   1.077 -1.5008  1.3345  2.2442
13884TIP3    H263144   4.803   3.918   1.212  0.2367  1.3578  1.5180
13885TIP3   OH263145   1.831   6.271  17.285  0.1989  0.2319  0.1169
13885TIP3    H163146   1.862   6.333  17.219 -1.6904  0.4571 -0.5707
13885TIP3    H263147   1.847   6.185  17.247 -2.1260  0.3674 -1.2520
13886TIP3   OH263148   2.978   6.736  14.995  0.4240  0.1554 -0.0076
13886TIP3    H163149   2.909   6.680  14.959  0.3976  0.0958  0.1379
13886TIP3    H263150   3.006   6.692  15.075  0.6969  0.1326 -0.1160
13887TIP3   OH263151   1.169   1.271   1.012 -0.2959 -0.4401 -0.4787
13887TIP3    H163152   1.152   1.365   1.005  0.8392 -0.3528 -2.3842
13887TIP3    H263153   1.262   1.264   1.031 -0.5071 -1.1604  0.3155
13888TIP3   OH263154   2.440   2.691   0.947 -0.0660 -0.0044  0.1478
13888TIP3    H163155   2.406   2.668   0.861 -0.7767  0.4213  0.3095
13888TIP3    H263156   2.409   2.622   1.005 -1.7916  1.0611  0.5420
13889TIP3   OH263157   3.145   4.375   0.316  0.3093 -1.2876 -0.0157
13889TIP3    H163158   3.111   4.459   0.348 -0.0916 -1.8789  1.1464
13889TIP3    H263159   3.180   4.332   0.394 -0.4773 -2.6786 -0.4136
13890TIP3   OH263160   0.710   3.175  14.262 -0.2157  0.8632  0.1678
13890TIP3    H163161   0.798   3.182  14.225  0.4848 -1.2262  1.3207
13890TIP3    H263162   0.715   3.225  14.344 -0.2299  1.1799 -0.0290
13891TIP3   OH263163   5.531   2.512  14.114 -0.0410 -0.3729  0.4322
13891TIP3    H163164   5.502   2.575  14.180  3.3105  0.5401  1.1343
13891TIP3    H263165   5.553   2.434  14.164  0.7687 -0.3074  0.1803
13892TIP3   OH263166   0.386   4.910  13.167  0.5647 -0.0850 -0.4243
13892TIP3    H163167   0.359   4.913  13.075 -0.0861 -0.0710 -0.2318
13892TIP3    H263168   0.400   4.817  13.185 -1.9167 -0.3494  0.2193
13893TIP3   OH263169   4.368   2.062   6.239  0.4854 -0.6363  0.1994
13893TIP3    H163170   4.336   2.030   6.324  2.3007  0.5066  1.3350
13893TIP3    H263171   4.413   2.144   6.260  2.0032 -0.9609 -1.7110
13894TIP3   OH263172   2.821   2.023  13.645 -0.1114  0.1763  0.4872
13894TIP3    H163173   2.759   1.986  13.707  0.9306 -1.2465  0.7326
13894TIP3    H263174   2.768   2.053  13.571 -1.0346 -1.7322  0.3402
13895TIP3   OH263175   4.436   3.625   3.366 -0.0797 -0.1952 -0.4661
13895TIP3    H163176   4.421   3.558   3.433 -0.7011  0.3020 -0.0973
13895TIP3    H263177   4.358   3.680   3.370  0.7255  0.9492 -0.3024
13896TIP3   OH263178   3.357   3.037   5.567 -0.3856  0.3889 -0.1154
13896TIP3    H163179   3.273   2.996   5.586 -0.0933 -1.0635 -1.9447
13896TIP3    H263180   3.419   2.965   5.562  0.9097  1.4098  0.7017
13897TIP3   OH263181   5.645   1.007   3.576  0.0172  0.7541 -0.3559
13897TIP3    H163182   5.666   0.966   3.659  0.1893 -0.5810 -1.0435
13897TIP3    H263183   5.696   1.088   3.575 -1.4455  1.7386  1.6304
13898TIP3   OH263184   5.530   0.946   6.364  0.2464  0.2639  0.4978
13898TIP3    H163185   5.437   0.934   6.347 -0.0709 -0.1815  2.3899
13898TIP3    H263186   5.533   0.979   6.454  1.7312  3.7226 -0.7533
13899TIP3   OH263187   2.349   5.572   4.314  0.7033 -0.5073  0.4619
13899TIP3    H163188   2.410   5.557   4.243  0.2250  1.5729 -0.4506
13899TIP3    H263189   2.349   5.667   4.326 -2.9816 -0.3290 -0.1995
13900TIP3   OH263190   5.538   6.577  13.257  0.6653 -0.3574  0.4839
13900TIP3    H163191   5.477   6.560  13.328 -2.1357 -0.9398 -1.9819
13900TIP3    H263192   5.550   6.493  13.213  2.4037 -0.0297  0.2676
13901TIP3   OH263193   2.281   5.388  11.160  0.3934  0.8905 -0.3876
13901TIP3    H163194   2.314   5.304  11.191 -0.4371  0.7892  0.2446
13901TIP3    H263195   2.249   5.369  11.071 -1.5171  0.0722  0.4311
13902TIP3   OH263196   1.281   2.465  13.543  0.0063  0.2198 -0.2039
13902TIP3    H163197   1.293   2.371  13.539 -1.4131 -0.0950  2.1715
13902TIP3    H263198   1.187   2.477  13.557  0.1656  1.9939 -0.4960
13903TIP3   OH263199   6.013   0.830   2.498  0.3239 -0.9515 -0.3200
13903TIP3    H163200   6.002   0.769   2.425 -0.3343 -2.1571  0.7747
13903TIP3    H263201   6.038   0.775   2.572  1.1545  0.2821  0.3483
13904TIP3   OH263202   4.136   3.060   4.780  0.0456  0.5409  0.1305
13904TIP3    H163203   4.112   3.056   4.872 -1.6086  1.8171 -0.2173
13904TIP3    H263204   4.159   3.152   4.765  1.9587  0.0027 -0.3459
13905TIP3   OH263205   2.214   5.200  14.018  0.6848 -0.0390 -0.4028
13905TIP3    H163206   2.119   5.199  14.006  0.7430 -0.6926 -0.8248
13905TIP3    H263207   2.246   5.130  13.962  1.2899 -0.7060  0.7553
13906TIP3   OH263208   3.743   2.750  15.839 -0.0702  0.0907 -0.2150
13906TIP3    H163209   3.802   2.677  15.820 -2.2858 -1.0002 -3.2582
13906TIP3    H263210   3.684   2.717  15.906 -0.7033 -0.7211 -1.1697
13907TIP3   OH263211   1.101   4.122   4.362 -0.0999  0.3472  0.2342
13907TIP3    H163212   1.146   4.081   4.288  0.2095 -1.6567  1.4985
13907TIP3    H263213   1.046   4.189   4.322  0.1767 -0.5943 -1.8008
13908TIP3   OH263214   2.819   1.857  16.708  0.0723 -0.0045  0.1852
13908TIP3    H163215   2.883   1.871  16.777 -0.2731  0.0678  0.4911
13908TIP3    H263216   2.794   1.765  16.716  0.3723 -0.1155 -0.1361
13909TIP3   OH263217   4.556   3.057   1.674  0.1174 -0.6691  0.3067
13909TIP3    H163218   4.606   3.137   1.657  0.1695 -0.5898  0.8330
13909TIP3    H263219   4.505   3.043   1.594 -3.0063  2.1732  1.6935
13910TIP3   OH263220   3.909   4.156  11.309 -0.2297 -0.5021 -0.5273
13910TIP3    H163221   3.959   4.133  11.230 -0.5905  1.0001 -1.2008
13910TIP3    H263222   3.963   4.221  11.354  1.1022 -3.0568  1.7379
13911TIP3   OH263223   5.906   0.500  15.245  0.1469  0.0741 -0.1557
13911TIP3    H163224   5.972   0.448  15.290 -0.4935  1.8510  2.9955
13911TIP3    H263225   5.829   0.443  15.242 -0.2322  0.4061  2.3387
13912TIP3   OH263226   0.461   5.313   1.102  0.1254  0.7873 -0.4936
13912TIP3    H163227   0.453   5.282   1.012  0.3502  2.1503 -0.9921
13912TIP3    H263228   0.550   5.348   1.108 -0.0654  1.1835  0.1099
13913TIP3   OH263229   0.054   2.602   5.468 -0.1129  0.2588  0.3668
13913TIP3    H163230   0.112   2.668   5.432 -1.0977 -0.5997 -3.0079
13913TIP3    H263231   0.109   2.525   5.480 -0.0419  0.1507 -0.6145
13914TIP3   OH263232   2.030   2.760   5.374  0.2436  0.0243  0.0252
13914TIP3    H163233   2.008   2.711   5.453 -2.4806  0.0381 -0.6707
13914TIP3    H263234   2.116   2.796   5.392 -0.4367  0.2820  3.1365
13915TIP3   OH263235   2.282   5.543  13.796  0.3187 -0.8283  0.2370
13915TIP3    H163236   2.239   5.458  13.787 -0.5226 -0.2366 -1.6308
13915TIP3    H263237   2.210   5.603  13.816  0.9394 -0.5809  1.7818
13916TIP3   OH263238   2.068   3.643   4.598 -0.0187 -0.0922 -0.6127
13916TIP3    H163239   1.996   3.706   4.607  0.8096  0.8022 -0.1657
13916TIP3    H263240   2.042   3.587   4.525 -2.1866 -1.1545  0.9156
13917TIP3   OH263241   3.508   6.766   2.522 -0.8651  0.2931 -0.4161
13917TIP3    H163242   3.579   6.800   2.468 -0.2301 -0.2433  0.0645
13917TIP3    H263243   3.478   6.841   2.573 -0.6654  0.5294 -0.6432
13918TIP3   OH263244   3.245   1.265  12.269 -0.2843 -0.2281 -0.1699
13918TIP3    H163245   3.322   1.288  12.217 -0.1902  1.1253  0.5346
13918TIP3    H263246   3.171   1.297  12.217 -0.5812 -3.8674 -2.0967
13919TIP3   OH263247   2.966   1.634  12.114  0.3078  0.0751 -0.6889
13919TIP3    H163248   2.994   1.619  12.023 -1.1078 -3.3021 -0.6728
13919TIP3    H263249   2.873   1.655  12.107  0.4809  1.0312 -0.1017
13920TIP3   OH263250   1.882   3.658   4.075  0.1053  0.6085 -0.1205
13920TIP3    H163251   1.964   3.663   4.025 -0.4053  1.2562 -0.8856
13920TIP3    H263252   1.866   3.747   4.104 -0.7896  0.6320 -0.6949
13921TIP3   OH263253   4.830   1.516   0.369  0.3652  0.5445 -0.3716
13921TIP3    H163254   4.834   1.499   0.275  0.8337  0.6837 -0.3792
13921TIP3    H263255   4.794   1.436   0.407  0.2597  0.4563 -0.6617
13922TIP3   OH263256   1.426   6.487   3.890 -0.4182 -0.2548 -0.5028
13922TIP3    H163257   1.361   6.420   3.871  0.8799 -1.9801  1.0626
13922TIP3    H263258   1.510   6.442   3.887  0.4132  1.0714  1.4836
13923TIP3   OH263259   1.496   1.810  12.665  0.1574  0.1421 -0.1019
13923TIP3    H163260   1.488   1.867  12.589  0.6986 -2.2804 -2.0243
13923TIP3    H263261   1.415   1.824  12.714  0.3111  2.5749 -0.4917
13924TIP3   OH263262   5.074   5.269   3.468 -0.2566 -0.3163  0.2989
13924TIP3    H163263   5.132   5.302   3.400 -1.1561  0.2486 -0.2094
13924TIP3    H263264   5.131   5.251   3.542  0.4261  1.2115  0.1682
13925TIP3   OH263265   5.407   3.232  14.114  0.1955 -0.2163 -0.3284
13925TIP3    H163266   5.468   3.243  14.041  0.3525 -0.4483 -0.2321
13925TIP3    H263267   5.392   3.137  14.119  0.7734 -0.2757  0.4239
13926TIP3   OH263268   5.172   2.117   4.008 -0.0910 -0.1225 -0.2925
13926TIP3    H163269   5.262   2.103   4.036  0.4218  0.3395 -1.6697
13926TIP3    H263270   5.126   2.142   4.088  1.2001  0.5808  0.2505
13927TIP3   OH263271   5.077   1.198  11.317 -0.0472 -0.3805  0.1733
13927TIP3    H163272   5.038   1.197  11.405  1.1498  0.4822  0.7396
13927TIP3    H263273   5.163   1.157  11.329  0.2496  0.0275 -0.5452
13928TIP3   OH263274   1.695   6.646   3.312 -0.3918 -0.2586  0.2827
13928TIP3    H163275   1.746   6.712   3.266  0.5677 -1.1759  0.0222
13928TIP3    H263276   1.653   6.694   3.384 -1.1660  0.9879 -0.9887
13929TIP3   OH263277   3.370   6.584   5.188 -0.2582 -0.1910 -0.4757
13929TIP3    H163278   3.414   6.583   5.103 -0.0581 -0.8089 -0.3623
13929TIP3    H263279   3.305   6.654   5.180 -0.2796 -0.2848 -1.1525
13930TIP3   OH263280   6.167   5.779  15.961 -0.3700 -0.0061 -0.2801
13930TIP3    H163281   6.242   5.803  16.016  0.7186 -1.5234 -1.0927
13930TIP3    H263282   6.205   5.745  15.880 -1.9548  1.8642 -1.8757
13931TIP3   OH263283   5.463   6.067  15.850 -0.7628  0.2403  0.1783
13931TIP3    H163284   5.497   6.026  15.930 -0.6621  0.4983  0.2675
13931TIP3    H263285   5.532   6.128  15.823 -1.2600  0.9597  0.5074
13932TIP3   OH263286   3.613   1.523  15.079  0.2941 -0.3549  0.4527
13932TIP3    H163287   3.626   1.520  14.984  1.3195 -1.5450  0.6261
13932TIP3    H263288   3.518   1.530  15.090  0.2132  0.5003 -0.6690
13933TIP3   OH263289   6.308   5.735   1.542 -0.2118  0.0664  0.1727
13933TIP3    H163290   6.245   5.722   1.613 -0.6795  1.5098  0.0321
13933TIP3    H263291   6.389   5.696   1.575 -0.3081  1.0997  1.6789
13934TIP3   OH263292   4.712   6.196   0.441  0.2094  0.0435  0.1185
13934TIP3    H163293   4.656   6.200   0.363 -1.6391 -0.3911  1.3877
13934TIP3    H263294   4.746   6.107   0.442 -1.3089 -0.5560  0.8155
13935TIP3   OH263295   2.239   3.468  11.050 -0.1396 -0.3293 -0.6432
13935TIP3    H163296   2.216   3.409  11.122  3.6629 -1.1744 -0.0319
13935TIP3    H263297   2.260   3.409  10.977  2.0959  0.2645 -0.5106
13936TIP3   OH263298   3.422   2.136  17.041 -0.5292 -0.1292  0.0784
13936TIP3    H163299   3.406   2.088  17.122  0.7333 -0.3419  0.2162
13936TIP3    H263300   3.467   2.216  17.070 -0.5355  0.0371 -0.3678
13937TIP3   OH263301   6.666   5.617  15.354  0.1909 -0.7262  0.2570
13937TIP3    H163302   6.684   5.523  15.344 -0.7830 -0.9268  0.2802
13937TIP3    H263303   6.584   5.620  15.403  0.8055  0.1645  1.2388
13938TIP3   OH263304   0.974   1.420  13.425 -0.3062  0.8668  0.2803
13938TIP3    H163305   1.022   1.462  13.353 -0.7915  1.0227  0.0465
13938TIP3    H263306   0.905   1.482  13.447 -1.8327 -0.3636 -0.9267
13939TIP3   OH263307   4.060   1.420  13.652 -0.3444  0.5319 -0.5333
13939TIP3    H163308   3.983   1.428  13.709  0.7303  0.2480  0.9848
13939TIP3    H263309   4.081   1.327  13.653  0.4467  0.7121 -0.3720
13940TIP3   OH263310   4.284   3.946  12.497 -0.0286 -0.0512  0.6686
13940TIP3    H163311   4.272   3.898  12.415  0.3411  0.7877  0.1151
13940TIP3    H263312   4.314   4.033  12.470  1.7385 -0.2986  1.7413
13941TIP3   OH263313   1.508   4.676  13.162 -0.4452 -0.0792  0.2241
13941TIP3    H163314   1.449   4.617  13.114  0.7076 -2.1856  1.3239
13941TIP3    H263315   1.591   4.669  13.116 -0.1372  0.2047  0.7340
13942TIP3   OH263316   0.215   0.132   3.463  0.3606 -0.3291 -0.2471
13942TIP3    H163317   0.261   0.170   3.538 -0.5880  0.5864 -0.1178
13942TIP3    H263318   0.217   0.038   3.479 -0.3961 -0.1092  1.2774
13943TIP3   OH263319   4.412   6.596  14.553  0.0260 -0.0178  0.2180
13943TIP3    H163320   4.458   6.543  14.486  0.2538  0.1611  0.2324
13943TIP3    H263321   4.477   6.660  14.581  0.0133 -0.2681  0.8107
13944TIP3   OH263322   0.042   3.677  15.717  0.8666 -0.9882 -0.2383
13944TIP3    H163323   0.064   3.743  15.782  2.1225 -0.6232 -1.0173
13944TIP3    H263324  -0.053   3.687  15.702  0.9798  0.3552 -0.0556
13945TIP3   OH263325   2.325   3.899   6.084  0.6651 -0.3639 -0.3506
13945TIP3    H163326   2.313   3.892   5.989  0.3116  2.3819 -0.5494
13945TIP3    H263327   2.288   3.985   6.106 -0.9163 -1.7298  2.5655
13946TIP3   OH263328   0.469   3.442  15.812  0.1582 -0.3201  0.5083
13946TIP3    H163329   0.445   3.504  15.881 -0.4544  0.1371 -0.1222
13946TIP3    H263330   0.389   3.426  15.764  0.3336 -1.5386  0.6027
13947TIP3   OH263331   6.391   6.202  16.297 -0.4324 -0.7091  0.1236
13947TIP3    H163332   6.483   6.215  16.272 -0.8381  0.5621 -0.7518
13947TIP3    H263333   6.394   6.186  16.391  0.3967  2.8538  0.7827
13948TIP3   OH263334   1.597   5.587   3.709 -0.5199  0.1142 -0.4372
13948TIP3    H163335   1.537   5.515   3.730 -0.4533  0.0304 -0.5329
13948TIP3    H263336   1.630   5.616   3.794  0.0330 -0.4676 -0.4533
13949TIP3   OH263337   5.473   1.893   4.680  0.7137 -0.1968  0.5981
13949TIP3    H163338   5.418   1.939   4.616  3.2605 -0.2959 -1.7715
13949TIP3    H263339   5.506   1.962   4.737  0.2406  0.2119  0.3797
13950TIP3   OH263340   2.175   1.859  15.131 -0.4944  0.2501 -0.2353
13950TIP3    H163341   2.106   1.887  15.070  0.1976  1.8958 -0.2784
13950TIP3    H263342   2.250   1.841  15.075 -0.0476  1.1503  0.0753
13951TIP3   OH263343   4.407   1.508   2.009 -0.1305  0.4444 -0.9573
13951TIP3    H163344   4.440   1.456   2.082  0.0149  1.3493 -0.3834
13951TIP3    H263345   4.323   1.468   1.987 -0.8481  1.0681  0.6372
13952TIP3   OH263346   4.696   3.559   0.507  0.3348  0.1728 -0.0260
13952TIP3    H163347   4.710   3.567   0.413 -0.6785 -0.9797 -0.2970
13952TIP3    H263348   4.619   3.613   0.525 -0.2331 -0.6111 -0.0812
13953TIP3   OH263349   2.388   5.246  15.952 -0.3579  0.0542  0.2771
13953TIP3    H163350   2.446   5.317  15.981  0.5916 -0.4527 -0.3548
13953TIP3    H263351   2.336   5.225  16.029  1.1142 -0.2679  1.2085
13954TIP3   OH263352   5.913   0.719  15.426 -0.7486 -0.0921  0.2690
13954TIP3    H163353   5.910   0.636  15.377 -0.5828 -0.1807  0.4077
13954TIP3    H263354   5.988   0.766  15.389 -0.6155 -0.1639  0.4411
13955TIP3   OH263355   5.656   1.764   5.010 -0.1855  0.6206  0.5272
13955TIP3    H163356   5.572   1.728   4.980 -0.5719  0.3263  1.9085
13955TIP3    H263357   5.663   1.849   4.966 -0.7607  0.2287 -0.3262
13956TIP3   OH263358   5.101   0.176   2.170  0.3545 -0.4556  0.1593
13956TIP3    H163359   5.110   0.082   2.186  0.0149 -0.1153  2.4808
13956TIP3    H263360   5.190   0.209   2.169  0.3813 -0.4514  1.6801
13957TIP3   OH263361   5.602   2.829   2.585 -0.7458 -0.1466  0.0940
13957TIP3    H163362   5.518   2.789   2.562 -0.9362  0.3496 -0.0882
13957TIP3    H263363   5.623   2.885   2.510 -0.4737  0.0791  0.3367
13958TIP3   OH263364   5.397   2.948  15.607  0.0493  0.0991 -0.2164
13958TIP3    H163365   5.312   2.964  15.568  0.9267  1.2539 -1.7413
13958TIP3    H263366   5.433   2.874  15.558 -0.9194 -1.7789  1.8402
13959TIP3   OH263367   3.006   1.379  11.670  0.5444 -0.2142 -0.7985
13959TIP3    H163368   3.018   1.394  11.577  0.0636 -1.6924 -1.1016
13959TIP3    H263369   3.091   1.348  11.701 -0.3649 -3.6328 -1.5442
13960TIP3   OH263370   3.920   1.629  12.058  0.0539  0.4574 -0.1590
13960TIP3    H163371   3.832   1.646  12.091  0.0171 -0.4155  0.2043
13960TIP3    H263372   3.925   1.534  12.052  0.9422  0.5099 -0.2678
13961TIP3   OH263373   4.298   1.879   3.657  0.5388  0.0594 -0.3693
13961TIP3    H163374   4.344   1.804   3.620  0.9598  0.8978 -1.5850
13961TIP3    H263375   4.325   1.953   3.603 -0.3302  0.9884  0.4388
13962TIP3   OH263376   5.465   6.683   5.762 -0.0199  0.1217  0.1276
13962TIP3    H163377   5.384   6.641   5.734 -0.6321  2.4517 -1.6763
13962TIP3    H263378   5.438   6.744   5.831  0.4151 -0.0988  0.4993
13963TIP3   OH263379   0.550   2.601  12.374  0.2717 -1.0427  0.3189
13963TIP3    H163380   0.489   2.620  12.304 -0.3379  0.8720  1.3307
13963TIP3    H263381   0.547   2.506  12.384 -0.1144 -1.2673 -1.7776
13964TIP3   OH263382   0.689   5.953   3.897 -0.3328  0.0389  0.3249
13964TIP3    H163383   0.708   5.980   3.987 -1.1498 -0.3385  0.6151
13964TIP3    H263384   0.594   5.945   3.894 -0.2668 -0.5101 -0.4187
13965TIP3   OH263385   0.492   0.185  16.543  0.4665  0.4009  0.3633
13965TIP3    H163386   0.542   0.118  16.590 -0.1379 -0.2518  0.0841
13965TIP3    H263387   0.551   0.214  16.473  1.1429  0.9477  1.1580
13966TIP3   OH263388   1.106   3.466  15.555  0.4471  0.3741 -0.2421
13966TIP3    H163389   1.108   3.553  15.594  0.3559 -0.2518  1.1998
13966TIP3    H263390   1.145   3.409  15.621  0.6495 -0.6645 -1.2286
13967TIP3   OH263391   6.592   3.081  15.154 -0.0160 -0.0630 -0.0906
13967TIP3    H163392   6.559   2.997  15.185  0.7063 -0.2319  0.2367
13967TIP3    H263393   6.572   3.081  15.060 -0.9279 -0.1627  0.0965
13968TIP3   OH263394   1.357   2.187  14.185 -0.3698 -0.5899 -0.1682
13968TIP3    H163395   1.283   2.208  14.241 -1.3985 -0.2212 -1.6324
13968TIP3    H263396   1.372   2.094  14.199  1.0801  0.0056  2.6633
13969TIP3   OH263397   1.573   5.929  11.775  0.7566 -0.1106 -0.4210
13969TIP3    H163398   1.624   6.000  11.813  0.0823  0.8816 -1.3554
13969TIP3    H263399   1.585   5.938  11.681  2.2774 -2.4452 -0.5066
13970TIP3   OH263400   3.586   4.395   2.882  0.7232 -0.2733 -0.2833
13970TIP3    H163401   3.499   4.417   2.849  0.9546 -0.7158 -1.2068
13970TIP3    H263402   3.576   4.393   2.977 -0.1897  0.0330 -0.3709
13971TIP3   OH263403   0.883   4.853   5.396  0.0938 -0.1889  0.6124
13971TIP3    H163404   0.971   4.885   5.373 -0.1084 -0.3359 -0.4106
13971TIP3    H263405   0.899   4.771   5.443  0.4962 -0.6690 -0.3294
13972TIP3   OH263406   4.315   5.105   2.394  0.3695 -0.4464  0.0893
13972TIP3    H163407   4.284   5.195   2.408 -0.7870 -0.5892 -1.3668
13972TIP3    H263408   4.253   5.051   2.443 -0.8953 -0.6350 -1.6468
13973TIP3   OH263409   6.264   3.830   5.269  0.0860 -0.3354 -0.4585
13973TIP3    H163410   6.295   3.739   5.272 -0.6070 -0.6493 -1.9870
13973TIP3    H263411   6.291   3.862   5.183  0.8415  1.1189  0.2956
13974TIP3   OH263412   1.259   4.119   6.406 -0.1829 -0.0150 -1.0405
13974TIP3    H163413   1.195   4.153   6.468  1.4967  1.6505 -0.1574
13974TIP3    H263414   1.221   4.136   6.320 -1.8023 -0.8691 -0.5238
13975TIP3   OH263415   3.095   6.117   3.071 -0.0418  0.0349  0.2759
13975TIP3    H163416   3.045   6.083   2.997 -0.2584  1.3604 -0.1992
13975TIP3    H263417   3.077   6.211   3.071  2.9741  0.6456 -0.2696
13976TIP3   OH263418   0.518   0.030   2.816 -0.6740 -0.6058  0.3936
13976TIP3    H163419   0.610   0.038   2.843 -0.8000  1.4542  0.2211
13976TIP3    H263420   0.490   0.119   2.799 -1.9785 -1.4517 -2.0599
13977TIP3   OH263421   6.716   5.248  10.947 -0.2540  0.7466 -0.1528
13977TIP3    H163422   6.646   5.184  10.936  0.6261 -0.4545  1.0691
13977TIP3    H263423   6.746   5.267  10.858 -0.7280 -0.3265 -0.5460
13978TIP3   OH263424   0.925   0.174   4.496 -0.0588  0.3464 -0.5518
13978TIP3    H163425   0.948   0.195   4.406  1.1446 -0.6013 -0.4746
13978TIP3    H263426   0.945   0.081   4.505 -3.0038 -0.2948 -0.1767
13979TIP3   OH263427   6.700   5.014   4.223  0.0633  0.8408 -0.2380
13979TIP3    H163428   6.733   4.968   4.299  1.1311  0.3326 -0.9949
13979TIP3    H263429   6.634   4.956   4.186 -0.1607  0.9048  0.0620
13980TIP3   OH263430   4.553   2.597  12.286 -0.5022 -0.0584 -0.0106
13980TIP3    H163431   4.458   2.586  12.291 -0.5600  0.0952 -0.7892
13980TIP3    H263432   4.586   2.548  12.362 -1.2283  0.2790  0.5355
13981TIP3   OH263433   0.263   1.670   1.143  0.5100 -0.0695  0.6442
13981TIP3    H163434   0.286   1.722   1.220 -2.0366  0.2366  1.2293
13981TIP3    H263435   0.188   1.715   1.104  2.9741  0.9437 -3.2538
13982TIP3   OH263436   6.067   5.878  15.629 -0.3709 -0.1610  0.0754
13982TIP3    H163437   6.154   5.852  15.601 -0.1324 -0.4395  1.0391
13982TIP3    H263438   6.009   5.849  15.559  0.3664  0.4905 -0.8114
13983TIP3   OH263439   5.661   6.615  16.808  0.8931  0.5588 -0.1259
13983TIP3    H163440   5.590   6.556  16.835  0.7457  0.9475  0.3306
13983TIP3    H263441   5.727   6.556  16.770  0.6133  0.1285  0.0468
13984TIP3   OH263442   2.470   3.184  12.663  0.6044 -0.3040 -0.0688
13984TIP3    H163443   2.409   3.166  12.592  0.6007 -1.2700  0.1752
13984TIP3    H263444   2.496   3.098  12.696  1.7691  0.1074  0.1182
13985TIP3   OH263445   0.089   5.759  15.510 -0.7265  0.1213 -0.4804
13985TIP3    H163446   0.032   5.834  15.528 -0.3055 -0.1346  2.1658
13985TIP3    H263447   0.031   5.683  15.517 -0.1180 -0.1441  2.2711
13986TIP3   OH263448   5.790   0.704   1.030 -0.5006 -0.8324 -0.5227
13986TIP3    H163449   5.758   0.750   0.952  1.1944  0.0311 -0.7439
13986TIP3    H263450   5.747   0.747   1.103 -2.7573 -2.1922 -0.9957
13987TIP3   OH263451   1.339   4.895   4.880  0.4771 -0.6859  0.3411
13987TIP3    H163452   1.380   4.957   4.820  0.0517 -0.2708  0.4818
13987TIP3    H263453   1.382   4.811   4.860  0.4395 -0.5236 -0.4410
13988TIP3   OH263454   1.840   1.587  11.408 -0.4067  0.1619 -0.1327
13988TIP3    H163455   1.885   1.542  11.337  0.9574  0.2302  0.6701
13988TIP3    H263456   1.866   1.538  11.487 -2.0858 -0.0624  0.2988
13989TIP3   OH263457   0.512   3.711   4.280 -0.3016  0.2787  0.0795
13989TIP3    H163458   0.599   3.675   4.296 -0.2308  0.1844 -0.4872
13989TIP3    H263459   0.488   3.754   4.361 -0.5096 -1.2992  0.8872
13990TIP3   OH263460   5.110   1.745   2.826  0.2090 -0.0958  0.2601
13990TIP3    H163461   5.064   1.786   2.899  1.2366  0.6645  0.4924
13990TIP3    H263462   5.041   1.721   2.765 -0.4319  2.1060  0.0620
13991TIP3   OH263463   1.960   6.652   2.789 -0.1829  1.2402  0.8235
13991TIP3    H163464   1.883   6.613   2.832  0.1072  1.7618  1.8480
13991TIP3    H263465   1.965   6.609   2.704 -1.0656  0.5287  1.1234
13992TIP3   OH263466   4.136   5.047  14.467  0.1071  0.6164  0.6157
13992TIP3    H163467   4.224   5.083  14.450  0.8623 -1.4816 -0.0091
13992TIP3    H263468   4.152   4.975  14.529 -1.2789  0.7129  1.0923
13993TIP3   OH263469   5.106   0.728  14.688  0.0197 -0.3719 -0.5115
13993TIP3    H163470   5.093   0.758  14.778 -0.3560 -0.8933 -0.3901
13993TIP3    H263471   5.088   0.805  14.634  2.7285  0.6602 -0.0348
13994TIP3   OH263472   6.102   0.722  15.031 -0.4807 -0.5958 -0.2363
13994TIP3    H163473   6.036   0.779  15.071  0.3218  0.0738  0.1710
13994TIP3    H263474   6.091   0.734  14.937  0.5510  1.2861 -0.1459
13995TIP3   OH263475   1.762   2.548   3.563  0.4378 -0.1135 -0.3996
13995TIP3    H163476   1.807   2.467   3.588  0.1788  0.2671  1.3696
13995TIP3    H263477   1.674   2.521   3.539  0.8366 -0.5487 -1.4013
13996TIP3   OH263478   0.832   2.922  11.924 -0.2017 -0.1123  0.4708
13996TIP3    H163479   0.842   3.009  11.962  0.5665  0.0660 -0.1168
13996TIP3    H263480   0.747   2.923  11.881  0.0979  0.5727 -0.1090
13997TIP3   OH263481   2.992   2.743   6.083 -0.8313  0.3977 -0.5036
13997TIP3    H163482   3.034   2.829   6.083 -0.8131  0.4060 -2.3081
13997TIP3    H263483   2.899   2.762   6.101 -0.4179  0.5286  1.7086
13998TIP3   OH263484   3.575   2.179   2.616  0.0679 -0.5073  0.4876
13998TIP3    H163485   3.511   2.146   2.553 -0.0314  1.3461 -0.4226
13998TIP3    H263486   3.559   2.273   2.620  2.1864 -0.1246  0.8699
13999TIP3   OH263487   2.128   6.181   5.075 -0.0906  0.2746  0.0379
13999TIP3    H163488   2.176   6.248   5.124 -0.7911  1.2557 -0.6075
13999TIP3    H263489   2.055   6.228   5.035 -0.5436 -0.8633 -0.4869
14000TIP3   OH263490   3.219   2.906  13.727  0.8317 -0.4196  0.1869
14000TIP3    H163491   3.187   2.996  13.721 -0.3891 -0.7839  1.0260
14000TIP3    H263492   3.155   2.861  13.782  2.2290 -1.4473  1.0141
14001TIP3   OH263493   6.763   6.209  12.457  0.1569 -0.0861 -0.9271
14001TIP3    H163494   6.701   6.197  12.528 -0.8813 -0.2781 -1.8621
14001TIP3    H263495   6.739   6.144  12.391  0.3945  0.8293 -1.9457
14002TIP3   OH263496   4.919   3.841  16.212  0.1245  0.1882  0.6286
14002TIP3    H163497   4.833   3.844  16.172  0.7666 -0.9019 -0.8484
14002TIP3    H263498   4.940   3.748  16.219  0.5309  0.3975  2.3946
14003TIP3   OH263499   4.370   2.508  16.353 -0.2187 -0.3413  0.0918
14003TIP3    H163500   4.287   2.502  16.307 -0.1625 -1.2438  0.1054
14003TIP3    H263501   4.396   2.600  16.343 -0.4629 -0.4091 -1.2097
14004TIP3   OH263502   1.610   2.452   2.935  0.0788  0.1693  0.7567
14004TIP3    H163503   1.704   2.440   2.950  0.0670 -0.3506  0.4012
14004TIP3    H263504   1.589   2.535   2.980  0.9392  0.9009 -0.1859
14005TIP3   OH263505   4.801   5.169   4.098  0.2710 -0.3671  0.6693
14005TIP3    H163506   4.844   5.118   4.167 -1.4391  0.4531  2.3611
14005TIP3    H263507   4.783   5.105   4.029  0.0535 -1.6464  1.8807
14006TIP3   OH263508   1.812   3.253   2.948  0.1010  0.1374 -0.5731
14006TIP3    H163509   1.828   3.161   2.923  0.9564 -0.2445  1.2760
14006TIP3    H263510   1.806   3.299   2.864  0.8421 -1.4198 -1.5268
14007TIP3   OH263511   2.219   1.356  13.869 -0.2184 -0.1428 -0.3355
14007TIP3    H163512   2.203   1.365  13.963  2.6768  0.5179  0.1489
14007TIP3    H263513   2.257   1.268  13.860  2.1943  0.8540 -0.4182
14008TIP3   OH263514   3.080   6.251   0.589 -0.3254 -0.2664  0.0374
14008TIP3    H163515   3.095   6.342   0.616 -1.3125 -0.2595  0.5557
14008TIP3    H263516   3.029   6.258   0.508  0.9180 -0.3375 -0.7756
14009TIP3   OH263517   5.109   2.869   3.989  0.0938 -0.2357 -0.4199
14009TIP3    H163518   5.044   2.894   4.055 -0.2085  0.8570 -1.1334
14009TIP3    H263519   5.173   2.817   4.038 -1.4251 -1.5473  0.2458
14010TIP3   OH263520   0.960   6.451   4.173  0.0483 -1.1539 -0.4347
14010TIP3    H163521   0.915   6.391   4.232  0.2074 -2.6388 -1.8137
14010TIP3    H263522   0.890   6.497   4.127 -0.1269 -3.9319 -3.0557
14011TIP3   OH263523   6.696   5.694   1.058  0.2743  0.4742  0.6267
14011TIP3    H163524   6.687   5.690   1.153 -1.3255 -2.3428  0.4206
14011TIP3    H263525   6.606   5.699   1.025  0.6907 -0.7429 -0.7829
14012TIP3   OH263526   3.835   1.419   2.854 -0.3737 -0.5663  0.4851
14012TIP3    H163527   3.751   1.397   2.893  0.2954 -1.3675  1.5129
14012TIP3    H263528   3.862   1.339   2.808 -0.8428  0.1559 -1.0761
14013TIP3   OH263529   6.233   1.122   6.079 -0.6859 -0.2862  0.1910
14013TIP3    H163530   6.311   1.174   6.100 -1.7411  1.2936  0.3348
14013TIP3    H263531   6.165   1.188   6.062 -2.3441 -1.6409  1.4093
14014TIP3   OH263532   6.026   0.649   1.540  0.0318  0.5683 -0.8683
14014TIP3    H163533   6.109   0.692   1.519 -0.3706  0.9242 -1.7570
14014TIP3    H263534   5.996   0.614   1.457  0.3916 -1.5436 -0.1508
14015TIP3   OH263535   2.410   0.925  13.981 -0.7160 -0.2884 -0.2396
14015TIP3    H163536   2.351   0.903  13.909 -0.2372  0.7309 -0.9590
14015TIP3    H263537   2.404   1.021  13.987  1.6041 -0.0761 -0.9753
14016TIP3   OH263538   1.382   1.774  14.042 -0.2477 -0.1708  0.3035
14016TIP3    H163539   1.407   1.682  14.043 -0.8658 -0.3382  0.5216
14016TIP3    H263540   1.292   1.775  14.074  0.3692  0.6954  2.0789
14017TIP3   OH263541   1.176   0.233   4.740  0.1275  0.3101  0.6376
14017TIP3    H163542   1.197   0.170   4.670 -1.9198  1.7158 -1.3092
14017TIP3    H263543   1.109   0.188   4.792  0.7890 -0.2646  1.0087
14018TIP3   OH263544   4.840   4.676   0.464  0.0738  0.0193 -0.3331
14018TIP3    H163545   4.896   4.639   0.532  0.6869 -1.0385 -1.3790
14018TIP3    H263546   4.764   4.710   0.511  1.4504  1.2102  1.0771
14019TIP3   OH263547   3.807   3.701  11.314 -0.4247 -0.3066  0.2413
14019TIP3    H163548   3.726   3.656  11.337  0.2736 -1.0823  1.2399
14019TIP3    H263549   3.787   3.794  11.324 -1.7359 -0.3786 -1.3635
14020TIP3   OH263550   6.690   6.038   4.021 -0.1909 -0.1011 -0.1229
14020TIP3    H163551   6.777   6.054   3.985  0.0341 -1.5875 -0.2751
14020TIP3    H263552   6.683   5.942   4.026 -2.1960 -0.0245 -1.0384
14021TIP3   OH263553   6.498   5.142  14.412  0.5931 -0.5213 -0.4381
14021TIP3    H163554   6.438   5.129  14.339 -0.2663  0.2374  0.1276
14021TIP3    H263555   6.463   5.088  14.482  0.8117 -0.4197 -0.2475
14022TIP3   OH263556   5.987   0.162  15.610 -0.1784 -0.2589  0.1519
14022TIP3    H163557   5.954   0.145  15.521  0.8204  0.7816 -0.4361
14022TIP3    H263558   5.915   0.139  15.667 -1.6578  1.2437 -1.0664
14023TIP3   OH263559   4.116   0.297   3.763 -0.3503  0.0932 -0.3653
14023TIP3    H163560   4.107   0.341   3.847  0.1346 -1.0974  0.3156
14023TIP3    H263561   4.063   0.218   3.770  1.5908 -1.2398 -0.3019
14024TIP3   OH263562   0.141   2.899   0.002  0.0196 -0.0524 -0.1245
14024TIP3    H163563   0.083   2.861   0.068 -2.1307  1.2898 -1.1546
14024TIP3    H263564   0.157   2.827  -0.059  2.7575 -1.5558  2.2560
14025TIP3   OH263565   1.590   6.352  14.119  0.3512  0.3426  0.3003
14025TIP3    H163566   1.528   6.425  14.126  0.5500  0.3776  1.7956
14025TIP3    H263567   1.544   6.277  14.156  1.6133  0.6371  2.5524
14026TIP3   OH263568   6.588   4.225  12.663 -0.0369  0.5721  0.4995
14026TIP3    H163569   6.635   4.293  12.616  1.6734 -1.5057 -0.9042
14026TIP3    H263570   6.644   4.205  12.738  0.5960 -0.8072 -0.3146
14027TIP3   OH263571   5.246   5.575   5.051 -0.1443 -0.3812 -0.2229
14027TIP3    H163572   5.249   5.635   4.976 -2.2370 -1.7840 -1.4584
14027TIP3    H263573   5.279   5.492   5.016  0.3949 -0.6264  0.8523
14028TIP3   OH263574   1.592   5.915   2.749 -0.2701 -0.4287  0.0047
14028TIP3    H163575   1.549   5.832   2.726 -1.1081 -0.5971  2.0859
14028TIP3    H263576   1.590   5.966   2.668 -1.5556 -1.6661 -0.7646
14029TIP3   OH263577   4.252   4.596   3.068 -0.2951 -0.0443 -0.1533
14029TIP3    H163578   4.249   4.682   3.109 -3.1568 -0.4413  0.5997
14029TIP3    H263579   4.273   4.536   3.139  2.9628  0.1147 -0.9155
14030TIP3   OH263580   6.308   4.730  13.178 -0.1892  0.3069 -0.0497
14030TIP3    H163581   6.321   4.798  13.111 -1.1817 -0.5874 -1.1787
14030TIP3    H263582   6.241   4.673  13.141 -0.0192 -0.7843  1.2883
14031TIP3   OH263583   2.622   1.970  13.866  0.0833 -0.1666 -0.1465
14031TIP3    H163584   2.576   1.892  13.898  1.1817 -0.5160  0.6064
14031TIP3    H263585   2.553   2.036  13.857 -0.6713 -0.8682  0.3568
14032TIP3   OH263586   5.808   1.745  15.596 -0.5299  0.0557  0.5674
14032TIP3    H163587   5.730   1.776  15.642 -0.0696  2.6050 -0.3126
14032TIP3    H263588   5.880   1.759  15.657 -0.4771 -0.4189  0.6185
14033TIP3   OH263589   6.296   6.045  16.065 -0.3978  0.4385  0.3672
14033TIP3    H163590   6.253   6.096  15.997  2.0653  0.7477 -1.0357
14033TIP3    H263591   6.322   6.110  16.131 -1.0258  0.4161  0.6343
14034TIP3   OH263592   1.416   0.940  12.351 -0.4371  0.1667 -0.4496
14034TIP3    H163593   1.456   0.899  12.273  0.1630  1.5701 -0.8858
14034TIP3    H263594   1.488   0.986  12.394 -1.3473  1.8108 -0.6465
14035TIP3   OH263595   0.428   5.039   4.592  0.5630  0.2103  0.1648
14035TIP3    H163596   0.506   5.013   4.641  0.8642  0.5089 -0.1628
14035TIP3    H263597   0.424   5.134   4.601 -0.0253  0.1475  0.5788
14036TIP3   OH263598   4.850   2.674   2.033 -0.5451  0.3343 -0.1168
14036TIP3    H163599   4.934   2.660   1.989 -0.3676  0.0124  0.3241
14036TIP3    H263600   4.869   2.740   2.100 -0.6322  0.2283  0.0135
14037TIP3   OH263601   5.284   4.240   5.228  0.0425  0.1886 -0.6163
14037TIP3    H163602   5.255   4.231   5.137 -1.3964 -0.9518 -0.0702
14037TIP3    H263603   5.321   4.154   5.250 -1.1847 -0.1073  0.3827
14038TIP3   OH263604   1.307   0.268   2.250 -0.6323  0.1007  0.6354
14038TIP3    H163605   1.301   0.307   2.163 -1.1636 -2.6837 -0.6057
14038TIP3    H263606   1.283   0.176   2.238  5.5319 -1.9928  2.5678
14039TIP3   OH263607   2.693   0.499  16.499 -0.1126 -0.0943 -0.2658
14039TIP3    H163608   2.606   0.516  16.462 -0.1865  0.1575  0.0211
14039TIP3    H263609   2.710   0.574  16.556 -0.9826 -1.5815  2.0329
14040TIP3   OH263610   5.411   1.613  11.030 -0.0629  0.1832  0.3092
14040TIP3    H163611   5.319   1.586  11.023  0.4107 -1.7728  1.3131
14040TIP3    H263612   5.458   1.553  10.973  0.5155  1.7863 -0.9433
14041TIP3   OH263613   6.464   2.897   1.600  0.1446  0.4712  0.4114
14041TIP3    H163614   6.444   2.822   1.657 -0.6291 -1.5793 -2.4510
14041TIP3    H263615   6.555   2.919   1.621  0.3588 -1.2292  1.3575
14042TIP3   OH263616   4.099   3.905  15.115 -0.5704  0.2100 -0.3724
14042TIP3    H163617   4.131   3.884  15.027 -1.3758 -0.5495 -0.4993
14042TIP3    H263618   4.076   3.997  15.110  1.1376  0.6422 -0.4134
14043TIP3   OH263619   3.531   4.143   4.148  0.1381 -0.1358 -0.1803
14043TIP3    H163620   3.581   4.184   4.219  0.2662  0.2523 -0.4939
14043TIP3    H263621   3.491   4.216   4.101 -0.4783 -0.4341 -0.1138
14044TIP3   OH263622   4.433   1.369   3.239 -0.4523  0.3659 -0.2205
14044TIP3    H163623   4.503   1.383   3.303 -1.4160 -1.3326  1.2603
14044TIP3    H263624   4.391   1.455   3.230  1.1645  1.1547 -0.3406
14045TIP3   OH263625   6.302   3.678  11.582 -0.1686  0.0306 -0.0673
14045TIP3    H163626   6.351   3.755  11.553  1.1454 -0.4740  0.7605
14045TIP3    H263627   6.253   3.651  11.505 -0.7374  1.7595 -0.3358
14046TIP3   OH263628   5.075   3.081   3.432 -0.2922  0.8563  0.3185
14046TIP3    H163629   5.025   3.072   3.351  0.0253  1.1971  0.0873
14046TIP3    H263630   5.163   3.052   3.410  0.0419  1.9125  0.2865
14047TIP3   OH263631   4.044   3.397   5.152  0.4790  0.1384  0.2521
14047TIP3    H163632   3.962   3.395   5.202  0.2956  0.0390 -0.0541
14047TIP3    H263633   4.083   3.482   5.174 -1.2061  1.5451 -2.0082
14048TIP3   OH263634   1.717   4.356   3.850 -0.0662 -0.9097  0.0484
14048TIP3    H163635   1.727   4.379   3.758 -1.8620  0.1825  0.0982
14048TIP3    H263636   1.629   4.319   3.856 -0.0935 -0.6537  1.3666
14049TIP3   OH263637   2.026   1.617  14.874 -0.3908 -0.0497 -0.0304
14049TIP3    H163638   2.116   1.621  14.841 -0.7583 -1.7614 -1.2679
14049TIP3    H263639   2.001   1.709  14.887  1.5669  0.4464  0.4589
14050TIP3   OH263640   6.653   2.587  12.034  0.1215  0.5912 -0.0127
14050TIP3    H163641   6.669   2.624  11.947 -0.6053 -0.6972 -0.6968
14050TIP3    H263642   6.606   2.656  12.081  3.5413  2.7050  0.5599
14051TIP3   OH263643   6.260   1.191  11.668  0.2757  0.1666 -0.3445
14051TIP3    H163644   6.259   1.121  11.733 -0.6890  0.4690 -0.0270
14051TIP3    H263645   6.208   1.157  11.595 -0.9900  0.9036  0.1958
14052TIP3   OH263646   0.309   5.144   5.234 -0.1298  0.0828  0.1087
14052TIP3    H163647   0.289   5.237   5.239 -0.0629  0.0478  1.1332
14052TIP3    H263648   0.357   5.125   5.315 -0.9629 -1.0339  0.3561
14053TIP3   OH263649   3.991   5.970  13.000 -0.0108 -0.0237 -0.3416
14053TIP3    H163650   4.014   5.996  13.089  1.3976 -0.4547 -0.5784
14053TIP3    H263651   4.038   5.889  12.985  1.5239  1.1839 -2.2623
14054TIP3   OH263652   6.097   5.372   4.187  0.6092 -0.2778  0.4268
14054TIP3    H163653   6.189   5.396   4.199  0.7527 -1.0218  0.8439
14054TIP3    H263654   6.100   5.288   4.141  0.1324 -0.0792  0.0278
14055TIP3   OH263655   2.867   3.271  12.271 -0.3489 -0.4775  0.0345
14055TIP3    H163656   2.840   3.243  12.183 -0.1643 -1.3519  0.2519
14055TIP3    H263657   2.934   3.208  12.296  1.1910  1.0986 -0.0942
14056TIP3   OH263658   4.834   6.108   4.993  0.2351 -0.1235  0.8204
14056TIP3    H163659   4.776   6.051   5.045  0.2899  0.4337  1.4981
14056TIP3    H263660   4.775   6.162   4.942  0.1878 -1.8399 -1.0016
14057TIP3   OH263661   6.255   0.887  12.235  0.1757  0.0299 -0.0919
14057TIP3    H163662   6.228   0.977  12.252  0.2977  0.0667 -0.0970
14057TIP3    H263663   6.293   0.889  12.148 -0.1940 -0.1066 -0.2600
14058TIP3   OH263664   1.750   2.398  16.794 -0.0562  0.0088  0.3557
14058TIP3    H163665   1.808   2.472  16.809  3.5142 -2.4702 -0.7097
14058TIP3    H263666   1.709   2.417  16.709  1.9600  0.0700 -0.6248
14059TIP3   OH263667   0.898   1.545   0.845  0.2173 -0.0945 -0.0425
14059TIP3    H163668   0.913   1.558   0.751  0.5516 -0.7073 -0.0718
14059TIP3    H263669   0.985   1.533   0.882  0.1905  1.3400  0.5332
14060TIP3   OH263670   2.372   5.513  12.209  0.4094  0.0929  0.0256
14060TIP3    H163671   2.333   5.591  12.248 -0.4868 -0.0581 -0.5629
14060TIP3    H263672   2.308   5.483  12.145  1.8719  0.3382 -1.5829
14061TIP3   OH263673   2.872   5.379  12.442  0.0555  0.7671 -0.0723
14061TIP3    H163674   2.884   5.288  12.470  0.6906  0.5728 -0.9499
14061TIP3    H263675   2.901   5.380  12.350 -0.2303  1.7882 -0.1575
14062TIP3   OH263676   6.568   0.254   2.906  0.3905  0.0135  0.1021
14062TIP3    H163677   6.497   0.201   2.941  1.1622 -1.0651  0.0456
14062TIP3    H263678   6.642   0.193   2.897  1.1580  0.9949 -0.3538
14063TIP3   OH263679   5.739   1.997  16.883 -0.4072 -0.4638  0.1760
14063TIP3    H163680   5.763   1.905  16.897  1.0897 -0.0309  0.4810
14063TIP3    H263681   5.662   1.992  16.826 -0.8305 -1.9268  0.8280
14064TIP3   OH263682   2.304   4.692   6.205  0.3317 -0.0845  0.5141
14064TIP3    H163683   2.358   4.769   6.218 -0.1268  0.1613  1.0004
14064TIP3    H263684   2.319   4.638   6.283  1.9290 -1.2762 -0.5817
14065TIP3   OH263685   3.349   0.907  13.776 -0.4843  0.0831  0.1917
14065TIP3    H163686   3.434   0.906  13.821 -0.8846 -0.2619  0.9404
14065TIP3    H263687   3.317   0.818  13.784 -1.3847  0.4544  0.7925
14066TIP3   OH263688   6.714   3.098   2.537  0.1874 -0.3924 -0.1363
14066TIP3    H163689   6.663   3.094   2.619 -0.2581  1.7876 -0.2646
14066TIP3    H263690   6.691   3.018   2.490 -1.5890 -0.4097  0.7177
14067TIP3   OH263691   4.998   5.514  13.228  0.3305 -0.2972  0.2610
14067TIP3    H163692   5.050   5.592  13.248  0.2836 -0.0107 -0.6734
14067TIP3    H263693   5.003   5.461  13.307 -0.5213  1.1409  1.2975
14068TIP3   OH263694   4.092   4.529   1.085 -0.2255  0.4056  0.5700
14068TIP3    H163695   4.019   4.484   1.043 -0.0579  0.6201  0.0460
14068TIP3    H263696   4.050   4.603   1.130 -0.6116 -0.7401  2.1538
14069TIP3   OH263697   0.280   6.660   6.075  0.0521  0.2971  0.6302
14069TIP3    H163698   0.375   6.653   6.075 -0.0124 -1.5715 -1.9183
14069TIP3    H263699   0.251   6.595   6.138  0.4633  1.6548  2.2551
14070TIP3   OH263700   5.187   0.313  11.439 -0.0223 -0.2953 -0.0126
14070TIP3    H163701   5.113   0.272  11.485  0.0588  0.5746  0.9284
14070TIP3    H263702   5.215   0.383  11.498  1.9630 -1.0118 -0.0707
14071TIP3   OH263703   2.676   0.694  11.338  0.2830  0.2366 -0.1837
14071TIP3    H163704   2.766   0.714  11.313  0.3071  0.2515 -0.0852
14071TIP3    H263705   2.657   0.611  11.294  0.4214  0.1182 -0.0201
14072TIP3   OH263706   6.813   4.976  15.609  0.4604 -0.4669 -0.1950
14072TIP3    H163707   6.809   4.998  15.516 -1.2331  1.6116  0.3396
14072TIP3    H263708   6.903   4.995  15.634  0.4324  0.7966 -0.9914
14073TIP3   OH263709   4.973   4.587   2.211 -0.0207  0.2409  0.0127
14073TIP3    H163710   5.038   4.656   2.198  0.6642 -0.3773  0.1193
14073TIP3    H263711   5.012   4.510   2.169 -0.4704 -0.2564  0.5062
14074TIP3   OH263712   1.587   6.294  15.002  0.3695  0.0034 -0.2496
14074TIP3    H163713   1.680   6.287  15.021 -0.1532 -0.2977  2.4545
14074TIP3    H263714   1.544   6.283  15.088 -2.0836  1.3837 -1.2482
14075TIP3   OH263715   3.073   3.949  14.490  0.0264 -0.0637  0.0751
14075TIP3    H163716   3.003   3.936  14.554 -0.0570  1.7089  0.3820
14075TIP3    H263717   3.033   4.006  14.424  1.0660  0.6672  0.0725
14076TIP3   OH263718   0.445   5.839  14.649 -0.1829 -0.5254  0.2329
14076TIP3    H163719   0.517   5.877  14.700  0.2798 -1.0793 -0.0080
14076TIP3    H263720   0.484   5.764  14.604 -0.5176  0.1240 -1.1557
14077TIP3   OH263721   3.453   4.916   4.315 -0.4380 -0.3494  0.0991
14077TIP3    H163722   3.525   4.904   4.252 -0.1943 -0.4394  0.3906
14077TIP3    H263723   3.400   4.987   4.278 -0.6013 -0.7722 -0.4807
14078TIP3   OH263724   4.287   3.700   0.266 -0.1305  0.3040 -0.4088
14078TIP3    H163725   4.254   3.783   0.301  1.3518  0.0053  1.7996
14078TIP3    H263726   4.382   3.709   0.269  0.0359 -0.5034 -2.5982
14079TIP3   OH263727   3.777   5.950  11.356 -0.4497 -0.2005  0.0981
14079TIP3    H163728   3.738   6.036  11.372  0.3581  0.0663  0.6625
14079TIP3    H263729   3.702   5.893  11.340 -1.1453  0.1561  1.9017
14080TIP3   OH263730   3.200   3.278  14.579  0.6715 -0.1260 -0.2407
14080TIP3    H163731   3.126   3.322  14.621 -0.3902  1.6942 -3.8045
14080TIP3    H263732   3.170   3.188  14.566 -0.4026  0.2465 -0.4144
14081TIP3   OH263733   0.265   4.903   3.344 -0.3979 -0.0011  0.8750
14081TIP3    H163734   0.245   4.852   3.422 -1.2949 -1.2191 -0.1327
14081TIP3    H263735   0.357   4.885   3.326 -0.6768 -1.1571  0.6011
14082TIP3   OH263736   6.253   4.210  13.091  0.6587 -0.1164 -0.7480
14082TIP3    H163737   6.267   4.116  13.096  1.3868  0.0389  0.4894
14082TIP3    H263738   6.247   4.229  12.997  1.3251 -1.2775 -1.0389
14083TIP3   OH263739   5.245   3.547  14.954 -0.1983  0.5328 -0.3568
14083TIP3    H163740   5.181   3.600  14.908 -1.2095 -0.3596 -0.0164
14083TIP3    H263741   5.300   3.610  15.001 -1.2684  1.2871 -0.0893
14084TIP3   OH263742   3.070   6.072  12.334 -0.7103  0.1531 -0.7824
14084TIP3    H163743   3.029   6.126  12.402 -0.3397  0.9913 -1.2205
14084TIP3    H263744   3.016   5.993  12.331 -1.0349  0.3338  0.1278
14085TIP3   OH263745   1.744   1.348  16.034 -0.2499 -0.2138  0.2164
14085TIP3    H163746   1.805   1.360  16.107 -0.3836  1.7210  0.0272
14085TIP3    H263747   1.760   1.422  15.976 -0.6079 -1.3645 -1.4190
14086TIP3   OH263748   5.357   2.004  13.541  0.6362  0.7965  0.3147
14086TIP3    H163749   5.308   2.085  13.556 -2.1872 -0.4511 -1.5899
14086TIP3    H263750   5.356   1.994  13.445  1.5236 -1.1345  0.5002
14087TIP3   OH263751   2.097   1.883   4.988  0.2988  1.0084  0.0047
14087TIP3    H163752   2.127   1.811   5.044  0.9047 -0.7959 -2.5352
14087TIP3    H263753   2.176   1.933   4.969  0.6178 -0.0119 -1.4602
14088TIP3   OH263754   1.106   0.877   0.472 -0.4533 -0.4114  0.1496
14088TIP3    H163755   1.132   0.906   0.559 -3.7919  0.5427  0.9052
14088TIP3    H263756   1.186   0.886   0.419  0.8842  1.7527  2.4228
14089TIP3   OH263757   1.310   6.440  15.391 -0.2369  0.2141  0.2036
14089TIP3    H163758   1.308   6.373  15.460  0.2221 -1.4630 -1.3902
14089TIP3    H263759   1.386   6.494  15.413  1.3391 -1.7318 -0.2587
14090TIP3   OH263760   3.429   2.258  14.836 -0.2506 -0.0339 -0.0761
14090TIP3    H163761   3.513   2.253  14.790  0.1514  3.3022  0.1767
14090TIP3    H263762   3.429   2.181  14.893  2.9099  0.1749  0.3167
14091TIP3   OH263763   1.590   3.282   4.719  0.1089  0.0339 -0.5488
14091TIP3    H163764   1.522   3.233   4.673 -1.7875 -0.0443  2.2833
14091TIP3    H263765   1.613   3.227   4.794  2.1980  0.7785 -0.6160
14092TIP3   OH263766   6.134   6.098  13.857  0.2138 -0.4612 -0.1792
14092TIP3    H163767   6.047   6.123  13.826  0.6867  0.9613 -0.4169
14092TIP3    H263768   6.184   6.180  13.856  1.1891 -1.0242  1.1754
14093TIP3   OH263769   4.051   6.063  14.711  0.7021 -0.4073 -0.4571
14093TIP3    H163770   4.078   6.087  14.799  2.2141 -0.3629 -0.9066
14093TIP3    H263771   4.124   6.011  14.677  1.9184  2.7870 -3.0465
14094TIP3   OH263772   3.012   0.114   4.754 -0.1601 -0.0720 -0.4231
14094TIP3    H163773   2.951   0.072   4.816  1.0081  1.4147  1.8089
14094TIP3    H263774   2.998   0.067   4.672 -1.7087 -2.1847  0.9731
14095TIP3   OH263775   0.754   3.511   2.544 -0.3854  0.7000  0.0976
14095TIP3    H163776   0.661   3.490   2.531 -0.3952  0.8356 -0.0528
14095TIP3    H263777   0.801   3.435   2.512 -0.3332  1.7747 -2.4907
14096TIP3   OH263778   1.679   2.256  16.521  0.4039 -0.3161  0.3187
14096TIP3    H163779   1.607   2.219  16.470 -1.0175  2.9454 -0.1414
14096TIP3    H263780   1.681   2.204  16.601  0.4393 -3.2771 -1.4911
14097TIP3   OH263781   1.816   3.074  17.021  0.1014  0.1947  0.0359
14097TIP3    H163782   1.800   3.152  17.074 -1.0315  1.0359 -1.5037
14097TIP3    H263783   1.908   3.079  16.998  0.2998  0.4806  0.8829
14098TIP3   OH263784   2.221   6.174  11.994 -0.2274 -0.5845 -0.2625
14098TIP3    H163785   2.304   6.135  12.021  0.5562  1.1803 -0.0478
14098TIP3    H263786   2.165   6.166  12.072  0.4110  0.0300  0.2684
14099TIP3   OH263787   2.607   0.047   3.454 -0.1009 -0.2024 -0.0384
14099TIP3    H163788   2.696   0.041   3.487 -0.1925  2.0496  0.7293
14099TIP3    H263789   2.552   0.047   3.532 -0.5640  1.2992 -0.3416
14100TIP3   OH263790   0.788   4.517   6.488 -0.5093 -0.0004 -0.1717
14100TIP3    H163791   0.867   4.533   6.437 -0.7274  1.9459  0.0373
14100TIP3    H263792   0.727   4.586   6.460 -2.3013 -1.7055 -0.6482
14101TIP3   OH263793   1.140   1.667  15.516 -0.0285 -0.2657  0.0671
14101TIP3    H163794   1.204   1.737  15.502 -0.9020  0.8453  1.4295
14101TIP3    H263795   1.087   1.698  15.591 -1.5736 -1.5516 -0.4695
14102TIP3   OH263796   5.079   4.894  16.141  0.0748  0.5603 -0.3089
14102TIP3    H163797   4.989   4.886  16.110  0.3803 -0.5155 -0.9230
14102TIP3    H263798   5.075   4.868  16.233  0.2089 -2.0977 -1.0184
14103TIP3   OH263799   1.353   6.292   4.456  0.6919 -0.8369  0.6675
14103TIP3    H163800   1.280   6.335   4.500  2.2290  0.0445  2.4241
14103TIP3    H263801   1.393   6.237   4.525  1.1750 -1.9641 -0.4897
14104TIP3   OH263802   1.264   1.560  17.254 -0.2178 -1.0673 -0.1353
14104TIP3    H163803   1.235   1.534  17.341  1.1717 -3.7485 -0.4127
14104TIP3    H263804   1.359   1.552  17.256  0.1878  2.7228 -0.7418
14105TIP3   OH263805   5.902   6.174  14.573 -0.5694  0.0665  0.0933
14105TIP3    H163806   5.987   6.134  14.553 -1.3797 -2.4395  1.4047
14105TIP3    H263807   5.883   6.229  14.497  2.0671  0.3909 -0.3626
14106TIP3   OH263808   0.792   1.483  17.036  0.1780  0.7188 -0.0419
14106TIP3    H163809   0.869   1.488  16.980  1.7725 -0.6600  1.9238
14106TIP3    H263810   0.825   1.446  17.118 -1.9994  2.9699  1.9290
14107TIP3   OH263811   6.182   6.169   2.005 -0.1537 -0.3843  1.0351
14107TIP3    H163812   6.268   6.173   2.048  0.5491  1.3298 -0.4385
14107TIP3    H263813   6.193   6.105   1.935 -0.2800 -0.6628  1.2690
14108TIP3   OH263814   6.592   4.174  14.973  0.1262 -0.8075  0.2252
14108TIP3    H163815   6.641   4.188  15.054  0.9789 -0.9623 -0.2518
14108TIP3    H263816   6.659   4.145  14.910 -0.6712 -1.5120 -0.2993
14109TIP3   OH263817   4.870   1.562  12.013 -0.0843 -0.0367 -0.1203
14109TIP3    H163818   4.926   1.633  11.982 -0.0960 -0.1809 -0.4736
14109TIP3    H263819   4.783   1.601  12.019 -0.0557  0.0294 -0.1280
14110TIP3   OH263820   6.633   5.904  14.460 -0.4690  0.1891 -0.3958
14110TIP3    H163821   6.551   5.873  14.499  0.8877 -0.0040  2.3578
14110TIP3    H263822   6.629   5.999  14.466 -0.3619  0.1688 -0.0502
14111TIP3   OH263823   6.787   1.167   2.872 -0.3393 -0.4615  0.0794
14111TIP3    H163824   6.695   1.141   2.867 -0.1912 -1.2701  1.2017
14111TIP3    H263825   6.808   1.201   2.785 -1.5078 -0.9218 -0.3875
14112TIP3   OH263826   0.323   0.030  15.055 -0.0183 -0.1315  0.0968
14112TIP3    H163827   0.235   0.050  15.023  0.0074  2.2296  1.3259
14112TIP3    H263828   0.371   0.112  15.046  1.4625 -0.8251  1.3197
14113TIP3   OH263829   2.696   4.769  12.891  0.3011  0.1433 -0.1549
14113TIP3    H163830   2.675   4.769  12.798  0.6693 -0.2519 -0.2394
14113TIP3    H263831   2.779   4.816  12.897  1.5240 -1.9239 -0.3216
14114TIP3   OH263832   4.886   2.066   3.712 -0.1906 -0.2465 -0.3554
14114TIP3    H163833   4.823   2.005   3.749 -0.1874  0.4265  0.7959
14114TIP3    H263834   4.971   2.039   3.749  0.5401 -2.3573 -3.4148
14115TIP3   OH263835   3.496   2.709  10.752  0.2505  0.4192 -0.0324
14115TIP3    H163836   3.541   2.656  10.685  0.3086  0.5178 -0.0702
14115TIP3    H263837   3.417   2.739  10.709 -0.4288 -0.7135  0.4027
14116TIP3   OH263838   6.507   5.684  14.540  0.3027 -0.0334  0.8769
14116TIP3    H163839   6.582   5.708  14.595  0.6160 -1.7131  1.2042
14116TIP3    H263840   6.431   5.692  14.599  0.2868  1.0653  0.7160
14117TIP3   OH263841   6.246   3.177  16.688 -0.4402 -0.1416  0.1341
14117TIP3    H163842   6.250   3.263  16.730  0.5389 -0.0354 -0.1624
14117TIP3    H263843   6.194   3.191  16.609 -0.0732  0.2404 -0.0435
14118TIP3   OH263844   2.842   1.927   3.351 -0.3478 -0.2481 -0.1320
14118TIP3    H163845   2.763   1.926   3.405  0.8854 -2.0507  1.7186
14118TIP3    H263846   2.836   1.848   3.297  0.3680 -0.6082  0.3073
14119TIP3   OH263847   4.551   3.633  12.793 -0.1603 -0.2445  0.2760
14119TIP3    H163848   4.471   3.645  12.742 -0.8583  0.0122  1.4044
14119TIP3    H263849   4.608   3.705  12.766 -0.2441 -0.5255 -0.6551
14120TIP3   OH263850   5.695   2.191  10.894  0.0733  0.4236  0.4097
14120TIP3    H163851   5.601   2.200  10.908 -0.0070  0.9612 -0.4420
14120TIP3    H263852   5.710   2.229  10.808  1.1776  0.9945  0.8438
14121TIP3   OH263853   0.545   4.884  16.360  0.4291 -0.2868  0.0230
14121TIP3    H163854   0.484   4.854  16.427  2.2963 -0.3658  1.7540
14121TIP3    H263855   0.563   4.806  16.307 -0.4134 -0.4276 -0.0638
14122TIP3   OH263856   3.076   6.276   2.163  0.2240 -0.2619 -0.4946
14122TIP3    H163857   3.108   6.360   2.196 -1.5818  0.3192 -0.1690
14122TIP3    H263858   3.045   6.295   2.074 -0.6882 -0.4575 -0.2219
14123TIP3   OH263859   5.682   3.618  13.319 -0.2595  0.0769  0.4481
14123TIP3    H163860   5.675   3.607  13.224  0.4531 -0.9081  0.5086
14123TIP3    H263861   5.773   3.642  13.334 -0.0721 -0.9723  0.9984
14124TIP3   OH263862   4.387   3.928   4.433 -0.3361  0.4552 -0.0506
14124TIP3    H163863   4.385   3.931   4.529 -0.9028 -2.0506  0.0584
14124TIP3    H263864   4.441   4.003   4.408 -1.2592  1.9303  2.1591
14125TIP3   OH263865   3.990   3.062  16.145  0.0339  0.6551 -0.6168
14125TIP3    H163866   4.031   2.984  16.182 -0.5105  1.2064  1.2069
14125TIP3    H263867   3.931   3.029  16.078 -0.5398 -0.5607  0.4518
14126TIP3   OH263868   5.224   2.430  17.020  0.9617 -0.2323  0.0147
14126TIP3    H163869   5.233   2.481  17.100  1.8858  0.2955 -0.4294
14126TIP3    H263870   5.129   2.423  17.007  0.8318  1.3381  0.0882
14127TIP3   OH263871   6.036   4.226  13.250 -0.2050 -0.4056  0.0955
14127TIP3    H163872   6.018   4.294  13.316 -1.7409  1.7541 -2.4858
14127TIP3    H263873   6.121   4.251  13.213 -0.0923 -0.7269  0.1332
14128TIP3   OH263874   6.252   1.583   5.704 -0.2618  0.0866  0.4070
14128TIP3    H163875   6.176   1.527   5.692 -0.5521  0.5992 -0.1514
14128TIP3    H263876   6.219   1.672   5.691  0.8403  0.1900 -1.8921
14129TIP3   OH263877   0.975   4.932  13.223  0.0167 -0.1268 -0.2741
14129TIP3    H163878   0.905   4.869  13.203  0.9553 -1.0147 -0.8508
14129TIP3    H263879   1.051   4.896  13.178  0.5082  1.5872 -0.8277
14130TIP3   OH263880   0.690   1.920  15.218 -0.0192 -0.7007  0.4098
14130TIP3    H163881   0.682   1.851  15.152 -0.4944 -1.2810  1.0729
14130TIP3    H263882   0.602   1.930  15.254  0.5668 -1.6055  2.1666
14131TIP3   OH263883   6.096   2.250  12.847  0.8588 -0.1966 -0.0996
14131TIP3    H163884   6.129   2.172  12.891  1.5180 -0.1772 -0.5522
14131TIP3    H263885   6.165   2.316  12.859  0.0705  0.4797  0.7450
14132TIP3   OH263886   0.085   2.814   2.394  0.6551  0.1690 -0.1338
14132TIP3    H163887   0.132   2.889   2.430 -0.8587  1.0586  0.0756
14132TIP3    H263888   0.078   2.752   2.467 -0.8032  1.1787  0.6145
14133TIP3   OH263889   1.197   2.514  14.848 -0.0329  0.0919  0.0366
14133TIP3    H163890   1.168   2.455  14.918  1.9168  0.1329  0.9068
14133TIP3    H263891   1.271   2.468  14.808 -0.2548  0.7108 -1.0990
14134TIP3   OH263892   6.314   5.536   1.228 -0.3326  0.4334 -0.3108
14134TIP3    H163893   6.232   5.542   1.277 -0.2637  0.9624 -0.2615
14134TIP3    H263894   6.365   5.468   1.274 -0.3354  0.8119  0.2486
14135TIP3   OH263895   5.583   2.687   3.966  0.1880  0.2608 -0.5033
14135TIP3    H163896   5.561   2.716   4.054  2.2007 -2.4419  0.9520
14135TIP3    H263897   5.657   2.743   3.940 -1.1161  1.8044 -0.9628
14136TIP3   OH263898   0.192   0.284  14.627 -0.0012  0.5394  0.0086
14136TIP3    H163899   0.142   0.363  14.607 -0.4463  0.3973  0.5562
14136TIP3    H263900   0.261   0.314  14.687 -1.3036  0.1921  1.7267
14137TIP3   OH263901   4.271   2.438  16.854 -0.3488  0.0192 -0.1522
14137TIP3    H163902   4.316   2.491  16.788 -0.8299  0.8704  0.2027
14137TIP3    H263903   4.342   2.405  16.909  0.0023 -0.1904 -0.7231
14138TIP3   OH263904   2.089   5.286   0.080  0.6978 -0.2835  0.4801
14138TIP3    H163905   2.174   5.328   0.098  0.8739 -1.2818  2.0395
14138TIP3    H263906   2.026   5.358   0.081  1.1612  0.1021  1.9760
14139TIP3   OH263907   6.695   0.679  13.552 -0.6441 -1.0437 -0.1446
14139TIP3    H163908   6.663   0.733  13.479 -0.0459 -0.1344  0.2520
14139TIP3    H263909   6.766   0.628  13.514 -0.7760 -1.0634 -0.3665
14140TIP3   OH263910   3.691   4.105  11.747  0.3950 -0.4802  0.1524
14140TIP3    H163911   3.733   4.051  11.814  1.2325 -0.1112 -0.0693
14140TIP3    H263912   3.636   4.044  11.698 -0.9540 -0.5698  1.7732
14141TIP3   OH263913   4.972   5.351  11.387 -0.5038  0.7625  0.4317
14141TIP3    H163914   5.027   5.278  11.358 -0.6578  0.4185  1.0041
14141TIP3    H263915   5.002   5.425  11.334  0.1684  0.4607  0.3801
14142TIP3   OH263916   1.489   6.610  11.764  0.0706 -0.3387  0.1285
14142TIP3    H163917   1.394   6.612  11.778  0.0761 -1.6712  0.3633
14142TIP3    H263918   1.526   6.616  11.852  0.2099  0.3831  0.0216
14143TIP3   OH263919   3.160   0.618   2.115 -0.1217 -0.1324  0.4668
14143TIP3    H163920   3.172   0.690   2.177  0.6311  0.6226 -0.5305
14143TIP3    H263921   3.249   0.596   2.086 -0.4938 -0.2483 -0.6027
14144TIP3   OH263922   2.392   6.487   4.024 -0.1027 -0.5517  0.3153
14144TIP3    H163923   2.325   6.451   4.081 -0.4411  0.7805  0.7914
14144TIP3    H263924   2.342   6.523   3.949  0.0084  0.8719  0.9007
14145TIP3   OH263925   1.028   3.346   0.922 -0.3441 -0.1656  0.2787
14145TIP3    H163926   1.046   3.431   0.883 -0.8197 -0.4436 -0.5469
14145TIP3    H263927   1.082   3.285   0.872 -0.7424 -0.4840  0.2383
14146TIP3   OH263928   2.612   1.987   3.502 -0.2000 -0.2732 -0.2156
14146TIP3    H163929   2.616   1.911   3.560  0.4823  0.5778  0.8726
14146TIP3    H263930   2.559   2.051   3.550 -2.4553 -0.7700 -1.9776
14147TIP3   OH263931   3.095   1.282   3.127 -0.1357 -0.0539 -0.4575
14147TIP3    H163932   3.159   1.233   3.074 -1.4954 -0.7035 -1.5355
14147TIP3    H263933   3.011   1.264   3.085 -1.0796  0.5155  1.1550
14148TIP3   OH263934   0.707   4.426  16.559 -0.1130  0.7605  0.2526
14148TIP3    H163935   0.706   4.517  16.590 -0.8249  1.3033 -1.2669
14148TIP3    H263936   0.705   4.434  16.463  0.8874 -0.8588  0.0877
14149TIP3   OH263937   3.905   5.810   5.097 -0.8448 -0.7189 -0.6290
14149TIP3    H163938   3.980   5.788   5.040 -2.0849  0.7473 -2.8884
14149TIP3    H263939   3.889   5.903   5.080 -1.5207 -0.3513  1.8656
14150TIP3   OH263940   0.900   0.815  17.109 -0.3605 -0.0708 -0.1056
14150TIP3    H163941   0.915   0.823  17.203 -0.4828 -2.5765  0.1624
14150TIP3    H263942   0.808   0.837  17.097 -0.8144 -1.4773  0.6396
14151TIP3   OH263943   4.636   3.339  14.485 -0.2257 -0.7387 -0.1621
14151TIP3    H163944   4.627   3.434  14.493 -1.6621 -0.9951  1.3310
14151TIP3    H263945   4.582   3.316  14.409  0.8084 -0.2817 -1.0563
14152TIP3   OH263946   0.589   3.943   0.887  0.2056 -0.2525  0.7909
14152TIP3    H163947   0.527   3.934   0.815  2.6976 -1.0326 -1.3747
14152TIP3    H263948   0.576   3.864   0.940 -0.6787 -0.3919  0.3659
14153TIP3   OH263949   2.331   5.364  12.444  0.8041 -0.0457 -0.4931
14153TIP3    H163950   2.341   5.407  12.359  1.2447 -1.5073 -1.2078
14153TIP3    H263951   2.402   5.300  12.446 -1.1430 -2.2542 -0.4072
14154TIP3   OH263952   4.625   1.063  13.407  0.5734 -0.2413  0.0782
14154TIP3    H163953   4.605   1.134  13.467  0.1885  1.4297 -1.9851
14154TIP3    H263954   4.678   1.002  13.458 -2.4566 -0.4789  3.0828
14155TIP3   OH263955   5.373   4.715  13.842 -0.4212  0.8155  0.3459
14155TIP3    H163956   5.375   4.666  13.760 -1.0627  0.4382  0.5525
14155TIP3    H263957   5.449   4.773  13.837 -0.0684  0.3152 -0.2169
14156TIP3   OH263958   3.084   3.078  12.317 -0.5390 -0.0580 -0.4875
14156TIP3    H163959   3.102   3.134  12.392 -0.6197 -1.5647  0.6923
14156TIP3    H263960   3.169   3.065  12.275 -0.2227 -0.4927  0.2805
14157TIP3   OH263961   4.558   2.942  15.617  0.1302  0.3045 -0.4787
14157TIP3    H163962   4.514   3.024  15.640 -0.1736  0.2022 -0.6989
14157TIP3    H263963   4.531   2.924  15.527 -1.3344 -1.0410  0.2109
14158TIP3   OH263964   4.841   5.754  12.587 -0.1095  0.2804  0.0276
14158TIP3    H163965   4.812   5.744  12.496 -1.2625  0.4851  0.3690
14158TIP3    H263966   4.898   5.678  12.602  0.4802  0.5040 -1.0050
14159TIP3   OH263967   1.030   2.128   3.880  0.6676  0.0995  0.5145
14159TIP3    H163968   1.054   2.042   3.846  2.9941 -0.0531  2.3837
14159TIP3    H263969   1.114   2.170   3.899 -0.4388  2.6893 -0.1150
14160TIP3   OH263970   0.717   1.009   4.073  0.2865  0.1589 -0.1614
14160TIP3    H163971   0.666   1.003   4.154  0.0359  0.3245 -0.3096
14160TIP3    H263972   0.751   0.920   4.060  1.9717  0.5621  1.1948
14161TIP3   OH263973   5.949   3.388   1.931 -0.1811 -0.1041  0.0895
14161TIP3    H163974   6.018   3.390   1.997 -1.2616  0.5230  1.2177
14161TIP3    H263975   5.988   3.430   1.854  1.1074 -0.9020  0.2837
14162TIP3   OH263976   0.285   4.085   2.737 -0.0055  0.6669  0.6735
14162TIP3    H163977   0.239   4.033   2.671  1.0881 -0.0006  0.4301
14162TIP3    H263978   0.369   4.040   2.749 -0.2712  0.6816  2.6538
14163TIP3   OH263979   4.887   2.076   0.910 -0.1896 -0.0532  0.1710
14163TIP3    H163980   4.943   2.152   0.892  1.5525 -1.3293 -0.0243
14163TIP3    H263981   4.867   2.040   0.823  1.4843 -1.5110  0.3460
14164TIP3   OH263982   6.263   5.148   0.111  0.1200  0.1946 -0.2151
14164TIP3    H163983   6.187   5.099   0.079 -0.0929  0.6713 -0.4516
14164TIP3    H263984   6.283   5.209   0.040  0.6340  0.1696 -0.0899
14165TIP3   OH263985   3.212   1.596   0.787  0.1188 -0.3767 -0.2149
14165TIP3    H163986   3.189   1.600   0.694 -0.6827  1.2026  0.0317
14165TIP3    H263987   3.268   1.672   0.801  0.2455 -0.6222  0.5947
14166TIP3   OH263988   5.878   4.187   1.274  0.1914 -0.0882  0.5020
14166TIP3    H163989   5.815   4.121   1.246  1.9082 -0.2009 -3.3972
14166TIP3    H263990   5.843   4.270   1.241  0.9861  0.1195  0.1476
14167TIP3   OH263991   0.471   0.126   5.303  0.1052 -0.7659 -0.4291
14167TIP3    H163992   0.564   0.147   5.301 -0.3264  1.1103 -1.2961
14167TIP3    H263993   0.466   0.049   5.361  2.2168 -1.1701 -0.7190
14168TIP3   OH263994   3.931   1.567  13.910 -0.7200  0.8866  0.0194
14168TIP3    H163995   3.899   1.600  13.994 -1.3875 -0.3113  0.2444
14168TIP3    H263996   3.994   1.633  13.881 -1.9962  2.3379  0.4817
14169TIP3   OH263997   5.842   2.177   4.739  0.0044  0.4021 -0.1536
14169TIP3    H163998   5.924   2.214   4.705  0.6704 -1.0296 -0.1256
14169TIP3    H263999   5.826   2.224   4.820  1.5133 -0.2328  0.5191
14170TIP3   OH264000   1.996   1.661  13.481  0.1890  0.4239  0.6527
14170TIP3    H164001   2.079   1.653  13.433 -0.5927  1.7624 -0.9848
14170TIP3    H264002   2.014   1.723  13.551  0.5062  0.9350  0.1232
14171TIP3   OH264003   5.185   2.170   5.916  0.5245 -1.1527 -0.3216
14171TIP3    H164004   5.242   2.195   5.989  2.4081 -2.5301 -1.2693
14171TIP3    H264005   5.119   2.113   5.954 -0.2220  0.3963  0.7790
14172TIP3   OH264006   6.126   1.440  15.167 -0.2019  0.2240  0.5107
14172TIP3    H164007   6.113   1.365  15.226  1.2336 -0.2428  0.2739
14172TIP3    H264008   6.106   1.516  15.221  0.5103 -0.2318  1.4436
14173TIP3   OH264009   0.807   5.537  15.788  0.3942 -0.5682  0.3637
14173TIP3    H164010   0.731   5.497  15.830  0.5243  0.1806  1.3223
14173TIP3    H264011   0.881   5.513  15.845  0.6739 -0.1449  0.1822
14174TIP3   OH264012   1.732   1.026  16.461  0.7393  0.1489  0.1755
14174TIP3    H164013   1.739   0.952  16.521  2.7296  1.0866  1.1456
14174TIP3    H264014   1.750   0.990  16.375  1.9001 -0.4699  0.6720
14175TIP3   OH264015   2.324   5.215  11.686 -0.2673 -0.0169 -0.3555
14175TIP3    H164016   2.256   5.166  11.640  0.9774 -1.2296 -0.9448
14175TIP3    H264017   2.400   5.157  11.685  0.8421  1.4011  0.0846
14176TIP3   OH264018   0.436   3.471   5.063 -0.1801 -0.1178 -0.1176
14176TIP3    H164019   0.369   3.416   5.104 -1.0136  2.5469  2.1891
14176TIP3    H264020   0.398   3.558   5.060  2.6680  1.1884 -0.0158
14177TIP3   OH264021   2.579   3.238  15.058 -0.2868  0.4211  0.0752
14177TIP3    H164022   2.554   3.307  14.997  0.2633  1.1161  0.6277
14177TIP3    H264023   2.510   3.238  15.125 -1.2125 -0.7478 -0.8547
14178TIP3   OH264024   2.793   5.737   6.522 -0.6137  0.1290 -0.0524
14178TIP3    H164025   2.885   5.764   6.523 -0.5747  0.0099  2.0259
14178TIP3    H264026   2.796   5.642   6.517 -0.6164  0.1363 -0.1817
14179TIP3   OH264027   0.746   5.817   2.778 -0.8868 -0.2066  0.0924
14179TIP3    H164028   0.731   5.838   2.686 -0.0976 -0.7565 -0.1710
14179TIP3    H264029   0.669   5.768   2.805 -0.8475 -0.5591 -0.4429
14180TIP3   OH264030   2.780   4.989   1.062  0.2949 -0.5565 -0.7966
14180TIP3    H164031   2.686   5.001   1.045  0.1964  0.6306  0.4579
14180TIP3    H264032   2.785   4.911   1.117  0.1988 -1.5723 -2.2002
14181TIP3   OH264033   3.614   1.992   5.078  0.2396  0.1921  0.6527
14181TIP3    H164034   3.539   1.935   5.095  1.2015 -1.8370 -1.6215
14181TIP3    H264035   3.588   2.043   5.002  1.0654 -0.3729 -0.0166
14182TIP3   OH264036   6.040   0.912   0.424  0.0330  0.0318 -0.7728
14182TIP3    H164037   6.056   0.830   0.377  1.3724 -0.1045 -0.0824
14182TIP3    H264038   6.032   0.978   0.355 -0.2544 -0.5340 -1.2879
14183TIP3   OH264039   0.816   5.147  14.925  0.6729 -0.0688  0.6114
14183TIP3    H164040   0.863   5.140  14.842 -1.3914 -1.2360 -0.4934
14183TIP3    H264041   0.730   5.183  14.902 -0.1232 -0.9392  2.1426
14184TIP3   OH264042   2.880   0.541  14.277  0.5258 -0.3253 -0.3302
14184TIP3    H164043   2.944   0.611  14.291 -0.8063  0.7240  0.6013
14184TIP3    H264044   2.870   0.500  14.362 -0.4044 -0.1721 -0.3624
14185TIP3   OH264045   6.377   3.500   3.993  0.6816  0.1613 -0.2751
14185TIP3    H164046   6.315   3.499   3.920  0.7926  0.5984 -0.3759
14185TIP3    H264047   6.459   3.466   3.956  0.2679 -1.2451  0.0736
14186TIP3   OH264048   2.691   3.690   3.160  0.1736  0.1583 -0.1477
14186TIP3    H164049   2.668   3.687   3.067 -1.4046 -0.6831  0.2456
14186TIP3    H264050   2.698   3.783   3.181 -2.2357  0.4258 -0.4622
14187TIP3   OH264051   5.337   4.523  14.889  0.2037  0.1551 -0.8755
14187TIP3    H164052   5.272   4.521  14.959  0.1557  2.7966 -0.8002
14187TIP3    H264053   5.296   4.576  14.820  1.8252  0.9174 -1.2693
14188TIP3   OH264054   5.747   0.283  15.200 -0.0101  0.0620  0.2752
14188TIP3    H164055   5.760   0.241  15.115  1.2244  1.5144 -0.2601
14188TIP3    H264056   5.670   0.338  15.188 -1.1403 -1.3871  0.7427
14189TIP3   OH264057   5.821   1.170  17.162  0.5419  0.3608  0.3331
14189TIP3    H164058   5.809   1.225  17.085  0.3037  0.3522  0.3625
14189TIP3    H264059   5.738   1.123  17.170  1.2893 -1.1407 -0.5817
14190TIP3   OH264060   0.092   0.740  15.082 -0.5330  0.0115 -0.2811
14190TIP3    H164061   0.074   0.829  15.052  1.4463  0.4012 -0.4027
14190TIP3    H264062   0.050   0.734  15.167  0.0404  1.3641  0.1147
14191TIP3   OH264063   1.509   5.665  16.567  0.0273 -0.0804 -0.0454
14191TIP3    H164064   1.541   5.589  16.615  0.2974  1.1279  1.7052
14191TIP3    H264065   1.445   5.629  16.506 -0.6000 -1.5872  1.4686
14192TIP3   OH264066   5.173   2.593  15.157 -0.2592  0.1007 -0.0345
14192TIP3    H164067   5.256   2.544  15.157  1.0899  2.3133  1.1287
14192TIP3    H264068   5.138   2.581  15.245  0.2545  1.5096  0.3655
14193TIP3   OH264069   1.438   5.868  17.047  0.0390 -0.3572  0.2665
14193TIP3    H164070   1.439   5.841  16.955 -0.6300  0.3639  0.0353
14193TIP3    H264071   1.381   5.945  17.048  1.8511  1.0246  0.9048
14194TIP3   OH264072   1.899   0.773  15.284 -0.2892  0.2725  0.0109
14194TIP3    H164073   1.929   0.698  15.335 -0.4414  0.4372  0.3514
14194TIP3    H264074   1.804   0.760  15.276  0.0392 -0.9613 -2.2489
14195TIP3   OH264075   2.769   4.328  13.057 -0.2247 -0.0212  0.2947
14195TIP3    H164076   2.790   4.402  13.000 -1.0995 -0.6259 -0.8200
14195TIP3    H264077   2.762   4.366  13.144 -1.5471  1.3787 -0.3963
14196TIP3   OH264078   2.133   6.645   4.014  0.0708 -0.4196 -0.1495
14196TIP3    H164079   2.119   6.570   3.955 -2.0836 -0.5004  0.4141
14196TIP3    H264080   2.055   6.699   4.002  1.0448  1.1296  0.3684
14197TIP3   OH264081   2.415   2.715  10.893 -0.3787 -0.1623  0.0665
14197TIP3    H164082   2.397   2.728  10.800  0.0789 -0.1998 -0.0338
14197TIP3    H264083   2.508   2.689  10.896 -0.3522 -0.0295  0.5409
14198TIP3   OH264084   4.060   4.192  16.149  0.3894 -0.1205  0.5384
14198TIP3    H164085   4.128   4.254  16.120  0.7822 -1.4392 -1.5304
14198TIP3    H264086   3.978   4.238  16.133  0.7016  0.2010 -0.1953
14199TIP3   OH264087   3.731   0.325   4.905 -0.5398  0.1266  0.1641
14199TIP3    H164088   3.668   0.397   4.906  0.4122  0.9753  0.0818
14199TIP3    H264089   3.757   0.315   4.997 -0.2100  0.3101  0.0929
14200TIP3   OH264090   5.611   1.955  13.188 -0.4213  0.0570 -0.3556
14200TIP3    H164091   5.700   1.933  13.159 -0.7035 -0.3461 -0.9364
14200TIP3    H264092   5.554   1.903  13.131 -1.0348  0.4384 -0.0977
14201TIP3   OH264093   2.880   6.236   4.442  0.0750 -0.2698  0.5570
14201TIP3    H164094   2.794   6.276   4.452  0.2062  0.6446 -1.6457
14201TIP3    H264095   2.875   6.155   4.493 -2.1817 -0.3883  0.2103
14202TIP3   OH264096   3.343   1.035  10.354 -0.0466 -0.4486 -0.2181
14202TIP3    H164097   3.378   1.123  10.369  1.0836 -0.7259 -1.1690
14202TIP3    H264098   3.419   0.982  10.332 -0.8170 -1.5069 -0.3843
14203TIP3   OH264099   2.422   1.298   1.303  0.2051  0.2650 -0.4363
14203TIP3    H164100   2.380   1.383   1.315  0.4075  0.1112  1.5586
14203TIP3    H264101   2.377   1.240   1.364  1.7311 -0.4520  0.0404
14204TIP3   OH264102   6.088   1.810   5.661  0.2024  0.1664  0.2179
14204TIP3    H164103   6.103   1.902   5.681 -1.1746  1.2695 -3.5640
14204TIP3    H264104   5.994   1.797   5.675  0.1737 -0.3506 -0.4252
14205TIP3   OH264105   6.674   6.762   5.102 -0.3954 -0.0884 -0.1295
14205TIP3    H164106   6.643   6.702   5.035 -0.3518 -2.4125  1.8687
14205TIP3    H264107   6.598   6.776   5.159 -0.8034  2.8871 -1.3394
14206TIP3   OH264108   4.185   2.367   0.228 -1.1186  0.6221 -0.1619
14206TIP3    H164109   4.097   2.340   0.257  0.2341 -0.7706  2.9050
14206TIP3    H264110   4.223   2.288   0.190 -1.3775  1.3875 -2.0568
14207TIP3   OH264111   2.509   2.776   4.290  0.0120  0.0720 -0.2600
14207TIP3    H164112   2.592   2.819   4.312 -0.4429  0.7031  0.2570
14207TIP3    H264113   2.488   2.722   4.366 -0.3317  0.3621 -0.1413
14208TIP3   OH264114   2.968   4.406  16.955 -0.1101  0.4097 -0.0790
14208TIP3    H164115   2.899   4.442  16.899 -0.4201  1.2450  0.8275
14208TIP3    H264116   2.995   4.325  16.911 -0.7421  0.7649 -1.1328
14209TIP3   OH264117   5.990   3.687   0.405  0.4235  0.1405 -0.0963
14209TIP3    H164118   6.011   3.741   0.482 -0.2539 -2.2359  1.8312
14209TIP3    H264119   6.075   3.656   0.374  0.4891 -1.9508  2.0465
14210TIP3   OH264120   1.982   3.950   4.501 -0.3604 -0.5999  0.2307
14210TIP3    H164121   2.024   3.965   4.416 -1.6021  0.2671 -0.2387
14210TIP3    H264122   1.893   3.920   4.479 -0.2003 -1.8373  1.2129
14211TIP3   OH264123   0.712   1.390   5.267 -0.2485  0.1619  0.0330
14211TIP3    H164124   0.749   1.337   5.196  0.1697  0.3889  0.0801
14211TIP3    H264125   0.787   1.407   5.325 -0.5371  0.1892  0.3946
14212TIP3   OH264126   0.304   4.091  13.598 -0.3881 -0.0693  0.2094
14212TIP3    H164127   0.311   3.999  13.621 -2.6592 -0.4492 -0.5183
14212TIP3    H264128   0.242   4.128  13.662  1.1619  1.1587  1.0427
14213TIP3   OH264129   3.868   1.990  16.557 -0.2175 -0.1353  0.2442
14213TIP3    H164130   3.815   2.069  16.569  0.9806  0.7070  0.0285
14213TIP3    H264131   3.941   2.000  16.618  0.7697 -0.3337 -0.8797
14214TIP3   OH264132   6.372   3.450   0.435 -0.0312 -0.3140 -0.0478
14214TIP3    H164133   6.381   3.472   0.527 -0.4432 -1.5602  0.2957
14214TIP3    H264134   6.439   3.384   0.420 -1.6734 -2.0008 -0.0131
14215TIP3   OH264135   6.579   6.049   1.214 -0.5540  0.3364  0.0949
14215TIP3    H164136   6.552   5.962   1.244  1.1708 -0.0112  0.6842
14215TIP3    H264137   6.615   6.034   1.127  0.5732  0.3201  0.5620
14216TIP3   OH264138   4.430   1.455  16.673  0.6168  0.0234 -0.5276
14216TIP3    H164139   4.364   1.449  16.605  0.6840 -0.1680 -0.5780
14216TIP3    H264140   4.388   1.504  16.743  0.2481 -0.5282 -0.3558
14217TIP3   OH264141   0.366   6.213   4.603  0.1391  0.0055  0.2989
14217TIP3    H164142   0.403   6.277   4.541 -0.3255  0.5484  0.5766
14217TIP3    H264143   0.410   6.131   4.582  0.7627  0.4274 -0.0441
14218TIP3   OH264144   2.465   1.250   3.974 -0.2589  0.1752 -0.2132
14218TIP3    H164145   2.539   1.198   3.943 -0.0138  0.7396 -0.5691
14218TIP3    H264146   2.485   1.339   3.946 -0.8020  0.4197  0.1803
14219TIP3   OH264147   4.349   0.430   2.547 -0.0493  0.2000 -0.3811
14219TIP3    H164148   4.346   0.496   2.616  0.4287 -0.0042 -0.1622
14219TIP3    H264149   4.433   0.386   2.560 -0.1357 -0.1017 -0.8480
14220TIP3   OH264150   1.427   0.553   5.484 -0.0160  0.4894 -0.3411
14220TIP3    H164151   1.415   0.488   5.414  1.3583  0.2795 -0.3953
14220TIP3    H264152   1.357   0.616   5.471 -0.2333  0.0259 -1.4447
14221TIP3   OH264153   0.160   3.671  11.146 -0.4241  0.4626 -0.3587
14221TIP3    H164154   0.182   3.624  11.066  1.5549  0.8842 -0.0898
14221TIP3    H264155   0.138   3.759  11.117  2.8923  1.3876 -0.2497
14222TIP3   OH264156   0.977   5.160   1.073 -0.4881 -0.3136  0.2868
14222TIP3    H164157   0.999   5.150   0.980  0.3762 -0.1161  0.4635
14222TIP3    H264158   0.896   5.111   1.084 -1.1275  0.4832 -0.7883
14223TIP3   OH264159   1.690   6.298  13.017 -0.1817 -0.2882  0.3767
14223TIP3    H164160   1.781   6.326  13.027  0.3841 -2.4165  1.2953
14223TIP3    H264161   1.689   6.248  12.935 -0.7845  0.7045 -0.2377
14224TIP3   OH264162   6.308   3.612  15.820 -0.3016  0.0931 -0.0918
14224TIP3    H164163   6.330   3.640  15.731  0.7937 -0.9461 -0.1587
14224TIP3    H264164   6.310   3.693  15.872 -0.5537  0.6444 -0.9361
14225TIP3   OH264165   3.996   3.024   0.076  0.9829 -0.3595  0.0060
14225TIP3    H164166   3.919   2.968   0.079  0.4852  0.1975 -1.7667
14225TIP3    H264167   4.026   3.020  -0.015  2.4536  0.2237  0.4437
14226TIP3   OH264168   3.471   4.381  13.288 -0.4441 -0.2159 -0.3535
14226TIP3    H164169   3.435   4.434  13.358  0.0525  1.2537 -1.1843
14226TIP3    H264170   3.415   4.398  13.213  1.2144  1.1275 -1.3145
14227TIP3   OH264171   0.380   5.802  12.641 -0.5516 -0.1262 -0.4243
14227TIP3    H164172   0.474   5.787  12.630 -0.1215  1.1963  1.3381
14227TIP3    H264173   0.348   5.816  12.551  1.4172  2.0179 -0.8606
14228TIP3   OH264174   5.056   5.797   6.707  0.1040 -0.0600 -0.4510
14228TIP3    H164175   4.998   5.790   6.632 -1.5879  0.1310  0.8182
14228TIP3    H264176   5.064   5.708   6.740 -0.5643  0.1202  0.1944
14229TIP3   OH264177   5.223   0.960   1.252  0.2816  0.2017  0.0822
14229TIP3    H164178   5.202   1.013   1.329  0.4002 -1.7489  1.5009
14229TIP3    H264179   5.285   0.895   1.284 -0.8451 -1.6141 -1.3116
14230TIP3   OH264180   6.088   4.027  14.633 -0.3967 -0.4421  0.4623
14230TIP3    H164181   6.181   4.048  14.632 -0.3164 -0.8035 -0.4177
14230TIP3    H264182   6.063   4.032  14.725  0.1031  1.3542  0.5250
14231TIP3   OH264183   0.564   0.609  14.564 -0.4789  0.1493 -0.2895
14231TIP3    H164184   0.536   0.522  14.592 -1.2842  0.4776 -0.0543
14231TIP3    H264185   0.550   0.665  14.640  0.2153  0.4550 -0.3778
14232TIP3   OH264186   0.142   2.242   1.742  0.2760  0.0704 -0.0074
14232TIP3    H164187   0.165   2.157   1.704 -1.9435 -0.9722  0.9074
14232TIP3    H264188   0.207   2.303   1.706  0.3810 -1.5406 -2.6623
14233TIP3   OH264189   4.901   1.190  14.167  0.0899 -0.0691  0.2160
14233TIP3    H164190   4.838   1.258  14.190  0.8984  0.6656  0.2871
14233TIP3    H264191   4.985   1.223  14.201  1.2117  0.7478 -3.1179
14234TIP3   OH264192   2.945   1.239  12.659 -0.6024 -0.0066 -0.1664
14234TIP3    H164193   2.869   1.224  12.603 -0.5309  0.1505 -0.3036
14234TIP3    H264194   2.963   1.332  12.651 -1.1188  0.1865  0.7845
14235TIP3   OH264195   5.729   5.722  16.136 -0.0364  0.1787 -0.0801
14235TIP3    H164196   5.792   5.755  16.073 -0.8265 -2.4932 -2.3878
14235TIP3    H264197   5.774   5.648  16.178 -0.6244  0.0023  0.2408
14236TIP3   OH264198   0.496   2.159   3.126  0.1504  0.1840 -0.5383
14236TIP3    H164199   0.497   2.209   3.045 -1.7491 -0.4741 -1.0133
14236TIP3    H264200   0.573   2.103   3.121  0.5999  0.8765 -1.4238
14237TIP3   OH264201   4.278   0.925   0.719 -0.2510  0.1156 -0.1450
14237TIP3    H164202   4.301   0.844   0.764  0.0698 -0.3347 -1.1015
14237TIP3    H264203   4.291   0.906   0.626  1.8338  1.8905 -0.2717
14238TIP3   OH264204   3.467   5.381   1.319  0.1086 -0.4284  0.0858
14238TIP3    H164205   3.475   5.358   1.226  0.0828 -0.6695  0.1432
14238TIP3    H264206   3.413   5.460   1.319 -1.4684 -1.4768  0.0205
14239TIP3   OH264207   5.178   4.484   5.300  1.2290  0.0163 -0.0268
14239TIP3    H164208   5.210   4.493   5.390  2.2010 -1.0898 -0.2621
14239TIP3    H264209   5.220   4.405   5.266 -1.7721 -1.5305 -0.3332
14240TIP3   OH264210   6.360   1.541  16.805  0.5166 -0.4959  0.1265
14240TIP3    H164211   6.340   1.476  16.872  0.1582 -0.5118  0.0024
14240TIP3    H264212   6.450   1.568  16.824  0.2430 -0.1243  0.9232
14241TIP3   OH264213   5.644   4.881   1.664  0.8312 -0.2479  0.2417
14241TIP3    H164214   5.639   4.829   1.744 -1.0434  0.0240  0.3227
14241TIP3    H264215   5.562   4.930   1.662  1.8508  1.4722 -0.6907
14242TIP3   OH264216   1.217   3.254   5.363  0.1097  0.1549  0.3283
14242TIP3    H164217   1.310   3.245   5.382  0.3231 -0.3979 -1.0001
14242TIP3    H264218   1.206   3.347   5.339  0.8022 -0.3711 -2.1309
14243TIP3   OH264219   0.460   5.469  15.495 -0.1990  0.1192  0.2245
14243TIP3    H164220   0.440   5.554  15.457  1.4439 -0.3156 -1.7120
14243TIP3    H264221   0.387   5.413  15.469  0.0047  0.2896 -0.7188
14244TIP3   OH264222   0.426   2.561  14.814  0.1813  0.1473  0.1508
14244TIP3    H164223   0.339   2.582  14.781  0.2944 -1.3372 -1.1943
14244TIP3    H264224   0.440   2.620  14.888 -1.4225  1.3041 -0.4613
14245TIP3   OH264225   5.608   2.835  14.131 -0.2679  0.0543  0.3159
14245TIP3    H164226   5.678   2.775  14.106  1.0296  1.5247  0.3641
14245TIP3    H264227   5.528   2.784  14.120  0.8387 -1.8469  0.8380
14246TIP3   OH264228   4.300   4.646   4.048  0.3052  0.0808 -0.2794
14246TIP3    H164229   4.310   4.574   4.110  1.2430 -1.1342 -1.7863
14246TIP3    H264230   4.278   4.722   4.102 -0.6391 -1.3188  1.3434
14247TIP3   OH264231   0.564   6.652   1.672 -0.6278  0.1813 -0.2091
14247TIP3    H164232   0.577   6.574   1.726  0.0239  0.2010 -0.3363
14247TIP3    H264233   0.474   6.644   1.640 -1.1557  0.3554  1.1782
14248TIP3   OH264234   4.114   0.013  12.270 -0.3984  0.0759  0.1340
14248TIP3    H164235   4.160   0.090  12.305 -0.4093 -0.2607  0.8936
14248TIP3    H264236   4.184  -0.044  12.237 -0.3653  0.2120 -0.0355
14249TIP3   OH264237   2.497   0.137   3.714  0.0408 -0.4061 -0.3877
14249TIP3    H164238   2.405   0.163   3.723  0.1253 -0.2257  0.0023
14249TIP3    H264239   2.544   0.198   3.771  0.5996  0.6361 -1.9403
14250TIP3   OH264240   2.754   0.424   2.415  0.2479 -0.6118 -0.3441
14250TIP3    H164241   2.841   0.393   2.440  0.2368  1.2059  2.0585
14250TIP3    H264242   2.743   0.507   2.462 -1.8239  0.4049 -2.5153
14251TIP3   OH264243   0.951   0.964   6.363 -0.4336  0.0688  0.4286
14251TIP3    H164244   0.922   1.006   6.282 -2.7612 -0.3029  1.0273
14251TIP3    H264245   0.921   0.873   6.355 -0.3698 -0.0587  1.5480
14252TIP3   OH264246   4.933   1.757   3.145 -0.1488 -0.0418  0.2863
14252TIP3    H164247   4.925   1.720   3.233  2.2234  0.7516  0.8773
14252TIP3    H264248   4.931   1.680   3.087  0.2616 -0.7399  1.1801
14253TIP3   OH264249   0.725   2.728   1.209  0.1238  0.0544 -0.0791
14253TIP3    H164250   0.742   2.675   1.131 -0.6196 -1.6043  0.8453
14253TIP3    H264251   0.708   2.816   1.176  0.6840 -0.4344 -1.7137
14254TIP3   OH264252   3.616   5.393  15.327 -0.0844 -0.2497 -0.7393
14254TIP3    H164253   3.581   5.391  15.238  0.0441  0.3974 -0.8121
14254TIP3    H264254   3.628   5.487  15.345  1.6842 -0.4454 -0.7593
14255TIP3   OH264255   2.863   1.402   5.184  0.0330 -0.4723  0.2698
14255TIP3    H164256   2.791   1.351   5.145  0.1392 -0.5853  0.2239
14255TIP3    H264257   2.894   1.349   5.257 -1.5572  0.6772  1.8462
14256TIP3   OH264258   0.982   0.555   5.918 -0.1456 -0.3937 -1.1077
14256TIP3    H164259   0.945   0.580   5.833 -2.9182  0.6153  0.3591
14256TIP3    H264260   1.016   0.636   5.954 -2.3736 -0.0831  0.3658
14257TIP3   OH264261   2.944   2.770  11.252  0.3689  0.1850 -0.0225
14257TIP3    H164262   2.935   2.705  11.182  1.5194 -0.5419  0.4940
14257TIP3    H264263   2.893   2.846  11.221 -0.7129 -0.8262 -0.7772
14258TIP3   OH264264   6.386   6.670  16.712  0.2161 -0.4464  0.0424
14258TIP3    H164265   6.407   6.620  16.634 -0.1993 -1.4216  0.5474
14258TIP3    H264266   6.322   6.616  16.759  1.4675 -0.5119  1.7288
14259TIP3   OH264267   5.295   0.606  11.343  0.1386  0.0799  0.2398
14259TIP3    H164268   5.234   0.584  11.413  1.2143 -1.6087  0.6661
14259TIP3    H264269   5.241   0.653  11.279 -1.4511 -0.7778  0.9148
14260TIP3   OH264270   2.349   0.581  12.379 -0.4682  0.0020  0.4120
14260TIP3    H164271   2.314   0.590  12.290  0.7849  3.9204  0.2010
14260TIP3    H264272   2.437   0.546  12.366  0.5597  2.6496 -0.1573
14261TIP3   OH264273   3.450   5.389  12.561  0.4863 -0.1191  0.2629
14261TIP3    H164274   3.464   5.299  12.588 -0.5619 -0.3970 -0.1341
14261TIP3    H264275   3.507   5.400  12.485 -2.4799 -1.7049 -2.2780
14262TIP3   OH264276   3.757   2.521   2.833  0.2653  0.5037  0.2045
14262TIP3    H164277   3.852   2.524   2.825  0.2356  2.8445  0.3924
14262TIP3    H264278   3.741   2.500   2.925  0.5728 -3.1579 -0.5285
14263TIP3   OH264279   6.034   2.331  14.568  0.2266  0.4402 -0.2309
14263TIP3    H164280   6.049   2.236  14.570  0.1863  0.4389  0.1594
14263TIP3    H264281   6.000   2.349  14.480 -2.0453 -0.2609  0.4534
14264TIP3   OH264282   4.946   5.226  12.317  0.4051  0.1780  0.0558
14264TIP3    H164283   4.856   5.212  12.288  1.1323 -0.1127 -2.1230
14264TIP3    H264284   4.985   5.139  12.317  1.2058  0.5382 -0.7641
14265TIP3   OH264285   5.413   4.940  10.797 -0.0113  0.5046 -0.1949
14265TIP3    H164286   5.476   5.003  10.760  1.0666  0.3163  1.3095
14265TIP3    H264287   5.397   4.878  10.726 -2.5188  3.4740 -2.3752
14266TIP3   OH264288   5.773   6.218  12.006 -0.1124 -0.1588 -0.1599
14266TIP3    H164289   5.826   6.275  12.062 -0.2256  1.1684 -1.3567
14266TIP3    H264290   5.727   6.279  11.948  0.9808 -1.5309 -2.5267
14267TIP3   OH264291   0.961   3.614  16.284  0.0071  0.4448  0.4116
14267TIP3    H164292   0.934   3.686  16.226 -0.4114  0.8542  1.1112
14267TIP3    H264293   1.039   3.578  16.242 -0.6745  0.3123 -0.7627
14268TIP3   OH264294   5.345   4.241   4.295 -0.6972 -0.2480 -0.2948
14268TIP3    H164295   5.290   4.273   4.367 -1.8153  1.3678 -1.8419
14268TIP3    H264296   5.400   4.315   4.272  1.2180 -1.4434  0.3248
14269TIP3   OH264297   2.823   1.320   1.660  0.3113  0.0421 -0.7544
14269TIP3    H164298   2.751   1.312   1.597 -0.3256  1.3643 -0.2144
14269TIP3    H264299   2.858   1.231   1.668 -1.4408 -0.6731 -0.8266
14270TIP3   OH264300   4.885   2.846   5.243 -0.7514  0.1867  0.4854
14270TIP3    H164301   4.927   2.921   5.201 -1.4368  1.2746  1.7267
14270TIP3    H264302   4.957   2.800   5.286 -0.1167 -0.6634 -1.4111
14271TIP3   OH264303   2.118   2.045   6.146  0.4967  0.3357  0.0283
14271TIP3    H164304   2.032   2.061   6.185  0.4455  0.3538 -0.0934
14271TIP3    H264305   2.144   2.129   6.109  0.4918  0.2873 -0.0851
14272TIP3   OH264306   3.283   2.010   3.720 -0.2036 -0.0845  0.5395
14272TIP3    H164307   3.354   2.039   3.777 -0.1829  1.5905 -0.3050
14272TIP3    H264308   3.306   1.919   3.697  1.0698  0.0651  1.1796
14273TIP3   OH264309   1.536   3.569   0.410 -0.5051 -0.4399 -0.0748
14273TIP3    H164310   1.451   3.540   0.444  0.6421  0.3287  3.6746
14273TIP3    H264311   1.598   3.548   0.480  2.1688  0.4457 -2.1020
14274TIP3   OH264312   6.264   3.365   4.453  0.3755  0.1690 -1.4536
14274TIP3    H164313   6.255   3.430   4.523 -0.6599 -0.0857 -1.3357
14274TIP3    H264314   6.318   3.408   4.387  0.1987  0.9308 -1.1138
14275TIP3   OH264315   0.623   0.357   1.379 -0.3279  0.5506  0.0319
14275TIP3    H164316   0.682   0.286   1.355 -0.2879  0.4250  0.5095
14275TIP3    H264317   0.543   0.314   1.407  0.2713  0.6252  1.9460
14276TIP3   OH264318   1.131   3.442  16.546  0.2637 -0.4854 -0.4455
14276TIP3    H164319   1.163   3.451  16.457  0.6575 -0.8407 -0.3382
14276TIP3    H264320   1.201   3.398  16.593  1.1192  1.9841  0.6580
14277TIP3   OH264321   2.312   0.167  12.008 -0.3965 -0.0687  0.2761
14277TIP3    H164322   2.343   0.247  12.050 -0.5096 -0.0692  0.3611
14277TIP3    H264323   2.366   0.097  12.046 -0.6527 -0.0979  0.5912
14278TIP3   OH264324   3.757   0.326   3.924 -0.5922 -0.2572 -0.2013
14278TIP3    H164325   3.762   0.421   3.929  0.7429 -0.2286 -1.7063
14278TIP3    H264326   3.845   0.295   3.947 -0.8364 -1.0950 -0.3507
14279TIP3   OH264327   5.953   4.904   0.438  0.4356 -0.1051  0.3174
14279TIP3    H164328   6.017   4.882   0.370 -2.1218 -0.3709 -2.0828
14279TIP3    H264329   5.894   4.829   0.441 -0.7253  0.8291  1.3270
14280TIP3   OH264330   4.500   1.899   4.331  0.0549  0.5742  0.0888
14280TIP3    H164331   4.452   1.888   4.413 -0.3619 -1.4321 -0.3934
14280TIP3    H264332   4.440   1.867   4.264  1.2368  0.1320 -0.7697
14281TIP3   OH264333   5.723   3.309  16.020  0.1197 -0.1407 -0.0640
14281TIP3    H164334   5.691   3.249  15.952 -0.9936 -0.2713  0.5499
14281TIP3    H264335   5.652   3.310  16.085  0.3821  1.3929  0.2096
14282TIP3   OH264336   3.141   5.410  14.061 -0.3487 -0.0397 -0.1472
14282TIP3    H164337   3.097   5.326  14.050 -1.2781  0.6629 -1.8853
14282TIP3    H264338   3.105   5.466  13.993  0.2715  1.7834  0.9728
14283TIP3   OH264339   3.805   0.659   0.773 -0.8876 -0.4307 -0.0226
14283TIP3    H164340   3.734   0.664   0.709 -0.6592  0.3006 -0.2266
14283TIP3    H264341   3.874   0.609   0.729 -0.5506  0.4664 -0.5274
14284TIP3   OH264342   0.838   4.167   1.811 -0.2729 -0.6564 -0.6566
14284TIP3    H164343   0.905   4.171   1.879 -0.5369 -1.8571 -0.3273
14284TIP3    H264344   0.853   4.084   1.767 -1.8829 -1.1844 -0.2321
14285TIP3   OH264345   3.745   3.566  15.389  0.2325 -0.0194 -0.6210
14285TIP3    H164346   3.823   3.602  15.431 -0.6662  1.6389 -0.3433
14285TIP3    H264347   3.711   3.638  15.336 -2.3772  0.0092  0.9976
14286TIP3   OH264348   3.469   4.578  14.107 -0.4422  0.4220 -0.2675
14286TIP3    H164349   3.476   4.606  14.015  0.7872 -0.9336 -0.6062
14286TIP3    H264350   3.509   4.491  14.108  0.6872  0.9541  1.7997
14287TIP3   OH264351   6.281   3.271   2.804  0.7507  0.0386 -0.2370
14287TIP3    H164352   6.242   3.358   2.808  0.3341 -0.2082  1.0703
14287TIP3    H264353   6.271   3.244   2.712 -0.6383  0.6641 -0.2755
14288TIP3   OH264354   4.166   2.032  16.496  0.2663 -0.1178  0.1668
14288TIP3    H164355   4.145   1.941  16.519  1.6013 -0.2965  0.7298
14288TIP3    H264356   4.175   2.076  16.581 -0.8170  0.6673 -0.1038
14289TIP3   OH264357   4.219   2.094  13.366 -0.1604 -0.2251  0.0345
14289TIP3    H164358   4.125   2.080  13.377 -0.2849  1.7536  1.6948
14289TIP3    H264359   4.226   2.161  13.299 -0.0289  1.0319  1.2805
14290TIP3   OH264360   3.092   1.419   1.723 -0.3187 -0.4952  0.1994
14290TIP3    H164361   3.016   1.369   1.692  1.9273 -1.7619 -3.6613
14290TIP3    H264362   3.164   1.355   1.725  1.2835  1.2730  1.0505
14291TIP3   OH264363   2.867   3.306   1.333 -0.0897  0.1176  0.2408
14291TIP3    H164364   2.928   3.380   1.333  0.8081 -0.6067  1.2977
14291TIP3    H264365   2.921   3.231   1.308 -1.1638 -0.0624 -1.6058
14292TIP3   OH264366   3.429   0.400  16.336 -0.0971  0.1106 -0.2153
14292TIP3    H164367   3.363   0.372  16.399 -1.6977  0.2105 -1.7918
14292TIP3    H264368   3.510   0.357  16.365 -0.5647  0.9189  2.4091
14293TIP3   OH264369   3.182   0.231  12.106  0.0493 -0.0882 -0.1878
14293TIP3    H164370   3.256   0.171  12.118 -0.5161 -0.5330  1.0992
14293TIP3    H264371   3.148   0.245  12.194 -0.3160  1.5052 -0.5714
14294TIP3   OH264372   6.135   0.061   2.474  0.5262  0.4561  0.0267
14294TIP3    H164373   6.224   0.088   2.452 -0.4388  1.9763 -2.1750
14294TIP3    H264374   6.087   0.143   2.487 -1.3511 -0.2269 -2.1596
14295TIP3   OH264375   4.290   0.789   4.349 -0.5563 -1.0995 -0.2759
14295TIP3    H164376   4.251   0.847   4.284  0.8506 -0.1366 -0.2769
14295TIP3    H264377   4.280   0.836   4.432  0.7141 -0.7841 -0.3007
14296TIP3   OH264378   3.047   1.827   3.834 -0.5387 -0.0359  0.0187
14296TIP3    H164379   3.052   1.851   3.742 -0.7618 -0.1821 -0.0324
14296TIP3    H264380   2.971   1.875   3.867 -0.0369  0.5816  0.3001
14297TIP3   OH264381   1.894   3.893  15.812  0.1180  0.2344  0.4992
14297TIP3    H164382   1.901   3.803  15.781  1.7327  0.6221 -0.3371
14297TIP3    H264383   1.882   3.886  15.907  0.9966 -0.8479  0.5391
14298TIP3   OH264384   4.106   2.649   4.671  0.0374 -0.2285 -0.7598
14298TIP3    H164385   4.072   2.572   4.626 -0.6403 -1.5925  1.9366
14298TIP3    H264386   4.037   2.714   4.664 -1.7182 -1.7325  1.5046
14299TIP3   OH264387   5.632   5.328   1.813  0.0185 -0.1322  0.1486
14299TIP3    H164388   5.633   5.367   1.900  0.8671  0.4412 -0.1136
14299TIP3    H264389   5.604   5.237   1.828 -1.0397  0.2924  0.8655
14300TIP3   OH264390   6.117   1.867   2.231 -0.5668 -0.1167 -0.1423
14300TIP3    H164391   6.114   1.842   2.323  0.0739  2.1446  0.5158
14300TIP3    H264392   6.208   1.891   2.215 -0.7680 -0.0413 -1.2520
14301TIP3   OH264393   3.819   2.643   0.575  0.0348 -0.5278 -0.5737
14301TIP3    H164394   3.773   2.590   0.510  0.3652 -0.6669 -0.6946
14301TIP3    H264395   3.907   2.605   0.580  0.4294  0.3131 -1.0225
14302TIP3   OH264396   5.970   0.593   4.518  0.1588  0.2691  0.3163
14302TIP3    H164397   6.004   0.599   4.429  0.2509 -1.5856  0.2121
14302TIP3    H264398   6.000   0.508   4.550 -2.4394 -0.4394  1.0177
14303TIP3   OH264399   4.077   3.536  16.494 -0.3148  0.0506  0.0312
14303TIP3    H164400   4.138   3.474  16.454 -0.8549 -0.1946 -0.4310
14303TIP3    H264401   4.008   3.481  16.530  0.1583  0.2777  1.2989
14304TIP3   OH264402   4.850   0.220  17.047 -0.5346  0.3687 -0.3063
14304TIP3    H164403   4.794   0.145  17.025  2.1619 -1.3593 -1.5304
14304TIP3    H264404   4.939   0.184  17.045  0.6464  3.1014  1.3531
14305TIP3   OH264405   4.309   4.528  17.223  0.8918  0.4214  0.0386
14305TIP3    H164406   4.254   4.552  17.149  3.4763  3.7577 -0.9180
14305TIP3    H264407   4.247   4.494  17.288 -2.2540  3.2578 -1.2663
14306TIP3   OH264408   3.719   6.111  15.837 -0.2103  0.6412 -0.5277
14306TIP3    H164409   3.773   6.044  15.795 -0.1716  1.9993 -2.7189
14306TIP3    H264410   3.748   6.110  15.929  0.9092 -1.2077 -0.8548
14307TIP3   OH264411   3.367   2.822  12.771  0.7993  0.3038  0.2443
14307TIP3    H164412   3.391   2.737  12.735 -0.3468  0.2300 -0.3437
14307TIP3    H264413   3.449   2.871  12.771  0.9627  0.0788 -1.8498
14308TIP3   OH264414   0.576   6.445  14.391 -0.5802  0.1565 -0.2518
14308TIP3    H164415   0.519   6.401  14.454  0.0332  0.0015  0.2038
14308TIP3    H264416   0.641   6.379  14.367 -0.4581  0.3998 -0.6030
14309TIP3   OH264417   1.499   2.307   1.414  0.1887 -0.2533  0.2883
14309TIP3    H164418   1.422   2.341   1.460  0.8577  1.0350  0.4910
14309TIP3    H264419   1.573   2.330   1.470  0.6167 -2.6388  0.7296
14310TIP3   OH264420   1.047   5.204  12.638 -0.0733  0.1701  0.1962
14310TIP3    H164421   1.007   5.241  12.717 -3.7919 -3.8782  0.4151
14310TIP3    H264422   1.095   5.128  12.669 -1.2956 -1.2679 -1.3889
14311TIP3   OH264423   1.117   4.865  13.800  0.3057  0.3395  0.2642
14311TIP3    H164424   1.073   4.916  13.868 -0.4978  0.1641 -0.1249
14311TIP3    H264425   1.082   4.899  13.718  0.3344 -0.3130 -0.0226
14312TIP3   OH264426   3.325   0.940  13.341  0.3518  0.0116 -0.2033
14312TIP3    H164427   3.351   1.022  13.383  1.2280  0.1974 -1.0993
14312TIP3    H264428   3.384   0.874  13.377 -0.7570 -0.3405  0.9790
14313TIP3   OH264429   5.468   2.277   2.983  0.1837  0.0943  0.6975
14313TIP3    H164430   5.494   2.366   2.960  0.8833 -0.4035 -0.4837
14313TIP3    H264431   5.382   2.265   2.943  1.1441 -0.5712 -1.2331
14314TIP3   OH264432   5.876   1.296   6.443 -0.1508 -0.0209  0.4814
14314TIP3    H164433   5.876   1.221   6.383 -2.6530  0.9716 -0.8303
14314TIP3    H264434   5.874   1.372   6.385  1.8968  1.1095  1.8015
14315TIP3   OH264435   6.547   6.162   2.631 -0.1294  0.0865 -0.5203
14315TIP3    H164436   6.636   6.198   2.633 -0.9755  2.1919  0.2844
14315TIP3    H264437   6.515   6.183   2.543  0.3531 -1.1992 -1.0200
14316TIP3   OH264438   2.994   6.346  11.932 -0.1222 -0.2417 -0.2889
14316TIP3    H164439   2.916   6.395  11.955  0.5979  0.9607 -0.3463
14316TIP3    H264440   3.059   6.373  11.996  0.7046 -0.0111 -1.2074
14317TIP3   OH264441   4.163   4.341  14.259  0.3191 -0.3424  0.0830
14317TIP3    H164442   4.255   4.345  14.283  0.3140 -0.5528  0.1378
14317TIP3    H264443   4.155   4.401  14.184  0.6082 -0.7461 -0.2675
14318TIP3   OH264444   3.575   6.036  10.876  0.2549 -0.2063 -0.4171
14318TIP3    H164445   3.522   5.957  10.890 -1.1258  1.0257  1.5939
14318TIP3    H264446   3.524   6.088  10.814  1.0598 -0.7398 -1.5672
14319TIP3   OH264447   2.384   0.522  13.283  0.5686  0.6865  0.5579
14319TIP3    H164448   2.337   0.578  13.221  0.3774 -0.6819 -0.5428
14319TIP3    H264449   2.477   0.535  13.262  0.4280 -1.6373 -1.6824
14320TIP3   OH264450   0.699   3.763  12.584  0.4930 -0.2164 -0.1224
14320TIP3    H164451   0.710   3.668  12.593 -0.2379 -0.4441 -1.3513
14320TIP3    H264452   0.768   3.789  12.523  1.8336  0.3447  1.6244
14321TIP3   OH264453   6.344   1.241   2.637  0.4755  0.1227 -0.4139
14321TIP3    H164454   6.389   1.189   2.570  0.3975  0.1691 -0.5030
14321TIP3    H264455   6.306   1.315   2.589 -1.1105 -0.7960 -0.6283
14322TIP3   OH264456   0.432   3.463   0.755  0.0248 -0.0059 -0.2840
14322TIP3    H164457   0.480   3.444   0.674  1.5122  0.8640  0.3534
14322TIP3    H264458   0.371   3.390   0.765  1.7093 -1.5185 -0.7803
14323TIP3   OH264459   4.211   1.657  12.684  0.0217  0.0562  0.1592
14323TIP3    H164460   4.276   1.615  12.740 -1.5078 -1.0615  1.1116
14323TIP3    H264461   4.129   1.610  12.702 -0.5118 -0.3507 -2.9767
14324TIP3   OH264462   5.568   2.774   5.335  0.4165  0.3402 -0.1292
14324TIP3    H164463   5.618   2.731   5.404 -0.6174 -0.5689  0.0673
14324TIP3    H264464   5.584   2.867   5.348 -1.5525  0.3371  2.7293
14325TIP3   OH264465   6.047   4.060   1.863  0.6604 -0.4549 -0.0410
14325TIP3    H164466   6.111   4.011   1.811  0.5731  0.2201 -0.7894
14325TIP3    H264467   6.078   4.051   1.954  1.3252 -0.8687 -0.3048
14326TIP3   OH264468   5.848   1.366  14.635  0.4351 -0.0387 -0.0579
14326TIP3    H164469   5.759   1.343  14.660  0.2750  0.3954 -0.2108
14326TIP3    H264470   5.880   1.422  14.706 -0.2003  1.6092 -1.0371
14327TIP3   OH264471   5.173   3.698  12.399 -0.3898  0.1326 -0.0607
14327TIP3    H164472   5.229   3.672  12.472 -0.8031  0.4825  0.3867
14327TIP3    H264473   5.121   3.771  12.433 -1.6960 -0.7092 -0.1932
14328TIP3   OH264474   3.824   2.821   2.913 -0.0307  0.4934  0.4095
14328TIP3    H164475   3.752   2.790   2.858 -0.3517  0.0874  1.0506
14328TIP3    H264476   3.797   2.801   3.003  0.9969  0.0855  0.6443
14329TIP3   OH264477   5.103   5.978   4.838  0.2246 -0.0754  0.7234
14329TIP3    H164478   5.179   5.978   4.780 -0.2865  0.3204  0.0426
14329TIP3    H264479   5.134   6.020   4.918  0.9071 -0.5245  0.6998
14330TIP3   OH264480   1.456   0.305   5.373  0.4226 -0.0814 -0.6756
14330TIP3    H164481   1.500   0.247   5.435 -1.0018 -1.7840 -1.2117
14330TIP3    H264482   1.457   0.257   5.290 -0.9728  0.5533 -1.0772
14331TIP3   OH264483   5.986   3.527  15.526 -0.2595  0.2195  0.1855
14331TIP3    H164484   5.894   3.533  15.501 -0.1960 -0.8630 -0.3221
14331TIP3    H264485   6.020   3.453  15.475  0.7457  0.2511  0.8029
14332TIP3   OH264486   6.062   6.411   6.502 -0.3674 -0.1716  0.4732
14332TIP3    H164487   6.031   6.330   6.462 -0.3869 -1.5717  3.2145
14332TIP3    H264488   6.036   6.404   6.594 -0.4654  3.0001  0.7556
14333TIP3   OH264489   1.713   2.666  17.065 -0.0879 -0.3119 -0.0398
14333TIP3    H164490   1.744   2.733  17.126 -0.7724  1.1269 -1.2344
14333TIP3    H264491   1.621   2.653  17.087  0.2930 -1.5877  0.8284
14334TIP3   OH264492   2.115   1.462   5.704  0.3978 -0.3590 -0.0103
14334TIP3    H164493   2.086   1.488   5.617 -0.0436 -1.2764 -0.1439
14334TIP3    H264494   2.194   1.514   5.720  0.4677 -0.1732 -0.9513
14335TIP3   OH264495   0.331   3.862   1.989  0.2868  0.4318  0.2824
14335TIP3    H164496   0.424   3.838   1.993  0.3421  0.8610  1.8289
14335TIP3    H264497   0.329   3.953   2.018 -0.7186  0.1564  1.0989
14336TIP3   OH264498   6.481   5.095  12.502  0.1300 -0.2857  0.8054
14336TIP3    H164499   6.450   5.185  12.492 -0.0689 -0.4617 -0.1891
14336TIP3    H264500   6.489   5.083  12.597 -1.5262  0.2029  1.0192
14337TIP3   OH264501   0.708   3.834   2.515 -0.2388 -0.1595 -0.2560
14337TIP3    H164502   0.759   3.826   2.434 -0.0860 -0.7758 -0.0974
14337TIP3    H264503   0.734   3.759   2.568 -0.0078  0.4896  0.5555
14338TIP3   OH264504   1.424   3.432  13.557 -0.7396  0.3990  0.3556
14338TIP3    H164505   1.426   3.350  13.507  2.5730  0.8613 -0.3456
14338TIP3    H264506   1.420   3.403  13.648 -0.6591 -0.5356  0.0710
14339TIP3   OH264507   2.834   2.835   1.678 -0.0543  0.8460  0.5028
14339TIP3    H164508   2.909   2.815   1.622  0.3982  1.1369  1.0060
14339TIP3    H264509   2.872   2.858   1.763 -0.6408  2.1161  0.4363
14340TIP3   OH264510   2.545   4.301   3.926 -0.3127 -0.6542 -0.3632
14340TIP3    H164511   2.466   4.355   3.923 -0.3313 -0.6932 -0.6588
14340TIP3    H264512   2.514   4.212   3.909 -0.4046 -0.8997  1.0957
14341TIP3   OH264513   1.963   0.571   3.009 -0.0408  0.0631 -0.0989
14341TIP3    H164514   2.039   0.626   2.993  0.7546 -1.2613 -1.0258
14341TIP3    H264515   1.889   0.631   3.008  1.0743  1.5620  2.0513
14342TIP3   OH264516   1.220   5.119  11.994 -0.5926 -0.1341 -0.1118
14342TIP3    H164517   1.282   5.162  12.053 -1.7453  0.6396  0.5300
14342TIP3    H264518   1.204   5.183  11.925 -0.4789 -0.4426 -0.4259
14343TIP3   OH264519   0.424   6.007  12.789 -0.1103 -0.1181  0.1902
14343TIP3    H164520   0.349   6.067  12.784 -0.8489 -1.0422  0.1090
14343TIP3    H264521   0.398   5.931  12.737  1.3794  0.0617 -0.8784
14344TIP3   OH264522   1.703   2.246   5.592  0.4148 -1.0732  0.0273
14344TIP3    H164523   1.721   2.335   5.622 -1.2321 -1.2217  1.6186
14344TIP3    H264524   1.610   2.247   5.568  0.4823 -2.2362 -0.3273
14345TIP3   OH264525   5.943   0.296   2.479  0.0479  0.1340 -0.1373
14345TIP3    H164526   5.893   0.295   2.561 -1.5487 -1.6732 -1.0880
14345TIP3    H264527   5.877   0.294   2.410  1.3963 -0.0212 -1.4600
14346TIP3   OH264528   0.710   6.176   5.322  0.0648  0.7004 -0.1207
14346TIP3    H164529   0.671   6.220   5.246  1.1719 -0.1994 -1.2371
14346TIP3    H264530   0.757   6.102   5.284  0.6530  0.2648  1.4551
14347TIP3   OH264531   5.391   4.579  13.597  0.0628 -0.6992 -0.2739
14347TIP3    H164532   5.486   4.575  13.605  0.1644  0.9112 -0.4236
14347TIP3    H264533   5.367   4.499  13.549  1.2078 -1.6643  0.7380
14348TIP3   OH264534   2.366   0.023   0.885 -0.0661  0.1330  0.1067
14348TIP3    H164535   2.447  -0.021   0.858 -0.7559 -1.2458  0.2517
14348TIP3    H264536   2.347   0.083   0.813  0.4563 -0.3858 -0.4803
14349TIP3   OH264537   6.377   1.785  16.357 -0.1014  0.5061  0.2335
14349TIP3    H164538   6.428   1.865  16.371 -1.4955  1.4243  0.2778
14349TIP3    H264539   6.356   1.755  16.446 -1.3283  1.2705  0.2158
14350TIP3   OH264540   0.140   3.695  11.595  0.1493  0.0998 -0.8264
14350TIP3    H164541   0.107   3.655  11.675 -0.4966  1.0475 -0.6112
14350TIP3    H264542   0.136   3.625  11.529 -1.5321 -0.0306 -0.6011
14351TIP3   OH264543   2.551   0.685   2.406  0.1213 -0.4787 -0.2089
14351TIP3    H164544   2.548   0.598   2.446  0.2970  0.1801  1.2436
14351TIP3    H264545   2.599   0.739   2.469  3.4154 -0.2217 -2.8094
14352TIP3   OH264546   2.766   5.519  14.038  0.3366 -0.4068  0.7622
14352TIP3    H164547   2.684   5.559  14.067 -0.1071 -0.0588 -0.8816
14352TIP3    H264548   2.782   5.449  14.101 -0.0021  0.9767  2.4399
14353TIP3   OH264549   3.437   5.954  15.171  0.5080 -0.0345  0.6691
14353TIP3    H164550   3.355   5.906  15.157  0.2823  0.4211  0.4318
14353TIP3    H264551   3.430   6.030  15.114  1.2098 -0.1237  0.4632
14354TIP3   OH264552   6.445   6.601   2.333 -0.0205 -0.9851  0.2448
14354TIP3    H164553   6.357   6.616   2.367 -0.4147 -1.5712 -0.5037
14354TIP3    H264554   6.457   6.506   2.339  0.1226 -1.0334 -0.6945
14355TIP3   OH264555   3.711   6.538   2.516  0.0147 -0.5799 -0.4151
14355TIP3    H164556   3.698   6.610   2.578  2.2706  0.2046 -0.7979
14355TIP3    H264557   3.741   6.465   2.569  0.0541 -0.4984 -0.3255
14356TIP3   OH264558   5.971   3.718   1.471  0.0602 -0.3169  0.3783
14356TIP3    H164559   5.918   3.787   1.512 -1.4663 -0.2826 -1.5818
14356TIP3    H264560   5.908   3.669   1.417  1.4443 -2.2208  0.4584
14357TIP3   OH264561   6.385   6.536   6.573  0.9566 -0.2895  0.2414
14357TIP3    H164562   6.449   6.605   6.555  1.3223 -0.1558  1.9486
14357TIP3    H264563   6.427   6.481   6.640 -0.2350 -0.8811  0.5270
14358TIP3   OH264564   1.042   4.819   2.071  0.3086  0.6297 -0.0078
14358TIP3    H164565   1.078   4.850   2.154  0.4663  2.0381 -0.5902
14358TIP3    H264566   0.952   4.850   2.071  0.2541  0.4707 -0.2740
14359TIP3   OH264567   5.962   4.601  13.316  0.2551 -0.1067  0.4043
14359TIP3    H164568   6.037   4.565  13.363  0.9381  0.4734 -0.2363
14359TIP3    H264569   5.985   4.693  13.300 -0.3842 -0.0471 -0.2115
14360TIP3   OH264570   4.086   0.340   1.461  0.1792  0.0132 -0.1725
14360TIP3    H164571   4.163   0.372   1.509  0.0283  0.4089 -0.1891
14360TIP3    H264572   4.067   0.410   1.398 -1.0687  0.5804  0.7997
14361TIP3   OH264573   1.452   6.099   3.518 -0.3815  0.2915 -0.0252
14361TIP3    H164574   1.475   6.011   3.550 -2.5854 -0.3332 -0.0377
14361TIP3    H264575   1.500   6.108   3.436 -0.9084 -1.3377 -0.5402
14362TIP3   OH264576   3.673   5.904   0.275  0.4088  0.3352  0.0492
14362TIP3    H164577   3.716   5.866   0.351 -0.5559 -2.2327 -0.6336
14362TIP3    H264578   3.745   5.924   0.215  0.9471 -0.5863  0.3656
14363TIP3   OH264579   0.656   6.763   0.218  0.7523 -0.6365  0.3001
14363TIP3    H164580   0.651   6.858   0.227  0.7156 -0.5214 -0.8220
14363TIP3    H264581   0.736   6.739   0.265 -0.4331 -0.3348  2.5600
14364TIP3   OH264582   0.450   1.419  16.166 -0.6036 -0.2176 -0.0013
14364TIP3    H164583   0.484   1.382  16.248 -0.3182  0.7252  0.3182
14364TIP3    H264584   0.520   1.477  16.135 -0.5630 -0.8423 -1.1091
14365TIP3   OH264585   6.577   5.174   3.716  0.2353 -0.3254 -0.0078
14365TIP3    H164586   6.671   5.158   3.725 -0.0088 -1.6381  0.2509
14365TIP3    H264587   6.565   5.196   3.624  1.0139  1.4145  0.2788
14366TIP3   OH264588   4.931   3.549   1.506 -0.2538  0.3500 -0.3282
14366TIP3    H164589   4.882   3.473   1.537  3.3469 -1.6369  0.7111
14366TIP3    H264590   4.927   3.543   1.410  1.1041 -1.9743 -0.2786
14367TIP3   OH264591   6.231   4.195  10.543 -0.1870 -0.0379 -0.3227
14367TIP3    H164592   6.170   4.246  10.490  0.2316  0.1702 -0.6135
14367TIP3    H264593   6.251   4.252  10.618  0.7622  0.5014 -0.9630
14368TIP3   OH264594   4.026   4.930  13.906 -0.1388 -0.2151  0.3263
14368TIP3    H164595   4.027   4.910  14.000 -1.0873 -0.7165  0.2319
14368TIP3    H264596   4.000   4.848  13.865 -1.2888  0.4406 -0.2646
14369TIP3   OH264597   1.083   2.425  11.061  0.3944 -0.0026 -0.1364
14369TIP3    H164598   1.095   2.332  11.043 -0.8102 -0.0195 -0.9226
14369TIP3    H264599   1.041   2.460  10.982 -0.2739  0.9603  0.6326
14370TIP3   OH264600   5.033   5.714   6.414 -0.4540 -0.2704 -0.6412
14370TIP3    H164601   5.066   5.724   6.325 -1.1067 -1.3556 -1.0088
14370TIP3    H264602   4.974   5.790   6.426 -0.6786 -0.3429 -1.2735
14371TIP3   OH264603   4.254   0.262  11.084  0.1911  0.2570 -0.1812
14371TIP3    H164604   4.177   0.252  11.028 -0.7190  2.5539  0.6371
14371TIP3    H264605   4.323   0.214  11.037 -1.0451  0.4484 -2.2562
14372TIP3   OH264606   2.591   5.535  11.742 -0.3325 -0.2822  0.0500
14372TIP3    H164607   2.581   5.463  11.804 -0.1658  0.2537  0.7078
14372TIP3    H264608   2.676   5.521  11.701 -0.0844 -0.1921  0.5307
14373TIP3   OH264609   0.937   3.752   0.062 -0.3368 -0.3278 -0.4509
14373TIP3    H164610   0.938   3.833   0.011 -2.3380 -0.5613 -0.8781
14373TIP3    H264611   0.947   3.683  -0.003  0.1305 -0.4881 -0.2099
14374TIP3   OH264612   5.847   3.470  12.878 -0.2099  0.0280 -0.8747
14374TIP3    H164613   5.810   3.526  12.946  0.5824 -0.0434 -0.3814
14374TIP3    H264614   5.914   3.525  12.837  1.2026 -0.8731  0.2172
14375TIP3   OH264615   6.568   5.864   5.086  0.3429  0.7058  0.5839
14375TIP3    H164616   6.594   5.813   5.163  0.5737 -0.5961 -0.3382
14375TIP3    H264617   6.491   5.913   5.115  0.6674  0.5341  1.7591
14376TIP3   OH264618   3.203   5.667   2.125 -0.1513 -0.2097  0.6631
14376TIP3    H164619   3.118   5.709   2.113 -0.1181 -0.4747 -0.5429
14376TIP3    H264620   3.214   5.661   2.220 -0.7182  1.3737  0.8488
14377TIP3   OH264621   6.061   2.425  16.627  0.0976 -0.4802 -0.3425
14377TIP3    H164622   6.082   2.386  16.542  2.0472  2.5359 -1.3274
14377TIP3    H264623   5.995   2.491  16.607  0.0971 -0.1873  0.5931
14378TIP3   OH264624   2.358   4.125  10.806  0.6011 -0.0407  0.4874
14378TIP3    H164625   2.446   4.116  10.842 -0.4321  0.8781  3.4387
14378TIP3    H264626   2.325   4.206  10.845 -2.5052 -1.7637  1.6634
14379TIP3   OH264627   6.098   0.189   0.201 -0.2106 -0.3107 -0.4353
14379TIP3    H164628   6.076   0.153   0.287 -0.8181 -1.1520 -0.9282
14379TIP3    H264629   6.193   0.203   0.204  0.1979 -2.7900 -0.5068
14380TIP3   OH264630   4.544   4.836   1.833  0.0858 -0.2807  0.5722
14380TIP3    H164631   4.495   4.916   1.816  0.9797  0.4228  1.2455
14380TIP3    H264632   4.636   4.863   1.831  0.3642 -1.1105  1.7119
14381TIP3   OH264633   6.048   2.368   0.925 -0.5350 -0.6558 -0.2059
14381TIP3    H164634   6.077   2.370   0.834 -0.9218 -0.7865 -0.3323
14381TIP3    H264635   6.105   2.303   0.967 -0.4613 -0.7111 -0.3912
14382TIP3   OH264636   4.119   4.755  14.697 -0.1658  0.1491 -0.0751
14382TIP3    H164637   4.155   4.667  14.703  0.6635  0.6560  2.9315
14382TIP3    H264638   4.192   4.810  14.670  0.0513  0.3743  0.9662
14383TIP3   OH264639   4.236   4.900   3.561  0.1014  0.2575  0.4395
14383TIP3    H164640   4.158   4.860   3.523  1.3942  0.3287 -2.4517
14383TIP3    H264641   4.235   4.990   3.529  0.2739  0.8714  2.1195
14384TIP3   OH264642   5.699   0.112   3.084  0.1157 -0.3653 -0.3258
14384TIP3    H164643   5.744   0.164   3.018  0.9616 -2.0327 -1.0911
14384TIP3    H264644   5.612   0.153   3.092  0.4362  0.5695 -1.5833
14385TIP3   OH264645   1.772   5.328   1.728  0.7220 -0.4826 -0.5049
14385TIP3    H164646   1.722   5.321   1.809  1.1492 -0.3474 -0.2293
14385TIP3    H264647   1.729   5.267   1.668 -1.4479  1.5388 -1.1291
14386TIP3   OH264648   2.327   3.901  16.912  0.8785 -0.6452 -0.2491
14386TIP3    H164649   2.319   3.969  16.845 -0.5186 -1.0212 -0.4752
14386TIP3    H264650   2.238   3.890  16.946  1.0509 -2.4794 -0.3346
14387TIP3   OH264651   0.200   4.826   4.898 -0.5308 -0.4422 -0.2229
14387TIP3    H164652   0.256   4.867   4.964 -1.7285 -2.1473  1.9109
14387TIP3    H264653   0.230   4.736   4.893  0.9044  0.1647 -3.5742
14388TIP3   OH264654   6.018   0.001  15.162  0.3261 -0.3319  0.5168
14388TIP3    H164655   6.048   0.078  15.114  0.0813  0.5875  1.8006
14388TIP3    H264656   6.086  -0.064  15.148  1.3649  0.6779  0.7990
14389TIP3   OH264657   1.244   0.835   4.472  0.0036  0.0440  0.2698
14389TIP3    H164658   1.280   0.763   4.419  0.0024  0.8168 -0.7977
14389TIP3    H264659   1.313   0.902   4.471 -1.0064  1.0964 -0.8937
14390TIP3   OH264660   1.447   5.995  16.167 -0.2196 -0.1857  0.4319
14390TIP3    H164661   1.414   5.922  16.219  0.1200 -1.0189 -0.5073
14390TIP3    H264662   1.481   5.955  16.087  0.1290  0.9794 -0.0249
14391TIP3   OH264663   4.473   3.235  15.193 -0.0148  0.2848  0.0303
14391TIP3    H164664   4.457   3.278  15.109  0.4417 -0.6517 -0.5382
14391TIP3    H264665   4.411   3.277  15.253 -0.6709  0.6256 -0.8713
14392TIP3   OH264666   0.814   4.361  15.592 -0.5386 -0.6736  0.0651
14392TIP3    H164667   0.734   4.362  15.644 -0.6752 -1.5009 -0.1333
14392TIP3    H264668   0.871   4.425  15.635 -2.0283  1.4201 -0.9392
14393TIP3   OH264669   4.580   5.866  11.081  0.6284 -0.0631  0.3368
14393TIP3    H164670   4.609   5.785  11.121 -1.9010 -1.3105 -0.2175
14393TIP3    H264671   4.623   5.868  10.995 -0.4431 -1.5899 -0.2548
14394TIP3   OH264672   3.724   0.176  15.519  0.1290 -0.3545  0.1620
14394TIP3    H164673   3.748   0.084  15.522 -0.1342 -0.4389 -0.3480
14394TIP3    H264674   3.741   0.208  15.608 -2.4509 -1.5705  1.1457
14395TIP3   OH264675   4.974   1.061  12.648 -0.5815  0.6886 -0.2985
14395TIP3    H164676   5.057   1.016  12.660 -1.2062 -0.6365 -0.8886
14395TIP3    H264677   4.996   1.140  12.599  0.2632  0.1172 -0.8384
14396TIP3   OH264678   5.521   3.848  12.432 -0.4815 -0.5259  0.0665
14396TIP3    H164679   5.513   3.813  12.343 -0.1991  0.0801 -0.1997
14396TIP3    H264680   5.489   3.778  12.489  0.1196 -1.2296 -0.4616
14397TIP3   OH264681   1.264   1.824   0.305 -0.0075  0.3891 -0.0342
14397TIP3    H164682   1.315   1.745   0.287 -1.2399 -0.3740 -0.2424
14397TIP3    H264683   1.265   1.873   0.223  1.1293  0.8192  0.2246
14398TIP3   OH264684   3.153   5.318   1.793 -0.4915 -0.1740 -0.5842
14398TIP3    H164685   3.081   5.373   1.823 -1.0016 -0.6404 -0.9455
14398TIP3    H264686   3.220   5.380   1.763 -1.8740  0.2619 -2.9209
14399TIP3   OH264687   3.415   3.484   5.407 -0.6868 -0.0864 -0.6330
14399TIP3    H164688   3.385   3.572   5.432  0.0977  0.0721 -0.2157
14399TIP3    H264689   3.413   3.484   5.311  1.2686  1.1156 -0.7227
14400TIP3   OH264690   0.495   3.401   1.085  0.1766 -0.0062 -0.2091
14400TIP3    H164691   0.543   3.356   1.016 -1.2711 -0.1323 -1.1666
14400TIP3    H264692   0.489   3.492   1.054  1.8671  0.5421  1.0446
14401TIP3   OH264693   2.147   0.301  15.502 -0.5763 -0.4427 -0.5472
14401TIP3    H164694   2.120   0.381  15.548  0.6945 -0.0320 -0.4949
14401TIP3    H264695   2.131   0.319  15.410  0.7551  0.3250 -0.6523
14402TIP3   OH264696   6.592   1.611  16.934 -0.1448  0.2970  0.7227
14402TIP3    H164697   6.683   1.635  16.914  0.0826 -1.4910 -0.5011
14402TIP3    H264698   6.597   1.569  17.020  0.7307 -2.6061 -0.6571
14403TIP3   OH264699   3.771   0.792  14.267  0.3204  0.7468 -0.3497
14403TIP3    H164700   3.839   0.737  14.306  1.1206  1.3576 -0.8843
14403TIP3    H264701   3.755   0.860  14.333  0.3175  0.6819 -0.2833
14404TIP3   OH264702   3.135   5.650   0.655 -0.0064  0.2591  0.2881
14404TIP3    H164703   3.072   5.686   0.718 -0.0745  0.2087  0.2486
14404TIP3    H264704   3.220   5.672   0.692 -0.0387 -0.5752  0.8771
14405TIP3   OH264705   4.449   6.819  16.328  0.2330 -0.0107 -0.5172
14405TIP3    H164706   4.435   6.815  16.423  1.4163  1.9489 -0.2324
14405TIP3    H264707   4.371   6.863  16.294 -0.0591 -0.4519 -0.4275
14406TIP3   OH264708   6.000   6.512  12.740  0.5508 -0.1946  0.7078
14406TIP3    H164709   5.928   6.456  12.768 -0.3834  0.5625 -0.1421
14406TIP3    H264710   6.065   6.451  12.705 -0.5967 -0.7500 -0.5146
14407TIP3   OH264711   1.385   5.843   2.434  0.2818  0.2188 -0.5972
14407TIP3    H164712   1.409   5.778   2.500  0.8735  1.8131  0.8088
14407TIP3    H264713   1.447   5.829   2.362  1.8147  0.6509  0.6246
14408TIP3   OH264714   5.650   3.788   3.668  0.0317 -0.3511  0.4532
14408TIP3    H164715   5.705   3.816   3.742 -0.1347  2.1398 -0.3501
14408TIP3    H264716   5.572   3.752   3.710  0.6137 -0.4150  1.5240
14409TIP3   OH264717   6.687   1.452   0.115 -0.4836 -0.3029  0.1502
14409TIP3    H164718   6.658   1.373   0.161  0.6873 -1.0303 -0.3388
14409TIP3    H264719   6.725   1.507   0.183  1.2823 -1.3936  0.0827
14410TIP3   OH264720   3.188   1.478   4.017  0.2267 -0.2080 -0.3429
14410TIP3    H164721   3.115   1.426   3.983 -0.9533  0.0969  1.5982
14410TIP3    H264722   3.206   1.542   3.949  0.2949 -1.8365 -1.8751
14411TIP3   OH264723   0.614   6.296   2.066  0.1375  0.1304  0.0467
14411TIP3    H164724   0.541   6.331   2.116  0.8385 -0.1748  1.2983
14411TIP3    H264725   0.692   6.337   2.104  0.4905  1.8828 -2.4874
14412TIP3   OH264726   5.647   6.055   1.493  0.0626 -0.0676  1.1927
14412TIP3    H164727   5.711   6.091   1.555  1.6408 -0.1544 -0.3331
14412TIP3    H264728   5.653   5.961   1.505 -1.1423 -0.0109  2.3462
14413TIP3   OH264729   0.736   1.610  14.133 -0.3248 -0.2175 -0.2762
14413TIP3    H164730   0.790   1.689  14.128 -1.6841  0.7039 -0.5852
14413TIP3    H264731   0.758   1.561  14.054  1.5387 -0.8282  0.5900
14414TIP3   OH264732   0.866   0.307   0.677  0.0066 -0.1664  1.0496
14414TIP3    H164733   0.806   0.305   0.752  1.5629  0.6389  2.3320
14414TIP3    H264734   0.833   0.379   0.623 -0.7655 -0.3525  1.2648
14415TIP3   OH264735   3.183   0.744   3.296  0.1382  0.0323  0.4105
14415TIP3    H164736   3.146   0.712   3.214  1.6898 -0.3771 -0.1491
14415TIP3    H264737   3.210   0.834   3.278 -3.3678  1.4166  1.7176
14416TIP3   OH264738   5.276   0.629  14.244 -0.0785 -0.4921  0.5870
14416TIP3    H164739   5.363   0.645  14.280 -0.9599  2.6334  1.4906
14416TIP3    H264740   5.281   0.660  14.153 -0.2513 -0.2148  0.6704
14417TIP3   OH264741   3.596   0.706  12.456 -0.2538 -0.4965  0.1832
14417TIP3    H164742   3.634   0.618  12.457  2.0417  0.4199 -2.3326
14417TIP3    H264743   3.664   0.761  12.416 -1.9354  2.2912  1.0688
14418TIP3   OH264744   6.165   4.066  10.958  0.0704 -0.5906  0.4452
14418TIP3    H164745   6.250   4.029  10.934  0.1945 -0.0758  0.0797
14418TIP3    H264746   6.135   4.013  11.032  1.5606  0.4192  1.7969
14419TIP3   OH264747   1.143   3.362   1.851  0.5967 -0.3471 -0.4069
14419TIP3    H164748   1.142   3.324   1.763 -0.4498 -0.4424 -0.3544
14419TIP3    H264749   1.069   3.322   1.895  2.5346 -2.1560  1.3217
14420TIP3   OH264750   0.678   5.519  16.661  0.7265 -1.0646 -0.1530
14420TIP3    H164751   0.705   5.518  16.753 -0.1673 -0.2270  0.1251
14420TIP3    H264752   0.588   5.552  16.663 -0.1927 -3.3958 -1.0933
14421TIP3   OH264753   2.403   5.787   1.060  0.8369  0.2493 -0.6485
14421TIP3    H164754   2.457   5.718   1.022  0.6110  0.1620 -0.8118
14421TIP3    H264755   2.334   5.802   0.995 -0.2122 -0.7030  0.2326
14422TIP3   OH264756   0.896   5.706   6.509  0.0997 -0.3712  0.0307
14422TIP3    H164757   0.848   5.788   6.505 -1.8653 -1.5178 -0.5928
14422TIP3    H264758   0.897   5.683   6.602 -0.0168 -0.0372  0.1147
14423TIP3   OH264759   1.053   4.164   0.388 -0.4381  0.4162 -0.4140
14423TIP3    H164760   1.115   4.093   0.372  2.1234  2.9288 -1.9870
14423TIP3    H264761   1.099   4.224   0.446 -0.7366  3.1439 -2.9121
14424TIP3   OH264762   4.081   2.299  11.670 -0.0451 -0.6817  0.3554
14424TIP3    H164763   4.144   2.268  11.605  1.3900  0.6093  1.0978
14424TIP3    H264764   4.079   2.231  11.737 -1.4092 -1.9407 -0.9121
14425TIP3   OH264765   3.969   4.911  16.719  0.1091 -0.1899  0.0677
14425TIP3    H164766   3.966   5.003  16.747  0.8587 -0.6874  1.7860
14425TIP3    H264767   4.057   4.900  16.683  0.5934 -0.6710  1.3834
14426TIP3   OH264768   2.606   6.422   5.685 -0.1642  0.0402 -0.2684
14426TIP3    H164769   2.630   6.343   5.636 -1.4992 -1.3151  1.1817
14426TIP3    H264770   2.523   6.449   5.647  0.0720  0.4833 -0.4654
14427TIP3   OH264771   2.009   2.927   4.709 -0.2412  0.3706 -0.0274
14427TIP3    H164772   2.026   3.019   4.727  0.9575  0.0930  0.3357
14427TIP3    H264773   2.082   2.899   4.655 -0.1254 -0.5808  0.6008
14428TIP3   OH264774   6.483   1.801  10.788  0.1331 -0.3926 -0.0056
14428TIP3    H164775   6.388   1.807  10.791  0.0498 -0.0973 -2.6537
14428TIP3    H264776   6.503   1.721  10.837 -1.5847 -1.3770 -0.8675
14429TIP3   OH264777   1.940   3.260   2.045 -0.0327 -0.0491  0.4070
14429TIP3    H164778   1.863   3.314   2.029  1.5551  2.5135  1.1740
14429TIP3    H264779   1.981   3.298   2.123  1.9445 -1.4243  0.0898
14430TIP3   OH264780   5.485   1.606   6.364 -0.5480 -0.5234  0.3140
14430TIP3    H164781   5.425   1.613   6.438 -1.1726 -0.9342 -0.1521
14430TIP3    H264782   5.544   1.681   6.373  0.5219 -1.5421  2.2538
14431TIP3   OH264783   1.275   1.918   0.066 -0.4698  0.1451 -0.0312
14431TIP3    H164784   1.202   1.873   0.023 -1.0706  1.6036 -0.5783
14431TIP3    H264785   1.353   1.875   0.031 -1.0525 -1.3097  0.4224
14432TIP3   OH264786   0.015   3.060  16.124 -0.0337  0.1954 -0.5695
14432TIP3    H164787   0.093   3.007  16.142  0.0082  0.3025 -0.4320
14432TIP3    H264788  -0.011   3.035  16.036  0.6613  0.7975 -0.9515
14433TIP3   OH264789   1.803   2.403  13.834  0.5536  0.1436 -0.5412
14433TIP3    H164790   1.857   2.347  13.890  0.2119  0.0698 -0.2836
14433TIP3    H264791   1.714   2.393  13.868  0.8644  2.9406  1.1959
14434TIP3   OH264792   0.789   2.103  15.505 -0.0437  0.0547  0.2794
14434TIP3    H164793   0.751   2.171  15.450 -0.6209  1.8652  2.8642
14434TIP3    H264794   0.875   2.086  15.466  0.1867  2.3983 -0.2837
14435TIP3   OH264795   6.723   1.879   0.528 -0.8462  0.2284 -0.2039
14435TIP3    H164796   6.659   1.924   0.474 -0.1341  2.2053  0.5399
14435TIP3    H264797   6.723   1.928   0.611  1.6337  0.3144 -0.2029
14436TIP3   OH264798   3.848   1.350   5.717  0.2915 -0.1133 -0.1180
14436TIP3    H164799   3.761   1.375   5.749  0.2650 -2.1229  1.4960
14436TIP3    H264800   3.889   1.432   5.691 -1.8692  0.9295 -0.3491
14437TIP3   OH264801   0.744   5.648  15.543  0.7688  0.2395  0.7033
14437TIP3    H164802   0.790   5.610  15.618  1.5979 -0.4791 -0.1493
14437TIP3    H264803   0.707   5.574  15.497 -0.1948  0.7257  0.6895
14438TIP3   OH264804   1.213   4.549   4.594  0.2920 -0.1076 -0.1542
14438TIP3    H164805   1.150   4.501   4.648  2.2259  0.0876  2.3975
14438TIP3    H264806   1.198   4.516   4.505 -2.6905 -0.7694  0.5302
14439TIP3   OH264807   3.515   4.197   1.370 -0.1319  0.3780 -1.1863
14439TIP3    H164808   3.606   4.213   1.344  0.3206 -0.6275 -0.2718
14439TIP3    H264809   3.516   4.109   1.407 -1.4029  0.5263 -0.7820
14440TIP3   OH264810   2.398   3.834  13.044  0.0790  0.0052 -0.8422
14440TIP3    H164811   2.332   3.792  12.987 -1.3014  1.7007 -0.5269
14440TIP3    H264812   2.398   3.780  13.123 -1.0268  0.0352 -0.8044
14441TIP3   OH264813   4.440   4.320  14.311 -0.3070 -0.0997 -0.1422
14441TIP3    H164814   4.469   4.294  14.398 -0.6435 -1.8855 -0.5442
14441TIP3    H264815   4.453   4.415  14.309  1.4201 -0.2763  1.2086
14442TIP3   OH264816   0.156   4.677   2.787  0.2995  0.3870  0.0875
14442TIP3    H164817   0.129   4.622   2.714 -1.1289 -0.1302  0.9836
14442TIP3    H264818   0.079   4.730   2.807  2.2168  4.0995 -1.9479
14443TIP3   OH264819   6.060   5.447  13.433 -0.1876 -0.3567 -0.0364
14443TIP3    H164820   5.978   5.462  13.385  0.1204  0.6535 -0.2625
14443TIP3    H264821   6.127   5.490  13.380  0.9122 -3.3915 -1.1949
14444TIP3   OH264822   3.274   3.066   1.115 -0.4188  0.3638  0.6047
14444TIP3    H164823   3.317   2.995   1.161 -1.1801  0.9114  2.1801
14444TIP3    H264824   3.311   3.146   1.152 -0.2442  0.8076 -0.5004
14445TIP3   OH264825   2.914   3.744  15.631  0.5912  0.4384 -0.0724
14445TIP3    H164826   2.850   3.713  15.696  0.4047 -0.3522 -0.6295
14445TIP3    H264827   2.996   3.752  15.680  0.3077  0.4365  0.4042
14446TIP3   OH264828   2.174   3.756  13.750  0.5493  0.5008  0.0334
14446TIP3    H164829   2.187   3.715  13.835  1.7526  0.4020 -0.1878
14446TIP3    H264830   2.129   3.838  13.769 -1.7244 -0.7999  0.4970
14447TIP3   OH264831   6.373   5.137   0.955  0.8516 -0.7231 -0.2559
14447TIP3    H164832   6.433   5.176   1.019  0.8359 -0.4700 -0.3967
14447TIP3    H264833   6.420   5.143   0.872  1.2630 -1.8931 -0.1241
14448TIP3   OH264834   4.842   5.053   5.329 -0.1235  0.1877  0.0898
14448TIP3    H164835   4.870   4.979   5.382 -0.5260  0.5832  0.8646
14448TIP3    H264836   4.892   5.127   5.363 -2.4214  0.9986  1.8218
14449TIP3   OH264837   0.696   0.057  17.243  0.3166  0.1025 -0.4581
14449TIP3    H164838   0.691   0.009  17.326  1.4042 -0.6873 -0.8366
14449TIP3    H264839   0.764   0.012  17.193 -0.0160  0.8501 -1.6084
14450TIP3   OH264840   1.394   5.708   0.784 -0.4873 -0.2506 -0.5626
14450TIP3    H164841   1.420   5.618   0.761  0.7555  0.2236 -1.0749
14450TIP3    H264842   1.424   5.718   0.875  1.9426  0.5701 -1.4199
14451TIP3   OH264843   3.872   3.782  10.304  0.0305 -0.0299 -0.0749
14451TIP3    H164844   3.875   3.711  10.367  1.7949 -1.0608 -1.2606
14451TIP3    H264845   3.806   3.756  10.240  2.6754 -2.0935 -2.1164
14452TIP3   OH264846   6.394   4.579   2.458 -0.3376 -1.0652 -0.3463
14452TIP3    H164847   6.371   4.571   2.550  0.8208  0.9931  0.1579
14452TIP3    H264848   6.453   4.506   2.440  0.7680 -0.5073  0.9851
14453TIP3   OH264849   6.486   2.374  15.132  0.0448 -0.3167  0.0216
14453TIP3    H164850   6.434   2.336  15.203 -1.0971  1.7218  0.3326
14453TIP3    H264851   6.538   2.442  15.174  1.2083 -0.7519 -0.6957
14454TIP3   OH264852   0.583   0.048  10.728 -0.4315  0.1558  0.6018
14454TIP3    H164853   0.545   0.064  10.814  1.5621 -0.9003  1.6982
14454TIP3    H264854   0.621  -0.040  10.734  1.0960  0.6917 -0.8302
14455TIP3   OH264855   5.095   3.590  17.062 -0.3240 -0.3656  0.1337
14455TIP3    H164856   5.003   3.614  17.050  0.2218  1.4918 -0.4765
14455TIP3    H264857   5.097   3.496  17.045 -2.0097 -0.3247 -0.4135
14456TIP3   OH264858   5.877   1.623  12.297 -0.5940 -0.4148 -0.1365
14456TIP3    H164859   5.929   1.676  12.357 -1.8526 -0.8838  1.3954
14456TIP3    H264860   5.926   1.541  12.289  0.2047  0.1195 -0.7307
14457TIP3   OH264861   3.237   2.957   3.468  0.5752  0.6710  0.2191
14457TIP3    H164862   3.295   2.979   3.541 -1.7527  0.5875  2.1279
14457TIP3    H264863   3.252   2.864   3.452 -0.2009  0.2752  1.7736
14458TIP3   OH264864   6.447   2.137  17.292 -0.1898 -0.2954 -0.0721
14458TIP3    H164865   6.524   2.161  17.242 -0.8556  0.9572 -0.5077
14458TIP3    H264866   6.377   2.129  17.227 -0.6082 -0.6692  0.4136
14459TIP3   OH264867   6.623   0.538  15.145 -0.9434 -0.4011  0.1458
14459TIP3    H164868   6.681   0.499  15.079  0.9118  0.3022  1.3306
14459TIP3    H264869   6.618   0.630  15.120 -2.7452 -0.7389 -0.7908
14460TIP3   OH264870   3.098   2.215  12.182 -0.3647  0.5451  0.2034
14460TIP3    H164871   3.127   2.129  12.213  1.6688  1.0063 -0.3006
14460TIP3    H264872   3.141   2.224  12.097  0.1916  2.4327  0.6754
14461TIP3   OH264873   0.668   2.729   5.617 -0.2519  0.5172 -0.1779
14461TIP3    H164874   0.645   2.655   5.561  0.8668 -1.1225  1.4766
14461TIP3    H264875   0.729   2.781   5.565 -0.9685  0.2247 -1.3121
14462TIP3   OH264876   2.776   1.865  12.693 -0.0222  0.3548 -0.4434
14462TIP3    H164877   2.755   1.915  12.772  0.5675  2.0738 -1.3587
14462TIP3    H264878   2.704   1.803  12.684  0.6170 -0.8453  2.2398
14463TIP3   OH264879   1.731   2.086   3.053 -0.2332 -0.2756 -0.1375
14463TIP3    H164880   1.704   2.116   2.966  2.3161  0.3649 -0.7620
14463TIP3    H264881   1.782   2.006   3.036  0.8127  0.2027  0.7082
14464TIP3   OH264882   2.882   4.758   3.866  0.5468 -0.2495  0.4506
14464TIP3    H164883   2.864   4.761   3.960  2.1870 -0.9516  0.8098
14464TIP3    H264884   2.819   4.695   3.831 -0.6223  0.6395  0.9397
14465TIP3   OH264885   0.997   6.494  14.859  0.1578  0.0244  0.3311
14465TIP3    H164886   1.006   6.468  14.951  1.7270 -0.8329 -0.0369
14465TIP3    H264887   1.028   6.417  14.810  0.5699  0.9462 -0.8763
14466TIP3   OH264888   3.342   2.652   2.864 -0.2891 -0.5789 -0.1652
14466TIP3    H164889   3.254   2.656   2.901  0.1363  0.7669  0.7418
14466TIP3    H264890   3.347   2.565   2.824 -0.9203 -1.9299  2.5487
14467TIP3   OH264891   1.333   2.529  14.514  0.4817  0.4976 -0.2841
14467TIP3    H164892   1.358   2.518  14.422  0.7466  1.7965 -0.3893
14467TIP3    H264893   1.380   2.608  14.541 -1.6618  1.6437  0.2097
14468TIP3   OH264894   0.220   3.003  12.760 -0.2318 -0.1487  0.1553
14468TIP3    H164895   0.284   3.013  12.689 -1.1748  0.8751 -0.5656
14468TIP3    H264896   0.273   2.990  12.838  0.8207 -2.0353 -0.8380
14469TIP3   OH264897   3.103   2.769   2.972  0.0721  0.2133 -0.0069
14469TIP3    H164898   3.116   2.809   2.886 -1.7617  0.2106 -0.3252
14469TIP3    H264899   3.058   2.837   3.023  0.4440 -0.0630  0.6870
14470TIP3   OH264900   1.695   3.099   4.518 -0.1944  0.4433 -0.3738
14470TIP3    H164901   1.728   3.031   4.576 -0.8724 -1.4465 -2.1291
14470TIP3    H264902   1.746   3.177   4.540  1.6745 -1.0295  0.6091
14471TIP3   OH264903   3.564   4.033   0.532  0.0457 -0.1435 -0.0683
14471TIP3    H164904   3.474   4.001   0.528  0.1709 -0.7099  1.4545
14471TIP3    H264905   3.618   3.957   0.508  0.0554  0.8996 -3.7962
14472TIP3   OH264906   1.918   1.955  14.732  0.3829  0.7283  0.7059
14472TIP3    H164907   1.873   2.013  14.670  0.5617 -0.0903 -0.1902
14472TIP3    H264908   2.006   1.946  14.696  0.1001 -0.7884  0.3962
14473TIP3   OH264909   2.918   5.970  11.695  0.0374  0.0541  0.4149
14473TIP3    H164910   2.993   5.943  11.641  1.2102  1.2141  1.4240
14473TIP3    H264911   2.915   6.065  11.687 -0.0868  0.2021  1.9626
14474TIP3   OH264912   4.386   2.268   5.422 -0.2619 -0.5242  0.8679
14474TIP3    H164913   4.472   2.290   5.387  0.5300 -1.3115  2.3039
14474TIP3    H264914   4.331   2.344   5.401  0.8805  0.1574  0.3297
14475TIP3   OH264915   0.602   6.160  14.504  0.1108 -0.6320  0.1157
14475TIP3    H164916   0.668   6.149  14.572 -0.1203 -1.3583  0.2239
14475TIP3    H264917   0.651   6.150  14.422  0.4344  0.4918  0.1656
14476TIP3   OH264918   3.561   0.811   3.795 -0.2327 -0.3247 -0.4979
14476TIP3    H164919   3.560   0.900   3.759 -1.1234  0.2376  0.8834
14476TIP3    H264920   3.468   0.787   3.800 -0.0316 -1.0042 -0.0601
14477TIP3   OH264921   0.961   1.922   1.136  0.1485  0.1250 -0.3179
14477TIP3    H164922   0.978   2.016   1.140  0.2807  0.0769  0.1962
14477TIP3    H264923   0.867   1.915   1.152  0.4316  0.0395  1.4191
14478TIP3   OH264924   1.046   0.029   0.340 -0.1615 -0.2139  0.2838
14478TIP3    H164925   1.129   0.045   0.384  0.8675 -1.4716 -1.1325
14478TIP3    H264926   1.063   0.050   0.248 -1.3453 -0.6826 -0.0554
14479TIP3   OH264927   3.746   3.980  14.986  0.0042  0.4299  0.3291
14479TIP3    H164928   3.718   4.011  14.900 -3.5658  2.1491  2.0089
14479TIP3    H264929   3.831   4.023  15.000 -0.2745  1.6403 -1.5149
14480TIP3   OH264930   6.732   2.243  15.806  0.0210 -0.1729  0.0506
14480TIP3    H164931   6.707   2.164  15.758  1.0586 -0.7323  0.4197
14480TIP3    H264932   6.688   2.235  15.891 -0.4823  0.0180 -0.1903
14481TIP3   OH264933   3.145   5.672  15.669 -0.7702  0.3721 -0.2830
14481TIP3    H164934   3.083   5.602  15.690 -0.5355 -0.1828 -1.3650
14481TIP3    H264935   3.229   5.628  15.659 -0.3880  0.9834  0.2169
14482TIP3   OH264936   5.934   5.287   0.874  0.7229 -0.0085  0.3639
14482TIP3    H164937   5.852   5.335   0.865  1.2589  0.5088 -2.1426
14482TIP3    H264938   5.919   5.205   0.827  1.4988 -0.0849  0.2403
14483TIP3   OH264939   0.172   2.961  11.099 -0.1053 -0.3350  0.2856
14483TIP3    H164940   0.144   3.033  11.042 -1.8371 -0.6563  0.6944
14483TIP3    H264941   0.267   2.969  11.102 -0.2453  1.8136  0.1680
14484TIP3   OH264942   0.543   2.473  15.944 -0.9281 -0.2761 -0.5429
14484TIP3    H164943   0.562   2.382  15.967 -0.0430  0.2649  0.9202
14484TIP3    H264944   0.477   2.501  16.007 -0.0264  0.5833  0.0201
14485TIP3   OH264945   2.821   2.044  15.215  0.0500  0.3605  0.3176
14485TIP3    H164946   2.760   1.978  15.246  1.0370 -0.7609 -0.1024
14485TIP3    H264947   2.892   2.045  15.279  0.2219  0.7344  0.1264
14486TIP3   OH264948   1.869   6.660   2.482 -0.1066  0.2425 -0.0795
14486TIP3    H164949   1.775   6.663   2.501 -0.4200 -0.0623 -1.5513
14486TIP3    H264950   1.892   6.567   2.488  0.5551  0.5310  2.3515
14487TIP3   OH264951   1.083   1.828   2.803  0.2472 -0.0888 -0.3744
14487TIP3    H164952   1.016   1.802   2.865  0.2963 -0.3950 -0.4500
14487TIP3    H264953   1.118   1.910   2.838 -0.8060  0.5546 -0.8189
14488TIP3   OH264954   0.152   1.742  14.354 -0.3909 -0.2443 -0.4023
14488TIP3    H164955   0.102   1.670  14.394 -0.3208 -0.4666 -0.7183
14488TIP3    H264956   0.237   1.738  14.397  0.3193 -1.6559 -1.8980
14489TIP3   OH264957   1.160   5.962  16.706 -0.1537 -0.1857  0.2973
14489TIP3    H164958   1.072   5.953  16.670  0.4335 -0.1870 -1.1685
14489TIP3    H264959   1.197   6.039  16.662  0.9346 -0.7832  0.1373
14490TIP3   OH264960   3.818   4.384   4.115 -0.2724  0.2679  0.2954
14490TIP3    H164961   3.820   4.358   4.207  0.2840  0.2695  0.2860
14490TIP3    H264962   3.907   4.365   4.082 -0.1057  1.3870  0.0757
14491TIP3   OH264963   0.558   5.667   4.510  0.0269  0.3656 -0.2302
14491TIP3    H164964   0.605   5.703   4.585  0.0412 -0.9384  0.4022
14491TIP3    H264965   0.485   5.620   4.548  0.6201 -1.1912 -0.9683
14492TIP3   OH264966   6.346   1.618   5.234  0.5812 -0.4901  0.2448
14492TIP3    H164967   6.261   1.574   5.226  0.4828 -0.2267 -0.1653
14492TIP3    H264968   6.377   1.594   5.321 -1.7992  2.7748  2.0715
14493TIP3   OH264969   5.190   1.807  17.252 -0.3023 -0.2295  0.9670
14493TIP3    H164970   5.251   1.790  17.324  1.3571 -0.1099 -0.3753
14493TIP3    H264971   5.186   1.724  17.204 -0.8114 -0.0870  0.7591
14494TIP3   OH264972   1.749   1.824   4.552  0.6293  0.3309 -0.0573
14494TIP3    H164973   1.842   1.799   4.549  0.5065 -0.1992  0.4183
14494TIP3    H264974   1.705   1.746   4.586  0.2914  1.3602  1.9281
14495TIP3   OH264975   3.396   2.562  17.135 -0.2356  0.3700  0.0378
14495TIP3    H164976   3.471   2.619  17.117 -1.5226  2.0106 -0.2274
14495TIP3    H264977   3.327   2.622  17.164 -1.1180 -1.2321  1.3104
14496TIP3   OH264978   2.648   3.651  11.434  0.1183  0.7497 -0.1352
14496TIP3    H164979   2.597   3.609  11.364 -0.5586  0.6404  0.4133
14496TIP3    H264980   2.681   3.577  11.486  1.1674  0.8102 -0.7195
14497TIP3   OH264981   5.486   4.290  11.567 -0.2921  0.8148  0.0031
14497TIP3    H164982   5.412   4.338  11.528  0.3588  2.4192  0.6766
14497TIP3    H264983   5.545   4.275  11.494  0.3389  2.6906  0.0905
14498TIP3   OH264984   3.722   2.946   2.027 -0.6214 -0.0934 -0.1633
14498TIP3    H164985   3.738   2.865   2.076 -0.3509  0.6434  1.0035
14498TIP3    H264986   3.672   3.001   2.088 -2.0440  0.0827 -1.4623
14499TIP3   OH264987   4.822   1.835   5.468  0.2099  0.1271  0.2268
14499TIP3    H164988   4.763   1.893   5.421 -0.1419 -1.7642 -1.7321
14499TIP3    H264989   4.775   1.812   5.548 -0.8012  0.3354 -0.3066
14500TIP3   OH264990   3.450   5.619   2.394  0.1383  0.0311 -0.1802
14500TIP3    H164991   3.357   5.605   2.380  0.0958 -1.7286  1.5352
14500TIP3    H264992   3.465   5.711   2.372 -1.7166 -0.0474 -1.8199
14501TIP3   OH264993   2.290   2.358  13.048 -0.3623  0.1532 -0.5102
14501TIP3    H164994   2.246   2.424  12.994 -2.8750  0.5470  1.8750
14501TIP3    H264995   2.322   2.407  13.124 -0.2257 -0.9725  0.1662
14502TIP3   OH264996   3.919   5.097   1.544 -0.2779 -0.2893  0.5348
14502TIP3    H164997   3.993   5.133   1.495 -1.5805  2.7842  0.7048
14502TIP3    H264998   3.866   5.173   1.565 -2.1750 -2.1548  2.6545
14503TIP3   OH264999   2.094   3.869  13.175 -0.2976  0.1914  0.0054
14503TIP3    H165000   2.040   3.792  13.192  0.2036  0.0436  0.9467
14503TIP3    H265001   2.112   3.906  13.262  0.8377  0.4208 -0.3137
14504TIP3   OH265002   5.379   6.394   2.736  0.4662  0.3409 -0.0924
14504TIP3    H165003   5.342   6.327   2.678  0.2757  0.0341  0.3862
14504TIP3    H265004   5.410   6.462   2.676 -1.5896  0.9802 -0.4593
14505TIP3   OH265005   3.976   0.268  14.154 -0.0422  0.8862 -0.1766
14505TIP3    H165006   4.063   0.286  14.118  0.3215  1.6049  1.0296
14505TIP3    H265007   3.917   0.277  14.079  0.5847  3.3850 -0.4114
14506TIP3   OH265008   1.369   0.775   4.043  0.0586  0.6562 -0.0533
14506TIP3    H165009   1.456   0.794   4.009  0.0786  0.5455 -0.0645
14506TIP3    H265010   1.379   0.780   4.138  0.3074 -0.3588 -0.0263
14507TIP3   OH265011   5.638   4.867   2.582 -0.2644 -0.7275 -0.6834
14507TIP3    H165012   5.677   4.900   2.501 -1.1791 -1.3432 -1.3796
14507TIP3    H265013   5.712   4.861   2.644  0.9624 -2.8330 -2.2820
14508TIP3   OH265014   6.454   5.419   1.805  0.6852  0.0668  0.2107
14508TIP3    H165015   6.387   5.412   1.737 -0.4588  0.9915  1.2242
14508TIP3    H265016   6.414   5.380   1.883  2.5361 -2.3506  0.0056
14509TIP3   OH265017   1.130   6.167  14.093 -0.3525  0.6039  0.0792
14509TIP3    H165018   1.119   6.127  14.007 -4.6822 -2.2721  1.7579
14509TIP3    H265019   1.206   6.122  14.130  0.2155  0.2897 -1.4370
14510TIP3   OH265020   2.184   5.210  15.576 -0.4107  0.4176 -0.0775
14510TIP3    H165021   2.110   5.197  15.636 -1.3075 -1.1187 -1.4723
14510TIP3    H265022   2.183   5.304  15.557 -0.3792  0.8486  1.9608
14511TIP3   OH265023   2.121   6.791   2.436  0.0225 -0.1243 -0.2571
14511TIP3    H165024   2.136   6.745   2.353  0.4885 -0.5130  0.0473
14511TIP3    H265025   2.044   6.747   2.473 -1.8084  1.7474 -1.7247
14512TIP3   OH265026   3.792   2.386  16.250  0.0535 -0.3467  0.7307
14512TIP3    H165027   3.887   2.388  16.243  0.0937 -0.6776  1.1528
14512TIP3    H265028   3.766   2.477  16.257  0.1267 -0.0505 -2.2059
14513TIP3   OH265029   5.591   1.341   3.815  0.2447 -0.2132  0.3902
14513TIP3    H165030   5.659   1.284   3.779 -0.3482 -0.5569 -0.1952
14513TIP3    H265031   5.619   1.429   3.790 -0.8470 -0.5461 -2.0885
14514TIP3   OH265032   4.570   4.849  13.792  0.2423 -0.2730 -0.1890
14514TIP3    H165033   4.517   4.926  13.810 -0.8121 -1.2475  0.9617
14514TIP3    H265034   4.518   4.800  13.728 -0.7305 -1.6820  1.6277
14515TIP3   OH265035   1.100   0.545   4.784  0.0908 -0.3957  0.6564
14515TIP3    H165036   1.020   0.497   4.802 -0.6050  0.3158 -0.4561
14515TIP3    H265037   1.155   0.484   4.736 -0.3638 -0.4272  0.1717
14516TIP3   OH265038   2.642   0.712  11.814 -0.0648  0.8145 -0.1641
14516TIP3    H165039   2.617   0.729  11.723  1.1359  0.9079 -0.4817
14516TIP3    H265040   2.699   0.636  11.810 -2.6673 -1.2652  0.8943
14517TIP3   OH265041   1.712   0.391   5.988 -0.2491 -0.4954 -0.0208
14517TIP3    H165042   1.773   0.344   6.045  0.3362 -0.2200 -0.4180
14517TIP3    H265043   1.698   0.475   6.031 -0.1125 -0.4399 -0.0854
14518TIP3   OH265044   2.013   6.322   1.402  0.1799 -0.1879 -0.2743
14518TIP3    H165045   2.057   6.283   1.477  2.0358  0.5301 -0.9556
14518TIP3    H265046   1.996   6.248   1.343 -2.5119 -0.9542  1.4148
14519TIP3   OH265047   0.604   3.165   4.468  0.1844  0.2328  0.3512
14519TIP3    H165048   0.550   3.087   4.479 -0.7172  0.6699 -0.8297
14519TIP3    H265049   0.571   3.206   4.387  0.4910  1.9453  1.0652
14520TIP3   OH265050   3.498   4.792  12.040  0.1211  0.4373  0.0959
14520TIP3    H165051   3.420   4.821  11.993 -0.8033 -1.4467  0.4335
14520TIP3    H265052   3.494   4.839  12.124 -0.1838  0.9986 -0.2310
14521TIP3   OH265053   5.517   4.806   6.145 -0.2376  0.3508  0.4386
14521TIP3    H165054   5.428   4.772   6.153 -0.0302 -0.1501  0.6732
14521TIP3    H265055   5.509   4.882   6.088 -0.7295 -0.0281  0.0007
14522TIP3   OH265056   4.108   5.162   4.995  0.1466 -0.2275  0.5014
14522TIP3    H165057   4.167   5.224   4.952  2.4609 -1.9182  1.1610
14522TIP3    H265058   4.119   5.178   5.088  0.8080 -1.6416  0.6807
14523TIP3   OH265059   1.153   6.255   0.349  0.4122  0.5531 -0.3433
14523TIP3    H165060   1.105   6.183   0.307  0.7364 -1.3308  2.3453
14523TIP3    H265061   1.235   6.260   0.300 -0.7277  0.9127 -2.2627
14524TIP3   OH265062   5.154   1.556  16.352  0.5433 -0.1823  0.5049
14524TIP3    H165063   5.120   1.589  16.435 -1.4511 -1.8747  0.4000
14524TIP3    H265064   5.080   1.561  16.292  0.4346 -3.8267  0.2335
14525TIP3   OH265065   3.586   0.290   4.364  0.3017  0.1712 -0.3035
14525TIP3    H165066   3.535   0.364   4.330  1.9033  2.5823  2.2865
14525TIP3    H265067   3.668   0.329   4.393  0.6007 -2.4095  2.5210
14526TIP3   OH265068   1.922   2.861   5.807 -0.5045  0.0359  0.5707
14526TIP3    H165069   1.878   2.886   5.888  0.8995 -1.1291  1.7078
14526TIP3    H265070   1.851   2.826   5.752 -0.9779 -2.4125  2.6167
14527TIP3   OH265071   3.783   3.917   2.660 -0.1684 -0.1058  0.2917
14527TIP3    H165072   3.784   3.958   2.747 -2.9464 -0.0721  0.3600
14527TIP3    H265073   3.753   3.986   2.601 -0.1290 -0.6572 -0.3838
14528TIP3   OH265074   1.707   2.499   4.422 -0.1501 -0.5679 -0.0110
14528TIP3    H165075   1.712   2.436   4.350 -0.6059 -0.7623  0.1316
14528TIP3    H265076   1.634   2.470   4.476 -1.1746  0.8074 -0.6353
14529TIP3   OH265077   1.041   4.854  15.961  0.4949  0.1060  0.1992
14529TIP3    H165078   0.978   4.889  16.025  0.7799  0.1495  0.4565
14529TIP3    H265079   0.994   4.856  15.878  0.4917  1.0632  0.2216
14530TIP3   OH265080   6.273   4.342  12.820 -0.1757 -0.1328  0.1959
14530TIP3    H165081   6.300   4.378  12.736  0.8967 -1.8956 -0.2307
14530TIP3    H265082   6.177   4.350  12.820 -0.0826  1.1050 -0.5972
14531TIP3   OH265083   5.579   5.969   1.760  0.5409 -0.4285  0.0901
14531TIP3    H165084   5.576   5.873   1.750  2.8302 -0.4948 -0.2578
14531TIP3    H265085   5.618   5.982   1.847 -0.5918  0.2143  0.5142
14532TIP3   OH265086   0.798   6.192  14.297  0.8350  0.3705 -0.4525
14532TIP3    H165087   0.859   6.125  14.326  0.0611 -0.6301 -1.1169
14532TIP3    H265088   0.811   6.198  14.202 -1.4737 -1.2710 -0.9169
14533TIP3   OH265089   5.843   4.537   0.124  0.1739 -0.9983 -0.1166
14533TIP3    H165090   5.885   4.613   0.165  0.1167 -1.1211  0.1729
14533TIP3    H265091   5.756   4.533   0.163  0.1273 -1.1309 -0.2330
14534TIP3   OH265092   6.442   2.085  10.757 -0.0046  0.4567 -0.0801
14534TIP3    H165093   6.367   2.061  10.703  0.0365  1.0485 -0.4098
14534TIP3    H265094   6.462   2.007  10.808 -0.0075 -0.1204 -0.9619
14535TIP3   OH265095   0.416   1.902   0.879  0.5455 -0.3882 -0.1875
14535TIP3    H165096   0.403   1.937   0.967 -0.0528  3.0021 -1.5291
14535TIP3    H265097   0.508   1.922   0.859 -0.0096  1.1335 -1.2568
14536TIP3   OH265098   6.111   2.285  11.321 -0.1642 -0.1625 -0.3569
14536TIP3    H165099   6.036   2.271  11.378  0.6751 -1.2393  0.5225
14536TIP3    H265100   6.076   2.282  11.232 -1.3863  0.8787  0.0826
14537TIP3   OH265101   1.129   5.488  11.353  0.1929  0.5415  0.4867
14537TIP3    H165102   1.162   5.470  11.265  0.9494 -3.5729  1.5548
14537TIP3    H265103   1.204   5.474  11.411 -1.1974 -0.2647  2.1264
14538TIP3   OH265104   0.130   3.194   5.433  0.3102  0.0528 -0.3065
14538TIP3    H165105   0.130   3.100   5.419  1.3635 -0.0532  0.4099
14538TIP3    H265106   0.219   3.215   5.461 -0.3755  1.0266  1.1869
14539TIP3   OH265107   6.557   0.794   1.141 -0.0171  0.2985 -0.1117
14539TIP3    H165108   6.465   0.770   1.125 -0.3774  1.4153  0.2518
14539TIP3    H265109   6.599   0.711   1.165 -1.4674  0.1459  2.1178
14540TIP3   OH265110   6.213   2.817  16.122  0.1489 -0.0852  0.1545
14540TIP3    H165111   6.236   2.894  16.174 -0.9942  0.4110 -0.0571
14540TIP3    H265112   6.273   2.819  16.048  1.5855 -0.6255  1.2900
14541TIP3   OH265113   4.893   1.566   4.434 -0.0792  0.2839  0.6554
14541TIP3    H165114   4.975   1.588   4.392 -0.2007 -0.2105  0.1628
14541TIP3    H265115   4.831   1.631   4.402 -0.4735 -0.8503 -0.9183
14542TIP3   OH265116   4.037   2.138  13.974 -0.1703 -0.1940 -0.1656
14542TIP3    H165117   4.067   2.052  13.944  2.0374  0.2079  0.7669
14542TIP3    H265118   4.092   2.158  14.050 -0.6935  2.0029 -0.3106
14543TIP3   OH265119   0.785   5.377  14.497 -0.0938  0.1702 -0.2723
14543TIP3    H165120   0.760   5.296  14.542  1.0705  0.5350  1.0843
14543TIP3    H265121   0.734   5.445  14.541  1.9650  0.6985  1.3915
14544TIP3   OH265122   5.220   5.302   4.367 -0.0675 -0.4979 -0.0317
14544TIP3    H165123   5.256   5.256   4.443 -0.6219  0.0347  0.5559
14544TIP3    H265124   5.284   5.369   4.346 -0.4719  0.1221  0.7027
14545TIP3   OH265125   6.444   2.346  13.259 -0.3359  0.0059  0.0120
14545TIP3    H165126   6.464   2.276  13.196 -0.4701  1.9590 -2.2778
14545TIP3    H265127   6.352   2.367  13.242 -0.1888  0.9837  0.4267
14546TIP3   OH265128   4.834   5.794   0.675 -0.3940 -0.1690 -0.1424
14546TIP3    H165129   4.842   5.723   0.739  0.6438 -0.1242 -0.2185
14546TIP3    H265130   4.740   5.813   0.672 -0.5611 -0.8515  0.6256
14547TIP3   OH265131   0.004   3.688   3.095 -0.4268  0.0223  0.1995
14547TIP3    H165132   0.029   3.643   3.014 -1.2867  1.6764 -1.0093
14547TIP3    H265133  -0.090   3.701   3.088 -0.2893  1.4625  0.8081
14548TIP3   OH265134   3.293   0.160  15.655  0.4218 -0.3849 -0.0988
14548TIP3    H165135   3.235   0.120  15.591  1.9608  0.7571 -2.2884
14548TIP3    H265136   3.236   0.215  15.709 -0.9539 -1.6539 -0.2599
14549TIP3   OH265137   0.028   2.453  11.084  0.3693 -0.5110 -0.5639
14549TIP3    H165138   0.095   2.521  11.095 -0.4544  0.1193  0.7766
14549TIP3    H265139  -0.054   2.502  11.077 -0.1259 -1.3408 -0.5232
14550TIP3   OH265140   3.363   6.236   1.190 -0.3375 -0.4021  0.6466
14550TIP3    H165141   3.348   6.223   1.284  0.1500 -1.5031  0.5841
14550TIP3    H265142   3.276   6.251   1.154 -0.4609  0.6650  1.3634
14551TIP3   OH265143   0.317   4.662  12.494 -0.8096 -0.1462 -0.1964
14551TIP3    H165144   0.325   4.585  12.439 -2.1172 -0.7804  0.4729
14551TIP3    H265145   0.400   4.708  12.483 -0.4641 -1.0504 -1.4860
14552TIP3   OH265146   5.167   0.467  12.402  0.2975  0.0064 -0.0131
14552TIP3    H165147   5.083   0.501  12.431  0.0120 -0.0335 -0.7923
14552TIP3    H265148   5.223   0.545  12.395  1.0841 -0.2265  2.9376
14553TIP3   OH265149   0.175   6.549  14.756 -0.3329  0.2047  0.3279
14553TIP3    H165150   0.158   6.588  14.670 -0.4821  1.6443  0.9922
14553TIP3    H265151   0.096   6.498  14.776  0.1269 -0.9928 -0.8338
14554TIP3   OH265152   1.443   1.523  13.199 -0.4493 -0.2447  0.2993
14554TIP3    H165153   1.497   1.446  13.214  0.3355  0.0594 -0.8679
14554TIP3    H265154   1.504   1.597  13.207 -0.7439  0.1170 -0.7334
14555TIP3   OH265155   4.083   0.673  12.585  0.2550 -0.5425 -0.0727
14555TIP3    H165156   4.097   0.632  12.500  1.2019  0.8645 -0.6255
14555TIP3    H265157   4.066   0.765  12.565 -2.3324 -0.7258  1.1096
14556TIP3   OH265158   4.324   6.283   3.096  0.4076  0.4518  0.2770
14556TIP3    H165159   4.268   6.344   3.143  0.5262  1.2000 -0.5490
14556TIP3    H265160   4.309   6.198   3.139 -2.6320  0.2762 -1.0161
14557TIP3   OH265161   6.788   1.453  11.187  0.2140  0.6819 -0.0729
14557TIP3    H165162   6.811   1.545  11.177  0.1323  0.6081 -0.9634
14557TIP3    H265163   6.868   1.405  11.165  0.3724  0.5449  0.7666
14558TIP3   OH265164   4.927   0.812   6.178  0.6147 -0.5004  0.0424
14558TIP3    H165165   4.933   0.836   6.271 -2.7824 -0.8877  0.4528
14558TIP3    H265166   4.918   0.895   6.132 -0.2203 -0.4086  0.3538
14559TIP3   OH265167   4.410   0.236  16.763  0.3114  0.2890 -0.7058
14559TIP3    H165168   4.372   0.274  16.683 -0.2903  1.3394  0.0633
14559TIP3    H265169   4.377   0.292  16.833  2.1650  0.3450  0.1234
14560TIP3   OH265170   6.104   6.742  13.579  0.1196 -0.3298  0.6133
14560TIP3    H165171   6.185   6.759  13.531 -0.0003 -0.4463  0.3654
14560TIP3    H265172   6.059   6.675  13.527 -1.1033  1.2071 -0.3864
14561TIP3   OH265173   5.672   1.526   5.136 -0.1470 -0.2747 -0.3323
14561TIP3    H165174   5.644   1.604   5.088  0.8484 -0.7909 -1.7837
14561TIP3    H265175   5.590   1.484   5.163 -0.7011  0.5756 -0.6514
14562TIP3   OH265176   0.619   0.886   0.671  0.4439  0.4617  0.3467
14562TIP3    H165177   0.672   0.965   0.683  0.7775  0.4029 -0.6331
14562TIP3    H265178   0.636   0.834   0.749  1.6423  0.5697  0.1787
14563TIP3   OH265179   1.696   2.162  11.523  0.0710 -0.1055 -0.3326
14563TIP3    H165180   1.618   2.121  11.485 -1.0435  0.3927  1.3749
14563TIP3    H265181   1.722   2.229  11.459 -1.9869  0.9559 -0.1004
14564TIP3   OH265182   5.213   4.658   1.305 -0.3846  0.0289  0.6183
14564TIP3    H165183   5.218   4.736   1.250  1.9850  0.8748  1.9173
14564TIP3    H265184   5.130   4.666   1.352 -0.6773  1.2092 -0.0819
14565TIP3   OH265185   6.704   1.403  16.756  0.5019 -0.2687 -0.5055
14565TIP3    H165186   6.765   1.422  16.828 -1.7675  1.3951  1.0593
14565TIP3    H265187   6.693   1.488  16.713 -0.5298 -0.6017 -0.8914
14566TIP3   OH265188   2.922   0.554  15.807 -0.4636  0.5474 -0.7169
14566TIP3    H165189   3.014   0.539  15.785 -0.1573  0.4958  0.5634
14566TIP3    H265190   2.891   0.614  15.739  0.9828  1.9527 -0.1538
14567TIP3   OH265191   2.932   6.062  12.824 -0.3789 -0.3633 -0.1189
14567TIP3    H165192   3.024   6.087  12.814  0.0515 -3.0616 -4.5967
14567TIP3    H265193   2.883   6.140  12.798  0.6846  0.1721 -0.5487
14568TIP3   OH265194   4.634   5.611  13.233 -0.0584  0.2866 -0.2510
14568TIP3    H165195   4.635   5.706  13.250  2.6067  0.3257 -0.3351
14568TIP3    H265196   4.673   5.602  13.145  0.4189 -0.9322  0.0756
14569TIP3   OH265197   1.562   2.325   4.574 -0.4687  0.3815 -0.2221
14569TIP3    H165198   1.612   2.247   4.548 -0.3181  0.7611 -1.0870
14569TIP3    H265199   1.476   2.291   4.599 -0.6102 -0.0008 -1.2027
14570TIP3   OH265200   4.411   1.035   3.859 -0.5028  0.1756 -0.0771
14570TIP3    H165201   4.501   1.005   3.871 -1.2463 -2.5501 -0.9364
14570TIP3    H265202   4.397   1.098   3.930  2.2701  1.1307 -0.3305
14571TIP3   OH265203   0.255   2.382  12.882 -0.0690  0.1593 -0.0707
14571TIP3    H165204   0.277   2.337  12.801  2.2484  2.3826 -0.7367
14571TIP3    H265205   0.295   2.328  12.951 -0.2347 -0.6202 -0.5838
14572TIP3   OH265206   3.730   0.776   3.047 -0.4308 -0.3446 -0.1266
14572TIP3    H165207   3.662   0.773   3.114  0.6893  1.5003  1.1342
14572TIP3    H265208   3.776   0.692   3.056 -1.2964 -0.7726  0.3310
14573TIP3   OH265209   2.077   2.071   5.312  0.2883 -0.1934  0.1892
14573TIP3    H165210   2.044   2.045   5.226 -2.6110 -0.9596  1.4627
14573TIP3    H265211   2.130   2.149   5.295  2.2911 -2.0621 -2.6391
14574TIP3   OH265212   4.601   4.976  13.087  0.5004 -0.5642 -0.1921
14574TIP3    H165213   4.540   4.927  13.031  0.5848 -0.2999 -0.5223
14574TIP3    H265214   4.615   4.920  13.163 -2.3620  0.5653  1.2630
14575TIP3   OH265215   5.470   5.156   1.127 -0.2822 -0.2707 -0.3578
14575TIP3    H165216   5.507   5.067   1.127 -0.2401 -0.2619  0.7812
14575TIP3    H265217   5.392   5.149   1.072 -1.5762 -1.5863  1.5771
14576TIP3   OH265218   3.373   0.193   4.494  0.0899 -0.4338  0.2546
14576TIP3    H165219   3.446   0.233   4.446 -0.2300  1.4399  1.2871
14576TIP3    H265220   3.400   0.195   4.585 -1.0356 -0.1707  0.5901
14577TIP3   OH265221   2.880   6.560  14.304 -0.8268  0.2030 -0.0367
14577TIP3    H165222   2.931   6.629  14.261 -0.7947 -1.0831 -2.1139
14577TIP3    H265223   2.799   6.555  14.253 -0.5004 -1.8227 -0.3950
14578TIP3   OH265224   5.442   6.226  14.097  0.7001  0.5293  0.6506
14578TIP3    H165225   5.483   6.164  14.037 -1.0285  0.1916 -0.2061
14578TIP3    H265226   5.352   6.195  14.107  0.8591  0.7765  3.1789
14579TIP3   OH265227   2.045   4.121  15.810 -0.2879  0.1854 -0.1120
14579TIP3    H165228   2.026   4.027  15.814 -1.8623  0.4822 -0.0870
14579TIP3    H265229   2.011   4.148  15.724  0.8362  0.5926 -0.4293
14580TIP3   OH265230   6.451   6.786  11.471  0.6089 -0.1685 -1.3458
14580TIP3    H165231   6.491   6.712  11.425  1.1165 -1.8471  1.6783
14580TIP3    H265232   6.447   6.758  11.562 -2.4588  2.1323 -0.6815
14581TIP3   OH265233   1.321   3.266  13.732  0.1968  0.0487 -0.5999
14581TIP3    H165234   1.332   3.270  13.827  2.4545 -0.5995 -0.8167
14581TIP3    H265235   1.233   3.300  13.717 -1.5647 -3.0402  1.9975
14582TIP3   OH265236   0.430   3.502  16.484  0.1104  0.0298 -0.6357
14582TIP3    H165237   0.451   3.452  16.563  2.6201  2.2125  0.1592
14582TIP3    H265238   0.505   3.489  16.427 -0.2978  0.9429 -1.3941
14583TIP3   OH265239   4.650   4.245   3.514 -0.5448  0.5525 -0.2721
14583TIP3    H165240   4.623   4.314   3.453 -0.7352  0.8917  0.1923
14583TIP3    H265241   4.625   4.163   3.470 -2.2169  0.8534  0.0853
14584TIP3   OH265242   2.955   4.376   5.487  0.5493  0.1876 -0.0760
14584TIP3    H165243   3.037   4.404   5.448 -0.7550  1.7597 -1.7518
14584TIP3    H265244   2.907   4.333   5.415 -0.6971  0.5796  0.5058
14585TIP3   OH265245   3.464   0.029  15.812 -0.2838 -0.2909 -0.2338
14585TIP3    H165246   3.419   0.095  15.758  1.7420  0.9251 -0.4898
14585TIP3    H265247   3.474  -0.046  15.754  0.3324  0.3775 -1.0059
14586TIP3   OH265248   4.514   3.953  13.886  0.1509 -0.1552  0.0475
14586TIP3    H165249   4.422   3.938  13.866  0.5188 -0.8256 -1.1773
14586TIP3    H265250   4.513   4.025  13.949 -1.2067 -0.1865  0.0826
14587TIP3   OH265251   5.197   6.605   5.896  0.2298  0.1174 -0.8662
14587TIP3    H165252   5.107   6.603   5.863  0.1504  2.6181 -0.9360
14587TIP3    H265253   5.195   6.551   5.975 -0.2032 -3.7193 -3.3708
14588TIP3   OH265254   4.659   3.751  10.676  0.3158  0.2297 -0.2148
14588TIP3    H165255   4.738   3.797  10.705  0.7720  0.2021 -1.4178
14588TIP3    H265256   4.587   3.804  10.708  0.7423 -1.2229  3.4503
14589TIP3   OH265257   4.206   1.295  14.590 -0.2018  0.0094 -0.6565
14589TIP3    H165258   4.273   1.300  14.522 -0.2613 -0.2189 -0.7337
14589TIP3    H265259   4.214   1.206  14.625  0.0588  0.2408 -0.1259
14590TIP3   OH265260   2.733   5.614  12.439 -0.3969  0.2975  0.2887
14590TIP3    H165261   2.772   5.526  12.442  1.7011  1.2053  0.6569
14590TIP3    H265262   2.669   5.609  12.369  0.5129 -1.2251 -0.4743
14591TIP3   OH265263   5.001   4.249  13.039  0.1019  0.1701 -0.3740
14591TIP3    H165264   5.091   4.218  13.041 -0.0316 -0.3389 -1.5029
14591TIP3    H265265   4.990   4.300  13.119  0.8868 -1.1660  0.5868
14592TIP3   OH265266   6.390   3.857  14.018 -0.5797 -0.5101 -0.3598
14592TIP3    H165267   6.449   3.798  14.065 -0.8342 -0.8996 -0.5219
14592TIP3    H265268   6.446   3.926  13.984 -0.1743 -1.0422 -0.7771
14593TIP3   OH265269   2.773   6.489  11.942 -0.5905 -0.0375  0.2896
14593TIP3    H165270   2.687   6.449  11.955 -0.0593 -1.3293 -0.0610
14593TIP3    H265271   2.756   6.583  11.942 -2.3953 -0.2855 -2.3400
14594TIP3   OH265272   1.033   0.949   4.003 -0.0451  0.5228  0.4293
14594TIP3    H165273   1.095   1.020   3.989 -0.7352  0.9807 -0.3487
14594TIP3    H265274   0.956   0.991   4.041 -0.7608  0.3242 -0.7811
14595TIP3   OH265275   2.008   6.041   3.330 -0.2440  0.1067 -0.1745
14595TIP3    H165276   2.040   5.951   3.329  0.2169  0.2670 -0.3487
14595TIP3    H265277   2.070   6.088   3.273  0.5124  0.8682  1.2497
14596TIP3   OH265278   6.664   1.932  12.780 -0.5401 -0.5772  0.0554
14596TIP3    H165279   6.705   2.018  12.783  2.1173 -1.7818  0.4330
14596TIP3    H265280   6.604   1.935  12.706  1.7253  0.6793 -1.7693
14597TIP3   OH265281   2.973   1.475  12.439 -0.2458 -0.0017 -0.4121
14597TIP3    H165282   3.033   1.522  12.498 -0.4442 -1.4429  0.9639
14597TIP3    H265283   2.887   1.513  12.458 -0.2908 -0.3806  0.1466
14598TIP3   OH265284   5.952   5.725  16.822 -0.3181 -0.1238  0.0576
14598TIP3    H165285   5.894   5.798  16.799 -0.7387  0.1682  1.9267
14598TIP3    H265286   5.905   5.679  16.891  1.9405  0.4837  2.0534
14599TIP3   OH265287   3.465   6.300  16.880 -0.1468 -0.0390 -0.5114
14599TIP3    H165288   3.397   6.293  16.947 -0.6600 -0.1968 -1.0448
14599TIP3    H265289   3.422   6.346  16.807  0.5876  0.6796 -0.4957
14600TIP3   OH265290   6.741   5.677  13.045  0.8994  0.5935 -0.6635
14600TIP3    H165291   6.727   5.608  13.110 -1.7408  0.9000 -0.8421
14600TIP3    H265292   6.809   5.733  13.082  1.0977 -0.5731  0.7350
14601TIP3   OH265293   1.362   6.615  13.638 -0.0760 -0.4835 -0.2464
14601TIP3    H165294   1.382   6.530  13.676 -0.1059 -0.7822 -0.9031
14601TIP3    H265295   1.267   6.614  13.627 -0.1866 -0.0054  0.6024
14602TIP3   OH265296   2.517   3.177   0.890  0.0988 -0.0227 -0.1472
14602TIP3    H165297   2.447   3.192   0.953  0.2745  2.0532 -0.3831
14602TIP3    H265298   2.596   3.164   0.943 -0.1260 -0.3895  0.0929
14603TIP3   OH265299   4.616   4.540   1.174 -0.0491 -0.6452 -0.2907
14603TIP3    H165300   4.709   4.535   1.151 -0.0243  1.8990 -0.9127
14603TIP3    H265301   4.570   4.532   1.091 -0.3475 -0.8260 -0.1086
14604TIP3   OH265302   3.354   3.052  15.256 -0.6844  0.3708  0.6797
14604TIP3    H165303   3.395   3.099  15.184 -1.9829 -0.2320 -0.4788
14604TIP3    H265304   3.295   2.989  15.214 -0.3280 -1.0481  2.2284
14605TIP3   OH265305   1.875   3.456  13.297 -0.1001  0.0391 -0.0921
14605TIP3    H165306   1.784   3.438  13.321  0.1712 -0.0965  0.8611
14605TIP3    H265307   1.922   3.459  13.380  0.9471 -0.8768 -0.6350
14606TIP3   OH265308   4.143   0.607  11.892 -0.9141 -0.2220 -0.5381
14606TIP3    H165309   4.172   0.549  11.821 -0.5395 -1.3786  0.5559
14606TIP3    H265310   4.096   0.677  11.847  0.3019 -0.3305 -2.0348
14607TIP3   OH265311   0.059   5.766   0.874 -0.7899 -0.8201  0.1829
14607TIP3    H165312   0.006   5.708   0.929 -1.5114 -0.8853 -0.5918
14607TIP3    H265313   0.144   5.721   0.868 -0.2244 -0.1534  2.3898
14608TIP3   OH265314   3.080   1.117   2.325 -0.3890 -0.8276 -0.0545
14608TIP3    H165315   3.143   1.182   2.354 -0.6698 -0.4368 -0.3237
14608TIP3    H265316   2.995   1.162   2.330 -0.8439 -1.8330  1.8496
14609TIP3   OH265317   3.983   6.661  15.595  0.0089  0.4277  0.0207
14609TIP3    H165318   4.032   6.589  15.635  0.1400 -0.2862 -1.4168
14609TIP3    H265319   4.029   6.740  15.625  1.1220 -0.1702 -0.0800
14610TIP3   OH265320   4.126   4.770   2.627 -0.4333  0.2731 -0.2369
14610TIP3    H165321   4.048   4.731   2.668 -0.4009 -0.1365 -0.5629
14610TIP3    H265322   4.163   4.825   2.695 -1.0096  0.4691 -0.0734
14611TIP3   OH265323   2.640   3.529  15.668  0.6030 -0.8015 -0.2333
14611TIP3    H165324   2.683   3.447  15.692  1.4464 -0.0568  0.8629
14611TIP3    H265325   2.689   3.597  15.716  0.2066  0.3853 -1.4593
14612TIP3   OH265326   6.729   2.497  14.661 -0.0117  0.1286  0.1555
14612TIP3    H165327   6.660   2.540  14.611 -0.1048 -1.1206 -0.8259
14612TIP3    H265328   6.763   2.430  14.602  1.9407  0.6308  0.6941
14613TIP3   OH265329   1.401   6.081   1.032 -0.6164 -0.1086  0.4235
14613TIP3    H165330   1.372   6.130   0.955 -0.6872 -0.7626  0.0295
14613TIP3    H265331   1.327   6.024   1.053 -0.2350 -0.6155  0.3961
14614TIP3   OH265332   6.249   1.158  10.544  0.3540 -0.1541  0.2154
14614TIP3    H165333   6.227   1.086  10.604 -0.2356 -0.1776 -0.0336
14614TIP3    H265334   6.311   1.118  10.483 -0.7499 -0.7397 -0.5448
14615TIP3   OH265335   3.450   2.391  16.542  0.3568 -0.3731 -0.0679
14615TIP3    H165336   3.491   2.452  16.603 -1.2484  1.6511 -0.9467
14615TIP3    H265337   3.483   2.417  16.456  1.4251 -2.2263 -0.2384
14616TIP3   OH265338   3.360   4.782  15.916  0.0293 -0.0058 -0.5511
14616TIP3    H165339   3.367   4.801  16.010  1.5055 -1.6610 -0.2954
14616TIP3    H265340   3.436   4.825  15.877 -0.4239  0.4390 -0.9390
14617TIP3   OH265341   1.000   1.109  17.069  0.3039  0.0882  0.0652
14617TIP3    H165342   1.077   1.112  17.011  0.0761 -0.9664 -0.3050
14617TIP3    H265343   1.001   1.020  17.106 -1.4487 -0.3714 -0.9335
14618TIP3   OH265344   5.857   4.440   4.991  0.6419  0.0995  0.0482
14618TIP3    H165345   5.841   4.500   4.919 -2.5754 -1.7152 -0.8681
14618TIP3    H265346   5.811   4.478   5.065 -0.0560 -0.3805 -0.1259
14619TIP3   OH265347   2.112   2.755  13.883  0.6809  0.6369 -0.0637
14619TIP3    H165348   2.150   2.838  13.857 -2.1783  2.3035  0.8875
14619TIP3    H265349   2.060   2.727  13.807 -0.3886  0.9878  0.5328
14620TIP3   OH265350   3.655   1.916   5.860  0.0869 -0.7482 -0.6968
14620TIP3    H165351   3.630   1.877   5.776  0.8499 -0.0481 -1.2509
14620TIP3    H265352   3.682   2.005   5.838 -0.9676 -0.1210  0.4683
14621TIP3   OH265353   1.474   1.122  12.580 -0.5897 -0.3416 -0.0107
14621TIP3    H165354   1.402   1.075  12.539 -0.4708  1.1060 -1.9466
14621TIP3    H265355   1.436   1.207  12.605  0.4940  0.5258 -1.2666
14622TIP3   OH265356   3.570   5.874   4.732  0.9478 -0.0804 -0.3915
14622TIP3    H165357   3.529   5.904   4.651 -2.3732  0.4947  1.3944
14622TIP3    H265358   3.584   5.781   4.719 -2.7332 -0.6974 -0.4493
14623TIP3   OH265359   2.416   5.158   4.146 -0.2338 -0.7441 -0.0229
14623TIP3    H165360   2.437   5.153   4.240 -1.2567  0.0359  0.2534
14623TIP3    H265361   2.435   5.249   4.123  3.8037 -1.8423 -1.5157
14624TIP3   OH265362   4.207   3.797   1.767 -0.0190  0.1474 -0.4638
14624TIP3    H165363   4.258   3.740   1.709 -2.2921 -1.7694 -0.6961
14624TIP3    H265364   4.272   3.842   1.820  1.9442 -1.3366 -1.5316
14625TIP3   OH265365   4.830   4.067   4.130  0.5147  0.1818  0.3950
14625TIP3    H165366   4.905   4.064   4.190  0.6819 -0.5360  0.1545
14625TIP3    H265367   4.829   3.981   4.089  0.6273  0.8110 -0.9252
14626TIP3   OH265368   3.543   6.032  16.063  0.2113  0.8629 -0.2999
14626TIP3    H165369   3.489   6.039  16.141  1.1008 -1.2987  0.5549
14626TIP3    H265370   3.620   6.085  16.083 -0.6612  2.3133 -0.7202
14627TIP3   OH265371   2.897   0.234   2.088 -0.4587  0.0720 -0.1692
14627TIP3    H165372   2.969   0.243   2.150  0.3163  0.3679 -1.0858
14627TIP3    H265373   2.818   0.238   2.141  0.1772  0.7585  0.7380
14628TIP3   OH265374   5.072   1.446  15.305 -0.1437 -1.0812  0.4530
14628TIP3    H165375   5.117   1.494  15.235 -1.2452 -0.8116 -0.0727
14628TIP3    H265376   4.987   1.489  15.313 -0.3310 -1.6305  1.4039
14629TIP3   OH265377   6.716   0.929   3.891  0.0797  0.2900 -0.3323
14629TIP3    H165378   6.635   0.979   3.894 -0.5723 -0.8584  1.6417
14629TIP3    H265379   6.748   0.929   3.981  0.8809 -1.5296 -0.6032
14630TIP3   OH265380   1.427   5.862  15.041  0.0832  0.4450  0.0167
14630TIP3    H165381   1.455   5.894  14.955 -0.0069 -2.6244 -1.2192
14630TIP3    H265382   1.332   5.854  15.033  0.2322 -1.3140 -0.1429
14631TIP3   OH265383   0.822   2.607   2.743  0.0107  0.4566  0.0438
14631TIP3    H165384   0.832   2.593   2.837  0.4158  0.8624  0.0653
14631TIP3    H265385   0.794   2.699   2.736  1.5973  0.9233 -0.3196
14632TIP3   OH265386   1.840   2.883  15.760  0.3846 -0.4295 -0.0829
14632TIP3    H165387   1.841   2.847  15.671 -0.1960 -0.9169  0.0988
14632TIP3    H265388   1.761   2.936  15.763  1.0912  0.6584 -0.2563
14633TIP3   OH265389   1.629   6.784  11.556  0.2065 -0.5039  0.1952
14633TIP3    H165390   1.568   6.817  11.490  0.9351  0.7950  0.1665
14633TIP3    H265391   1.574   6.758  11.629 -0.3873  0.6328  0.1550
14634TIP3   OH265392   5.787   4.000  15.226 -0.1860  0.6629 -0.2595
14634TIP3    H165393   5.731   3.930  15.261  1.9869 -1.0990 -0.1809
14634TIP3    H265394   5.747   4.022  15.142 -0.4911 -1.2542 -0.6618
14635TIP3   OH265395   4.428   3.963  14.346 -0.3826 -0.3606 -0.0872
14635TIP3    H165396   4.381   3.982  14.427 -0.9544 -2.4850  0.1102
14635TIP3    H265397   4.513   4.006  14.357 -0.6874 -0.1078  1.3779
14636TIP3   OH265398   3.573   0.055   1.558 -0.1373 -0.2495 -0.1953
14636TIP3    H165399   3.532  -0.030   1.541  1.1629 -0.8142 -0.5567
14636TIP3    H265400   3.538   0.113   1.490  0.8398 -1.1199 -1.4665
14637TIP3   OH265401   5.787   2.304   5.002  0.1222 -0.3427  0.1923
14637TIP3    H165402   5.856   2.295   5.068  0.1837  0.7047  0.2897
14637TIP3    H265403   5.707   2.274   5.045  0.3558 -0.6969  0.3776
14638TIP3   OH265404   0.760   1.682  16.787  0.1139  0.2005  0.2040
14638TIP3    H165405   0.687   1.660  16.729  0.2899  0.3691 -0.0804
14638TIP3    H265406   0.764   1.609  16.849  1.4973 -1.2105 -1.5084
14639TIP3   OH265407   6.517   5.640  13.686 -0.6267  0.1218 -0.4632
14639TIP3    H165408   6.520   5.676  13.775  0.8339  0.9435 -0.8459
14639TIP3    H265409   6.482   5.711  13.633  0.3356  0.2783 -0.8804
14640TIP3   OH265410   2.664   2.108   0.925 -0.2613  0.0852  0.1029
14640TIP3    H165411   2.743   2.062   0.897  0.2713  1.1818 -0.2257
14640TIP3    H265412   2.592   2.050   0.900  0.2604  0.5764 -2.6089
14641TIP3   OH265413   5.169   0.050  10.635 -0.1185 -0.3473  0.3045
14641TIP3    H165414   5.102   0.087  10.578 -1.4981 -2.8881  0.1647
14641TIP3    H265415   5.248   0.046  10.581 -0.2658  1.2597 -0.0281
14642TIP3   OH265416   6.629   1.521  13.085 -0.0103 -0.5834 -1.1712
14642TIP3    H165417   6.643   1.576  13.163 -0.1884 -2.5815  0.3221
14642TIP3    H265418   6.629   1.582  13.012  0.8906  1.2773  0.3374
14643TIP3   OH265419   2.718   5.640  12.746  0.9826  0.0651 -0.5717
14643TIP3    H165420   2.752   5.647  12.657 -0.1296  0.5262 -0.9704
14643TIP3    H265421   2.791   5.667  12.802  1.6543 -0.1323 -1.3350
14644TIP3   OH265422   5.267   6.739   3.350 -0.0211 -0.2560  0.3351
14644TIP3    H165423   5.304   6.736   3.262 -1.1831  0.5365 -0.1789
14644TIP3    H265424   5.338   6.707   3.406  0.9350 -0.1840 -0.8098
14645TIP3   OH265425   5.155   2.396   5.343 -0.6864  0.1117  0.1047
14645TIP3    H165426   5.110   2.328   5.394 -0.8871 -1.1610 -1.7106
14645TIP3    H265427   5.089   2.465   5.332 -0.5750  0.4841  1.7175
14646TIP3   OH265428   0.576   0.964   4.587  1.0808 -0.4863  0.3323
14646TIP3    H165429   0.550   1.043   4.635 -0.6678  1.0152 -2.8932
14646TIP3    H265430   0.640   0.996   4.523  0.9937 -1.8556 -0.4421
14647TIP3   OH265431   3.661   2.454   5.911  0.0142 -0.1618  0.2376
14647TIP3    H165432   3.599   2.487   5.846 -1.1570  1.5949  2.1456
14647TIP3    H265433   3.614   2.381   5.953 -0.1045  0.0718  0.5189
14648TIP3   OH265434   4.832   0.582  11.367 -0.1439  0.2580 -0.4479
14648TIP3    H165435   4.870   0.504  11.409  0.7021 -0.0060 -1.6586
14648TIP3    H265436   4.738   0.576  11.385 -0.0067 -0.7175 -0.0141
14649TIP3   OH265437   5.937   5.298   3.490 -0.0633  0.6012  0.3020
14649TIP3    H165438   6.024   5.339   3.488  0.1261  0.1803 -0.0841
14649TIP3    H265439   5.903   5.308   3.401  0.4211 -1.0133 -0.0792
14650TIP3   OH265440   0.825   3.444  13.572 -0.0326  0.0664  0.0219
14650TIP3    H165441   0.730   3.439  13.581 -0.0989  0.4859 -0.4834
14650TIP3    H265442   0.840   3.473  13.483  0.6170 -1.7858 -0.5037
14651TIP3   OH265443   4.721   5.176   0.286  0.3862 -0.3646  0.1281
14651TIP3    H165444   4.765   5.129   0.215  0.9537 -0.7487  0.7317
14651TIP3    H265445   4.785   5.179   0.357 -0.4017 -0.5510  0.8644
14652TIP3   OH265446   6.747   4.085  16.498 -0.3398  0.4338 -0.1334
14652TIP3    H165447   6.799   4.165  16.492  0.7876 -0.4052 -1.8836
14652TIP3    H265448   6.706   4.077  16.412 -0.0270 -1.1508 -0.1467
14653TIP3   OH265449   4.713   4.371   0.874  0.2258 -0.1276  0.0827
14653TIP3    H165450   4.749   4.292   0.834 -0.8365 -0.3763 -0.3897
14653TIP3    H265451   4.664   4.340   0.950 -2.9391 -0.2837 -1.9329
14654TIP3   OH265452   3.612   3.533  13.042  0.2721  0.3283  0.0756
14654TIP3    H165453   3.653   3.617  13.021  2.6130 -0.8267 -0.2143
14654TIP3    H265454   3.617   3.529  13.138 -0.8438  0.9956  0.1650
14655TIP3   OH265455   4.851   2.098  16.697  0.0991  0.3615  0.1273
14655TIP3    H165456   4.864   2.152  16.619  1.9529  1.8944  1.4478
14655TIP3    H265457   4.771   2.049  16.678  0.4391  0.7637 -2.6845
14656TIP3   OH265458   1.881   0.143  14.776  0.2071  0.0456 -0.5482
14656TIP3    H165459   1.904   0.063  14.824 -0.8461  1.9882  3.3814
14656TIP3    H265460   1.886   0.212  14.841 -0.4815  2.9915 -3.4992
14657TIP3   OH265461   0.802   4.697  11.659 -0.2949 -1.0854 -0.6064
14657TIP3    H165462   0.782   4.643  11.583  0.0965 -0.6904 -0.9863
14657TIP3    H265463   0.781   4.641  11.734  1.0939 -2.1431 -0.9842
14658TIP3   OH265464   0.626   4.934   5.307 -0.2598 -0.2509  0.2345
14658TIP3    H165465   0.616   5.010   5.364 -3.0285 -1.6892  1.7658
14658TIP3    H265466   0.707   4.892   5.336  0.0819  0.8528  0.8857
14659TIP3   OH265467   5.478   1.822  12.993 -0.9813 -0.1638  0.2113
14659TIP3    H165468   5.467   1.770  12.913  0.8379 -0.9484  0.4549
14659TIP3    H265469   5.409   1.790  13.051  0.3439 -2.6196  0.5006
14660TIP3   OH265470   4.758   4.201   2.649 -0.4594  0.3080  0.0566
14660TIP3    H165471   4.846   4.240   2.648  0.6664 -2.1080  0.3562
14660TIP3    H265472   4.725   4.221   2.737  0.8097 -0.8502  0.8268
14661TIP3   OH265473   1.165   0.987  12.290  0.1362  0.3783  0.3437
14661TIP3    H165474   1.244   0.977  12.344 -0.0163 -0.3590  0.4307
14661TIP3    H265475   1.199   1.009  12.203  0.4774 -0.6943  0.1933
14662TIP3   OH265476   3.234   5.423  11.804  0.1141  0.0304  0.0242
14662TIP3    H165477   3.225   5.334  11.770  0.5128  0.7915 -2.1620
14662TIP3    H265478   3.152   5.439  11.851 -0.3473 -1.1468 -0.3655
14663TIP3   OH265479   0.257   6.782   1.070 -0.4703  0.3654  0.3453
14663TIP3    H165480   0.165   6.761   1.087  0.2258 -0.9043  2.8851
14663TIP3    H265481   0.267   6.873   1.100 -0.8504  0.4136  0.3260
14664TIP3   OH265482   2.877   4.504   0.296 -0.1102 -0.4382 -0.6241
14664TIP3    H165483   2.784   4.490   0.278 -0.2738  0.0111 -0.1515
14664TIP3    H265484   2.919   4.500   0.210 -0.8099  1.1929 -1.0646
14665TIP3   OH265485   0.910   6.277   0.477 -0.4359 -0.1807  0.3681
14665TIP3    H165486   0.893   6.292   0.570 -0.1977 -0.4713  0.4589
14665TIP3    H265487   1.004   6.287   0.467 -0.3109 -1.3153  0.3752
14666TIP3   OH265488   2.143   4.989   6.212  0.1439 -0.1778  0.6028
14666TIP3    H165489   2.211   4.950   6.266 -0.1720 -1.1428  0.3217
14666TIP3    H265490   2.062   4.975   6.261  0.0832  0.5353  0.7122
14667TIP3   OH265491   0.537   2.104  11.328 -0.4081 -0.1025  0.3339
14667TIP3    H165492   0.584   2.188  11.327 -0.3014 -0.1655  0.0403
14667TIP3    H265493   0.588   2.049  11.387  0.1054 -0.2935 -0.2776
14668TIP3   OH265494   3.104   6.426   6.016  0.5313  0.0375  0.0796
14668TIP3    H165495   3.184   6.425   5.964 -1.1648 -0.3051 -2.6678
14668TIP3    H265496   3.073   6.335   6.013 -0.0523  0.2046  0.9578
14669TIP3   OH265497   2.648   4.927  15.833 -0.5081 -0.5662 -0.0185
14669TIP3    H165498   2.653   4.875  15.753  0.3577  1.2003 -1.1353
14669TIP3    H265499   2.635   5.016  15.803 -0.7561  0.0382  1.8400
14670TIP3   OH265500   1.029   1.985  15.298  0.2902 -0.5623 -0.1434
14670TIP3    H165501   1.076   1.966  15.217 -1.2515 -1.6041 -0.8077
14670TIP3    H265502   0.962   2.048  15.273  1.1859  0.7800  0.7679
14671TIP3   OH265503   3.755   2.955  11.783 -0.4028 -0.3984 -0.0759
14671TIP3    H165504   3.726   2.985  11.697  1.8265  0.1591 -0.6478
14671TIP3    H265505   3.817   2.885  11.765 -0.3288 -0.6488  1.1079
14672TIP3   OH265506   2.709   4.824   3.183  0.5371 -0.2099  0.0431
14672TIP3    H165507   2.728   4.880   3.258 -0.9477  0.2893  0.0603
14672TIP3    H265508   2.687   4.885   3.113 -1.5263 -0.7555  0.1834
14673TIP3   OH265509   6.505   4.510   0.726 -0.7650 -0.2546  0.1004
14673TIP3    H165510   6.561   4.514   0.648  1.3359 -0.2062  1.5795
14673TIP3    H265511   6.551   4.452   0.786 -1.3244  1.3394  2.1257
14674TIP3   OH265512   4.857   1.111  12.905 -0.3266 -0.4368  0.3109
14674TIP3    H165513   4.908   1.105  12.824 -1.2639  0.8438 -0.3990
14674TIP3    H265514   4.770   1.079  12.881 -0.9545  1.0907  0.4739
14675TIP3   OH265515   1.151   0.648  11.566  0.1051 -0.9975  0.0005
14675TIP3    H165516   1.118   0.629  11.478 -0.2654  1.2831 -0.3747
14675TIP3    H265517   1.080   0.621  11.625 -0.7952  0.0572 -0.5808
14676TIP3   OH265518   0.074   1.208  15.174  0.6131 -0.1840  0.1976
14676TIP3    H165519   0.163   1.241  15.163  0.6476 -0.8559 -1.7972
14676TIP3    H265520   0.081   1.143  15.244  1.7911 -0.5795 -0.2754
14677TIP3   OH265521   3.277   0.980   4.130  0.9743 -0.4558 -0.8401
14677TIP3    H165522   3.194   0.932   4.137  1.7529 -1.7433 -0.0964
14677TIP3    H265523   3.269   1.030   4.049  0.6220 -2.8405 -2.3223
14678TIP3   OH265524   6.749   2.673  11.780 -0.3939 -0.7062 -0.5037
14678TIP3    H165525   6.842   2.697  11.774 -0.8346  1.1980 -0.1070
14678TIP3    H265526   6.704   2.740  11.730 -1.7712 -0.1323  1.4353
14679TIP3   OH265527   4.660   0.272  14.622 -0.0172  0.7443 -0.2141
14679TIP3    H165528   4.615   0.266  14.538 -0.4347  0.4604  0.0309
14679TIP3    H265529   4.752   0.253  14.602 -0.1577  0.4555 -0.5660
14680TIP3   OH265530   2.608   5.589   5.515  0.4959 -0.5033 -0.0179
14680TIP3    H165531   2.613   5.577   5.610  1.8102  1.4468  0.1788
14680TIP3    H265532   2.535   5.649   5.503  0.0634 -1.0815 -0.2763
14681TIP3   OH265533   2.201   4.683  14.451 -0.0659 -0.3399  0.3803
14681TIP3    H165534   2.168   4.692  14.541  1.6342  1.2758  0.8782
14681TIP3    H265535   2.128   4.644  14.403 -0.6607 -2.2119  2.6679
14682TIP3   OH265536   2.515   6.244  16.117 -0.3085  0.3248  0.8431
14682TIP3    H165537   2.564   6.169  16.150 -0.5002  0.0914  0.6084
14682TIP3    H265538   2.440   6.252  16.177 -2.8398 -2.5451 -1.7066
14683TIP3   OH265539   1.583   1.323  12.237 -0.0052  0.6090  0.3319
14683TIP3    H165540   1.626   1.313  12.323  1.2169  1.6504 -0.1380
14683TIP3    H265541   1.651   1.297  12.174 -0.3633  1.4211 -0.3893
14684TIP3   OH265542   2.301   0.305  14.257  0.0951  0.2535  0.0299
14684TIP3    H165543   2.375   0.356  14.224  0.4729  0.7300  1.5963
14684TIP3    H265544   2.340   0.226  14.294 -0.3272 -0.2398 -0.5497
14685TIP3   OH265545   6.789   3.647  13.173  0.5009  0.0211  0.0541
14685TIP3    H165546   6.839   3.567  13.160  0.0989 -0.3140  0.5386
14685TIP3    H265547   6.805   3.671  13.265 -0.6091 -0.3706  0.3673
14686TIP3   OH265548   4.298   0.424  13.381 -0.6454  0.2683  0.3402
14686TIP3    H165549   4.218   0.421  13.329 -0.7038 -1.6378  0.5122
14686TIP3    H265550   4.350   0.495  13.342 -1.1927 -0.3587 -1.5727
14687TIP3   OH265551   2.173   3.119  16.352 -0.4277  0.2949  0.0388
14687TIP3    H165552   2.143   3.041  16.305 -1.8086  0.5370  0.5152
14687TIP3    H265553   2.225   3.167  16.287 -1.7920  0.3096 -1.0636
14688TIP3   OH265554   6.170   4.534  11.881 -0.4614  0.0089 -0.4782
14688TIP3    H165555   6.123   4.606  11.922 -0.9065 -0.3734 -0.3219
14688TIP3    H265556   6.201   4.480  11.955  0.4440  0.3934 -0.5641
14689TIP3   OH265557   3.015   4.058  15.750  0.0734 -0.6461 -0.1966
14689TIP3    H165558   3.065   3.991  15.703  1.2949  0.5419 -0.6486
14689TIP3    H265559   3.041   4.047  15.842  0.4208 -0.6765 -0.2956
14690TIP3   OH265560   1.283   4.764  14.725 -0.3159 -0.0096 -0.6548
14690TIP3    H165561   1.307   4.790  14.814 -0.2898 -0.2174 -0.6002
14690TIP3    H265562   1.274   4.846  14.677  0.9137  0.0677 -0.7776
14691TIP3   OH265563   3.372   2.844   3.815 -0.4818  0.8602 -0.0883
14691TIP3    H165564   3.422   2.885   3.886  0.9414 -0.8503 -0.0597
14691TIP3    H265565   3.401   2.890   3.736  2.5856 -1.2930 -0.3126
14692TIP3   OH265566   1.625   3.751  14.068  0.4917 -0.1984  0.2725
14692TIP3    H165567   1.615   3.697  14.146  2.2420 -1.0906 -0.1136
14692TIP3    H265568   1.573   3.707  14.001  1.1845 -0.9126  0.2021
14693TIP3   OH265569   5.389   5.371  14.815 -0.2846  0.4926  0.5493
14693TIP3    H165570   5.457   5.439  14.810 -0.2060  0.4003  0.3262
14693TIP3    H265571   5.438   5.289  14.816 -0.3887  0.4305  0.5362
14694TIP3   OH265572   1.274   4.610  12.084 -0.4077 -0.3083  0.2206
14694TIP3    H165573   1.264   4.700  12.053 -1.1252 -0.8505 -1.1777
14694TIP3    H265574   1.209   4.602  12.154  0.1998  0.4789  0.8958
14695TIP3   OH265575   0.104   1.597   6.237  0.6365 -0.1752  0.0067
14695TIP3    H165576   0.177   1.538   6.255  1.9754  1.6704  0.9273
14695TIP3    H265577   0.115   1.621   6.145  1.2886  0.1882  0.1735
14696TIP3   OH265578   6.433   5.449  17.035 -0.0367  0.5889  0.1421
14696TIP3    H165579   6.524   5.420  17.040 -0.0449  0.2970 -1.2630
14696TIP3    H265580   6.418   5.467  16.942 -1.4830  0.3999  0.3187
14697TIP3   OH265581   4.669   3.876   3.148 -0.0793 -0.1547 -0.0094
14697TIP3    H165582   4.752   3.914   3.121 -0.6592  1.0382 -0.1241
14697TIP3    H265583   4.686   3.782   3.152  1.8762  0.2478  2.0274
14698TIP3   OH265584   2.242   4.850   3.157 -0.1359  0.1075 -0.1986
14698TIP3    H165585   2.309   4.816   3.216 -0.2354 -0.1593 -0.2412
14698TIP3    H265586   2.206   4.773   3.112 -0.2079  0.2867 -0.4546
14699TIP3   OH265587   2.923   6.595  11.660 -0.4481 -0.4802  0.9441
14699TIP3    H165588   2.959   6.632  11.740 -1.3878 -2.3502  2.2649
14699TIP3    H265589   2.831   6.622  11.660 -0.4317 -0.4195  0.4608
14700TIP3   OH265590   1.276   3.590  12.069  0.2358 -0.0848  0.6465
14700TIP3    H165591   1.363   3.623  12.047  0.0427  0.6526  0.9682
14700TIP3    H265592   1.292   3.508  12.116  0.7216 -0.4814 -0.2070
14701TIP3   OH265593   4.360   2.951  15.413  0.2582  0.0330  0.5295
14701TIP3    H165594   4.291   3.016  15.402 -0.0393  0.0647  2.4402
14701TIP3    H265595   4.388   2.930  15.324  0.0700  2.4642 -0.1169
14702TIP3   OH265596   5.941   3.444   3.291 -0.5812 -0.3905  0.1350
14702TIP3    H165597   5.914   3.532   3.318  2.5250  0.8240 -0.5421
14702TIP3    H265598   6.013   3.459   3.229 -0.5805 -3.3961 -0.6658
14703TIP3   OH265599   4.432   1.580  17.078  0.0978  0.4756  0.1935
14703TIP3    H165600   4.437   1.487  17.099  0.3129  0.5975  0.6952
14703TIP3    H265601   4.458   1.624  17.159  1.4520  0.9473 -0.4808
14704TIP3   OH265602   0.781   4.213  13.508 -0.3363 -0.3076 -0.4645
14704TIP3    H165603   0.847   4.234  13.442 -0.1828  0.4475 -0.0760
14704TIP3    H265604   0.761   4.297  13.549 -0.1863 -0.8297  0.6796
14705TIP3   OH265605   5.568   0.074  13.831 -0.8195  0.1510  0.4850
14705TIP3    H165606   5.599   0.035  13.913  1.9224 -0.5555 -0.8266
14705TIP3    H265607   5.608   0.161  13.829  1.0410 -0.7033 -1.1431
14706TIP3   OH265608   4.350   0.822  16.900 -0.2013 -0.4974 -0.1904
14706TIP3    H165609   4.375   0.859  16.816 -0.6924 -3.1514 -1.5458
14706TIP3    H265610   4.260   0.852  16.914  1.0837  2.9869  1.2149
14707TIP3   OH265611   0.046   1.896   3.607  0.1138  0.1510 -0.2071
14707TIP3    H165612  -0.007   1.830   3.652 -0.3640 -0.5186 -1.7363
14707TIP3    H265613   0.024   1.885   3.515  1.8837  0.8134 -0.7068
14708TIP3   OH265614   0.634   1.788  14.825 -0.4777 -0.2673 -0.2194
14708TIP3    H165615   0.610   1.864  14.772  0.1542 -0.8091 -1.2917
14708TIP3    H265616   0.608   1.713  14.772  3.1509 -0.8874 -1.2515
14709TIP3   OH265617   0.048   2.900   2.777 -0.0141 -0.4163  0.2045
14709TIP3    H165618   0.093   2.816   2.762  0.6924  0.1963 -1.1774
14709TIP3    H265619  -0.040   2.887   2.742  0.7918  0.1324 -2.0571
14710TIP3   OH265620   1.428   1.859   2.480  0.4362 -0.2874  0.1292
14710TIP3    H165621   1.338   1.826   2.481  0.2887  0.1110  0.0042
14710TIP3    H265622   1.438   1.904   2.563  0.6609 -0.7001  0.3289
14711TIP3   OH265623   1.326   1.535   4.157  0.4324 -0.0984  0.3899
14711TIP3    H165624   1.310   1.536   4.063 -0.3302 -2.6170  0.4677
14711TIP3    H265625   1.249   1.493   4.194  0.7182  0.8948  2.1465
14712TIP3   OH265626   2.314   0.399  16.199  0.4836  0.1109 -0.1594
14712TIP3    H165627   2.300   0.308  16.173 -2.1620 -0.0218  1.5012
14712TIP3    H265628   2.261   0.449  16.137  2.3179  0.5725 -1.3741
14713TIP3   OH265629   0.647   6.234  15.533  0.5611  0.4914 -0.6694
14713TIP3    H165630   0.664   6.165  15.598 -1.4653 -0.0041 -0.6288
14713TIP3    H265631   0.634   6.313  15.585  1.4578  0.6120 -0.6281
14714TIP3   OH265632   5.926   6.202   3.838 -0.2253  0.3254  0.1298
14714TIP3    H165633   5.872   6.160   3.771 -0.0122 -0.8589  0.6917
14714TIP3    H265634   5.908   6.295   3.828 -0.9169  0.0887 -0.9505
14715TIP3   OH265635   2.967   1.293  13.311 -0.0345  0.0960  0.5241
14715TIP3    H165636   2.984   1.202  13.336 -1.6954 -0.4437 -0.2350
14715TIP3    H265637   2.873   1.305  13.325  0.0964  1.5973  0.2686
14716TIP3   OH265638   5.802   1.846  12.092 -0.4595 -0.1899  0.3977
14716TIP3    H165639   5.794   1.759  12.130 -1.9644 -0.3786 -0.3393
14716TIP3    H265640   5.749   1.843  12.012 -0.5469  1.4029  0.3750
14717TIP3   OH265641   6.049   1.401  10.760  0.0164  0.4445 -0.2338
14717TIP3    H165642   6.139   1.410  10.730  0.4350  4.0432  1.8254
14717TIP3    H265643   6.023   1.489  10.786 -3.1699 -0.9969  1.8504
14718TIP3   OH265644   3.589   2.656  11.794 -0.3498 -0.4590 -0.0690
14718TIP3    H165645   3.646   2.659  11.717 -0.6255 -0.3806 -0.2689
14718TIP3    H265646   3.607   2.738  11.840 -0.0488 -0.5907  0.0468
14719TIP3   OH265647   6.575   1.238   5.764 -0.1478  0.7801 -0.2375
14719TIP3    H165648   6.508   1.285   5.814 -1.6891 -0.9640 -0.5994
14719TIP3    H265649   6.658   1.268   5.801 -1.0840  3.6397 -0.3733
14720TIP3   OH265650   5.280   4.852   3.742  0.3146  0.6753 -0.0096
14720TIP3    H165651   5.339   4.898   3.683 -0.1742  0.0808 -0.9969
14720TIP3    H265652   5.238   4.921   3.794  0.4100  1.2566 -0.6917
14721TIP3   OH265653   2.305   5.888  16.275  0.3429  0.4172 -0.2849
14721TIP3    H165654   2.369   5.840  16.326 -0.6204  0.0455  0.5813
14721TIP3    H265655   2.308   5.977  16.310  0.0793  0.2976  0.0363
14722TIP3   OH265656   4.287   5.330  17.135  0.6138 -0.4845  0.2218
14722TIP3    H165657   4.302   5.293  17.222  0.6905 -1.5603 -0.2423
14722TIP3    H265658   4.193   5.324  17.123  0.5005  0.4931  0.5895
14723TIP3   OH265659   3.390   5.951  16.517  0.6877 -0.6964  0.2791
14723TIP3    H165660   3.456   5.944  16.586 -0.5283 -0.3953  1.4984
14723TIP3    H265661   3.402   5.873  16.464  1.5300 -1.0196  0.9359
14724TIP3   OH265662   6.008   2.822  14.871 -0.0911 -0.3349  0.4749
14724TIP3    H165663   5.986   2.735  14.840 -1.2512 -0.6473  2.1268
14724TIP3    H265664   6.102   2.831  14.851 -0.1714 -1.5783 -0.5375
14725TIP3   OH265665   1.333   2.664   0.076  0.7854  0.2063  0.0173
14725TIP3    H165666   1.397   2.595   0.058 -0.7586 -0.9420 -1.1020
14725TIP3    H265667   1.302   2.692  -0.010 -0.8715  0.1364  0.5804
14726TIP3   OH265668   1.703   0.857  16.689 -0.2421 -0.2449  0.5511
14726TIP3    H165669   1.759   0.863  16.766  0.0034 -0.8830  0.4256
14726TIP3    H265670   1.691   0.763  16.675 -1.2940 -0.1251  0.5455
14727TIP3   OH265671   3.708   0.445   5.834  0.8750  0.3057  0.4209
14727TIP3    H165672   3.613   0.452   5.848  0.7634  0.7129 -0.5041
14727TIP3    H265673   3.740   0.399   5.912 -0.0205  0.5623  0.9565
14728TIP3   OH265674   6.722   5.493  12.268  0.8817 -0.2836  0.0134
14728TIP3    H165675   6.708   5.507  12.362 -0.7683  0.7493 -0.3511
14728TIP3    H265676   6.719   5.399  12.256  1.2662 -0.4277  1.0199
14729TIP3   OH265677   3.995   0.658  16.677 -0.0192 -0.3988 -0.2598
14729TIP3    H165678   3.907   0.673  16.711  0.5373 -0.4458  1.2438
14729TIP3    H265679   4.048   0.727  16.718  1.2196 -2.2060  1.2927
14730TIP3   OH265680   3.827   3.423   1.462 -0.2643 -0.1580 -0.3990
14730TIP3    H165681   3.807   3.445   1.371 -1.5623 -0.2176 -0.1339
14730TIP3    H265682   3.862   3.504   1.499 -0.0653 -0.0319 -0.8562
14731TIP3   OH265683   6.776   5.622  10.863  0.3970  0.1206  0.2172
14731TIP3    H165684   6.798   5.646  10.954 -1.8907 -1.6335  1.2867
14731TIP3    H265685   6.752   5.705  10.822 -0.2719  0.6964  1.7320
14732TIP3   OH265686   1.290   6.110  12.957 -0.5259 -0.0347  0.4924
14732TIP3    H165687   1.252   6.183  12.909  0.2832  1.4374  2.0245
14732TIP3    H265688   1.223   6.085  13.021 -0.3324  0.1560  0.7683
14733TIP3   OH265689   5.540   5.873   2.726 -0.7375 -0.2136  0.1017
14733TIP3    H165690   5.610   5.809   2.714 -0.7018 -0.1946  0.2046
14733TIP3    H265691   5.464   5.834   2.683 -0.2916  0.4114 -1.2829
14734TIP3   OH265692   0.398   0.024  17.011 -0.1299 -0.2076 -0.5445
14734TIP3    H165693   0.449   0.105  17.020 -0.3761  0.1329 -2.0507
14734TIP3    H265694   0.308   0.054  16.995 -0.5132 -0.7953  0.4943
14735TIP3   OH265695   0.312   5.555  14.014  0.8395  0.3389 -0.3689
14735TIP3    H165696   0.343   5.645  14.025 -2.0896  1.2966  0.4590
14735TIP3    H265697   0.237   5.548  14.073 -0.0489 -2.0989 -1.7272
14736TIP3   OH265698   2.400   1.354   2.287  0.1263 -0.4685 -0.4453
14736TIP3    H165699   2.480   1.401   2.314  0.9370 -0.5470 -2.6093
14736TIP3    H265700   2.330   1.419   2.296  0.5526 -0.1570  0.7205
14737TIP3   OH265701   3.024   6.466  11.100 -0.0725  0.0054  0.0822
14737TIP3    H165702   2.957   6.445  11.036 -1.3100  0.8918  1.0526
14737TIP3    H265703   3.104   6.480  11.049 -1.0786  0.8539 -1.2668
14738TIP3   OH265704   4.443   5.092   1.840  0.1845 -0.1427 -0.1625
14738TIP3    H165705   4.361   5.128   1.874  0.7353 -0.7498  1.8424
14738TIP3    H265706   4.504   5.165   1.840 -0.1542  0.1530 -1.0550
14739TIP3   OH265707   2.530   2.750  11.796  0.4384 -0.1881  0.0025
14739TIP3    H165708   2.544   2.709  11.882 -3.1780 -0.7130  0.4007
14739TIP3    H265709   2.461   2.814  11.811 -0.7827 -0.8010 -2.6534
14740TIP3   OH265710   4.539   4.577   4.835 -0.0486 -0.8430  0.2236
14740TIP3    H165711   4.561   4.504   4.894 -1.0919  0.9533  2.9255
14740TIP3    H265712   4.467   4.543   4.782 -0.8287 -1.6721  1.7585
14741TIP3   OH265713   3.758   6.545  15.808 -0.1093  0.3008  0.1231
14741TIP3    H165714   3.802   6.462  15.790 -1.7871 -0.6709  0.4088
14741TIP3    H265715   3.808   6.584  15.879  0.0026 -1.0094  0.7717
14742TIP3   OH265716   2.596   0.362  14.862  0.3287  0.1279  0.0666
14742TIP3    H165717   2.567   0.284  14.910 -1.7565  0.2632 -0.9266
14742TIP3    H265718   2.593   0.337  14.770  0.0224  1.2497 -0.2435
14743TIP3   OH265719   5.965   6.279   0.929 -0.3969 -0.0477  0.0843
14743TIP3    H165720   5.929   6.258   0.843  0.3678  1.3409 -0.5877
14743TIP3    H265721   5.892   6.318   0.978  0.1670  2.9450 -1.3404
14744TIP3   OH265722   6.055   2.923  15.174  0.1731 -0.1385 -0.2033
14744TIP3    H165723   6.026   3.014  15.169 -1.4519 -0.5749  0.9679
14744TIP3    H265724   5.993   2.875  15.118  0.5262 -0.6416 -0.1711
14745TIP3   OH265725   4.375   2.835   5.698 -0.1296  0.2007  0.1427
14745TIP3    H165726   4.378   2.858   5.605 -0.4889 -1.0417 -0.1753
14745TIP3    H265727   4.406   2.745   5.702  0.5437  0.4643  1.3150
14746TIP3   OH265728   0.057   3.648   4.864 -0.4118 -0.3438 -0.3298
14746TIP3    H165729   0.019   3.570   4.904 -0.8398 -0.5691 -1.1754
14746TIP3    H265730   0.064   3.710   4.936 -1.6790 -0.5547 -0.0167
14747TIP3   OH265731   4.825   2.143  15.613  0.0589  0.4141 -0.3507
14747TIP3    H165732   4.771   2.067  15.636  2.5972 -1.0106  1.1138
14747TIP3    H265733   4.771   2.218  15.635 -1.0005 -0.9809  1.9798
14748TIP3   OH265734   5.534   4.441   4.214  0.6230 -0.1702  0.6629
14748TIP3    H165735   5.473   4.513   4.229  1.2839  0.1677  1.7934
14748TIP3    H265736   5.589   4.471   4.142 -0.8226 -0.6731 -0.6958
14749TIP3   OH265737   5.963   0.466  16.624  0.2508 -1.0075 -0.1018
14749TIP3    H165738   5.913   0.505  16.696 -1.5024  0.3051 -2.0030
14749TIP3    H265739   6.055   0.487  16.644 -0.5328  3.0022 -0.4168
14750TIP3   OH265740   5.935   2.476   4.754  0.6898 -0.5373  0.3857
14750TIP3    H165741   5.942   2.452   4.847 -0.3501 -1.5311  0.2180
14750TIP3    H265742   5.977   2.562   4.748 -0.8862  0.3830  2.1287
14751TIP3   OH265743   2.278   1.394   3.088  0.5674 -0.1230 -0.4953
14751TIP3    H165744   2.256   1.307   3.120  1.7182  0.6773  2.6510
14751TIP3    H265745   2.193   1.438   3.078  0.1499 -0.3089  1.8883
14752TIP3   OH265746   2.125   1.909   4.142  0.6372  0.0425  0.2393
14752TIP3    H165747   2.172   1.950   4.214  2.0509  1.3760 -1.4072
14752TIP3    H265748   2.097   1.982   4.087 -0.7298 -0.9436 -0.3998
14753TIP3   OH265749   4.869   5.942   1.835  0.2826 -0.2491  0.5146
14753TIP3    H165750   4.836   5.926   1.747  2.3569 -1.2616 -0.0991
14753TIP3    H265751   4.885   6.036   1.839 -0.8838 -0.0319  0.2065
14754TIP3   OH265752   4.333   2.138   2.915  0.2585 -0.5266  0.2673
14754TIP3    H165753   4.246   2.135   2.955 -1.0268  1.1844 -2.2887
14754TIP3    H265754   4.379   2.208   2.961 -1.1006  1.2134 -0.9517
14755TIP3   OH265755   3.710   4.401  13.719  0.4167  0.2758 -0.4555
14755TIP3    H165756   3.800   4.412  13.687  0.4544 -1.0369 -0.8096
14755TIP3    H265757   3.698   4.306  13.725 -0.6302  0.4649  0.4995
14756TIP3   OH265758   6.631   2.165   1.207  0.0338  0.2947  0.4044
14756TIP3    H165759   6.672   2.235   1.156  0.7041  0.1185  0.6992
14756TIP3    H265760   6.554   2.206   1.246  1.5264  1.4377  2.2249
14757TIP3   OH265761   6.113   1.546   3.417 -0.2149  0.1724 -0.4496
14757TIP3    H165762   6.110   1.473   3.479 -0.5944  0.2123 -0.4188
14757TIP3    H265763   6.195   1.534   3.369 -0.2564 -0.2470 -0.4147
14758TIP3   OH265764   0.165   6.520   4.614  0.1561 -0.2565 -0.2912
14758TIP3    H165765   0.211   6.603   4.603 -0.0756 -0.1805 -0.6749
14758TIP3    H265766   0.215   6.475   4.682 -0.7704  0.9593  1.2412
14759TIP3   OH265767   1.022   2.757  16.248  0.1396 -0.6441 -0.3537
14759TIP3    H165768   1.109   2.795  16.236 -0.6986  1.3999 -0.0854
14759TIP3    H265769   1.013   2.695  16.176  1.4564 -0.1992 -0.9159
14760TIP3   OH265770   0.287   6.708  10.988 -0.1523  1.0734 -0.0578
14760TIP3    H165771   0.342   6.654  10.931 -1.5086 -2.6562  1.9788
14760TIP3    H265772   0.224   6.749  10.928 -0.2785 -1.1404 -1.5129
14761TIP3   OH265773   0.389   5.245   4.192 -0.1086  0.3023 -0.0582
14761TIP3    H165774   0.324   5.282   4.132 -0.1642  3.0581  1.5984
14761TIP3    H265775   0.338   5.187   4.250 -0.1086 -2.0799 -2.3367
14762TIP3   OH265776   1.574   2.776  15.255  0.4049 -0.1528  0.2125
14762TIP3    H165777   1.509   2.718  15.215  0.7867 -0.8499  0.5933
14762TIP3    H265778   1.648   2.718  15.276  0.7207  0.4420  0.7460
14763TIP3   OH265779   0.262   5.655   2.745  0.3696  0.0259  0.3168
14763TIP3    H165780   0.290   5.570   2.712 -2.0955 -0.4058 -0.8084
14763TIP3    H265781   0.283   5.716   2.674 -0.9528 -0.1984 -0.2726
14764TIP3   OH265782   1.540   1.701   3.101  0.4204  0.2076 -0.2328
14764TIP3    H165783   1.485   1.772   3.070  1.1796  1.2957  0.8631
14764TIP3    H265784   1.598   1.681   3.027  0.2934  0.8210 -0.4967
14765TIP3   OH265785   3.774   3.310   3.767 -0.1416  0.0368  0.3426
14765TIP3    H165786   3.760   3.363   3.689  0.6126  0.8058  0.7289
14765TIP3    H265787   3.699   3.330   3.823  0.3716  1.0471  0.6805
14766TIP3   OH265788   3.671   6.663  12.603  0.4660  0.1195 -0.0800
14766TIP3    H165789   3.721   6.605  12.545  0.2627 -0.0564 -0.0801
14766TIP3    H265790   3.640   6.605  12.674  1.7493  0.5701  0.8618
14767TIP3   OH265791   0.949   1.533  14.300 -0.3602 -0.6844 -0.1567
14767TIP3    H165792   0.926   1.469  14.367 -2.0786 -1.2633 -1.2688
14767TIP3    H265793   0.867   1.549  14.253  0.3679  1.2222 -0.8406
14768TIP3   OH265794   2.780   5.954  13.888 -0.1181 -0.7618  0.0710
14768TIP3    H165795   2.729   5.912  13.818  0.0550 -0.1159 -0.4506
14768TIP3    H265796   2.852   5.893  13.905 -0.5924 -1.2821  0.2243
14769TIP3   OH265797   0.258   2.991   5.269  0.5008 -0.1571  0.1080
14769TIP3    H165798   0.351   2.970   5.277  0.3261 -0.8685  0.3528
14769TIP3    H265799   0.251   3.041   5.188  0.9104 -1.2540 -0.6067
14770TIP3   OH265800   0.021   3.349  16.097 -0.1831 -0.3378  1.0236
14770TIP3    H165801  -0.022   3.384  16.175  1.9975 -0.5678  2.3545
14770TIP3    H265802   0.015   3.254  16.107 -1.3431 -0.3927  0.0547
14771TIP3   OH265803   2.440   6.138  11.757  0.1275  0.1278 -0.5318
14771TIP3    H165804   2.523   6.153  11.803  0.2530  0.2952 -0.8033
14771TIP3    H265805   2.445   6.196  11.681  0.5682 -1.2162 -1.5476
14772TIP3   OH265806   6.669   2.977  11.724  0.3991 -0.7754  0.5079
14772TIP3    H165807   6.637   3.019  11.644  1.4636  0.0736  0.5146
14772TIP3    H265808   6.764   2.970  11.710  0.3615 -2.2664  0.9382
14773TIP3   OH265809   0.093   2.017  14.466  0.0025  0.0367  0.2848
14773TIP3    H165810   0.145   2.019  14.386 -1.3330  0.5519 -0.5691
14773TIP3    H265811   0.070   1.925  14.477  0.8140 -0.1507  0.5051
14774TIP3   OH265812   2.731   0.501   0.150  0.4955  0.1102  0.4412
14774TIP3    H165813   2.807   0.540   0.107  1.5426 -0.9883  1.2720
14774TIP3    H265814   2.736   0.531   0.240 -0.5943  0.7978  0.2851
14775TIP3   OH265815   5.825   0.645  16.806  0.0107 -0.1521 -0.5535
14775TIP3    H165816   5.787   0.584  16.871 -2.3033 -1.1647 -2.7587
14775TIP3    H265817   5.869   0.711  16.859 -0.8191 -1.5763  2.0395
14776TIP3   OH265818   4.167   1.766   2.883 -0.4552 -0.1466 -0.0224
14776TIP3    H165819   4.099   1.721   2.933 -0.2790  0.2246  0.5545
14776TIP3    H265820   4.238   1.780   2.946 -0.5137  0.9397 -0.1900
14777TIP3   OH265821   4.939   6.046   0.714 -0.0711  0.0169 -0.7802
14777TIP3    H165822   4.909   5.955   0.720 -0.2468  0.1273  0.1401
14777TIP3    H265823   4.926   6.081   0.802  1.6098  0.4268 -0.6659
14778TIP3   OH265824   4.861   4.815  15.877 -0.5412  0.3557  0.0238
14778TIP3    H165825   4.941   4.763  15.881 -0.7992 -0.1438 -1.2514
14778TIP3    H265826   4.798   4.767  15.931 -0.9233 -0.9110 -1.5446
14779TIP3   OH265827   6.453   0.759  14.710  0.0216  0.0921 -0.3159
14779TIP3    H165828   6.405   0.696  14.764  1.3177  0.7716  1.6922
14779TIP3    H265829   6.492   0.706  14.641 -0.2531 -1.0697  0.3991
14780TIP3   OH265830   1.605   5.395  13.571  0.0204  0.1556 -0.2794
14780TIP3    H165831   1.558   5.460  13.624  0.3762  0.2302 -0.0540
14780TIP3    H265832   1.539   5.329  13.550  0.1275 -0.4022  1.1139
14781TIP3   OH265833   5.237   1.951  14.845  0.5214  0.3304  0.3346
14781TIP3    H165834   5.295   1.909  14.908  1.7640 -1.0490 -1.6488
14781TIP3    H265835   5.152   1.907  14.857  0.9176 -0.3596  0.6213
14782TIP3   OH265836   0.009   3.268  14.204  0.0782  0.1103  0.0077
14782TIP3    H165837   0.100   3.299  14.209  0.1708 -0.3725  1.5259
14782TIP3    H265838  -0.020   3.294  14.117  2.1089 -0.8853 -1.0155
14783TIP3   OH265839   3.831   0.756   2.285  0.1405  0.4849 -0.8479
14783TIP3    H165840   3.759   0.819   2.295  0.5715  0.5514  2.3556
14783TIP3    H265841   3.881   0.789   2.210 -0.9522  2.6286 -0.6888
14784TIP3   OH265842   1.369   0.936  11.427 -0.1796  0.4203  0.1606
14784TIP3    H165843   1.287   0.983  11.409 -0.2980  0.5630  1.0832
14784TIP3    H265844   1.437   0.990  11.386 -0.5177  0.4154 -0.4164
14785TIP3   OH265845   6.709   2.292   3.695  0.1044 -0.2111  0.0587
14785TIP3    H165846   6.788   2.251   3.729  0.1987 -0.1398 -0.0720
14785TIP3    H265847   6.638   2.252   3.744  0.1409 -1.0850 -0.5940
14786TIP3   OH265848   0.079   6.265  14.800  0.3445  0.5530 -0.2363
14786TIP3    H165849  -0.004   6.299  14.833 -0.5583 -0.4056 -1.4667
14786TIP3    H265850   0.127   6.238  14.878 -1.0938 -0.2211  0.3988
14787TIP3   OH265851   2.682   6.086   3.602 -0.1347 -0.0180 -0.0371
14787TIP3    H165852   2.738   6.015   3.570 -0.2935 -0.3562  0.4427
14787TIP3    H265853   2.640   6.121   3.523  0.1900 -0.2430 -0.3097
14788TIP3   OH265854   2.892   1.652   6.054 -0.9180  0.1175 -0.6436
14788TIP3    H165855   2.799   1.653   6.075 -0.9193 -1.2247 -0.5696
14788TIP3    H265856   2.932   1.709   6.121 -1.7167  1.0055 -0.9054
14789TIP3   OH265857   2.925   1.214  15.120  0.4212  0.5827 -0.5323
14789TIP3    H165858   2.896   1.173  15.202  2.8154  0.9002  0.5173
14789TIP3    H265859   2.871   1.292  15.112 -0.8426 -0.2151 -0.0348
14790TIP3   OH265860   0.222   5.790   4.499 -0.5322 -0.1794 -0.1499
14790TIP3    H165861   0.244   5.698   4.518 -1.1352 -0.3072 -0.0557
14790TIP3    H265862   0.280   5.814   4.427 -2.1816 -1.4453 -1.9495
14791TIP3   OH265863   4.553   2.961   6.047 -0.1393  0.4078 -0.9902
14791TIP3    H165864   4.635   2.911   6.038 -0.6959 -0.3560 -1.8488
14791TIP3    H265865   4.544   2.976   6.141 -0.0749 -1.2870 -0.7121
14792TIP3   OH265866   6.499   1.962  11.077  0.1301  0.2136 -0.4600
14792TIP3    H165867   6.516   2.045  11.122  0.2876  0.9742 -1.8830
14792TIP3    H265868   6.570   1.954  11.014  0.1066 -1.0123 -0.3301
14793TIP3   OH265869   2.239   1.964   2.155  0.4124  0.8209 -0.2933
14793TIP3    H165870   2.296   1.895   2.189  0.9368  1.7527  0.7605
14793TIP3    H265871   2.194   1.999   2.232  1.4883  2.8430 -0.5422
14794TIP3   OH265872   4.952   5.627  15.054  0.0917 -0.2671  0.2208
14794TIP3    H165873   5.028   5.573  15.077  0.8831  1.2371  1.2677
14794TIP3    H265874   4.983   5.682  14.981  0.8361  2.0725  2.2352
14795TIP3   OH265875   5.177   3.313  16.640 -0.1268 -0.0793  0.3891
14795TIP3    H165876   5.266   3.335  16.616  0.3012 -0.3094  1.7242
14795TIP3    H265877   5.124   3.385  16.607  0.8549  1.3318  1.8050
14796TIP3   OH265878   3.119   4.085  15.994  0.5139  0.2009  0.2190
14796TIP3    H165879   3.214   4.098  16.003  0.3957  3.0597 -1.8919
14796TIP3    H265880   3.082   4.173  16.003 -2.0064 -0.9196  1.2902
14797TIP3   OH265881   3.211   4.687  13.341  0.0348 -0.0191  0.2214
14797TIP3    H165882   3.286   4.720  13.291  1.4905  0.6867  2.7852
14797TIP3    H265883   3.204   4.747  13.415 -3.2797  0.1083 -0.1082
14798TIP3   OH265884   0.477   0.046   5.046  0.0942  0.0209 -0.1868
14798TIP3    H165885   0.391   0.047   5.005 -0.5722  2.1753  1.2424
14798TIP3    H265886   0.467   0.097   5.126  3.3478  2.7194 -1.3733
14799TIP3   OH265887   3.021   6.356   1.898  0.1683 -0.4587  0.6203
14799TIP3    H165888   2.979   6.354   1.812 -0.3441  0.3423  0.8548
14799TIP3    H265889   3.112   6.383   1.879  0.0051 -0.0913  0.3529
14800TIP3   OH265890   2.530   0.651   4.461 -0.4539 -0.2439 -0.4685
14800TIP3    H165891   2.498   0.655   4.551  0.3855 -0.7609 -0.1311
14800TIP3    H265892   2.578   0.733   4.449 -1.2628  0.1957 -0.7261
14801TIP3   OH265893   0.929   1.177  12.385 -0.3723  0.1748 -0.0026
14801TIP3    H165894   0.905   1.090  12.353  1.3622 -1.0609  1.8876
14801TIP3    H265895   1.014   1.195  12.344  0.8653 -0.5191  2.1766
14802TIP3   OH265896   4.055   4.288   5.378  0.3512  0.0520 -0.2996
14802TIP3    H165897   4.014   4.368   5.411  0.8159 -0.1804  0.8647
14802TIP3    H265898   4.121   4.266   5.444 -0.8673 -2.1832  0.2033
14803TIP3   OH265899   5.313   6.202   0.908  0.1770  0.0939  0.5395
14803TIP3    H165900   5.220   6.178   0.918 -0.0145  0.7023  0.2353
14803TIP3    H265901   5.360   6.121   0.926 -0.5037 -0.8569 -1.7764
14804TIP3   OH265902   1.698   4.415  11.018  0.7240 -0.1125 -0.1882
14804TIP3    H165903   1.638   4.473  11.063  0.0900  1.3730 -2.8418
14804TIP3    H265904   1.754   4.473  10.966  0.6300 -1.7941 -2.2406
14805TIP3   OH265905   1.064   3.317   0.570  0.1155 -0.1013 -0.6014
14805TIP3    H165906   0.980   3.351   0.601  0.3495 -1.7144  1.9731
14805TIP3    H265907   1.087   3.250   0.634  2.5059 -0.9351 -2.2823
14806TIP3   OH265908   0.844   0.223  11.063  0.5883 -0.0599  0.9510
14806TIP3    H165909   0.884   0.180  10.988  0.1820  0.5929  0.3543
14806TIP3    H265910   0.914   0.229  11.128  0.4325 -2.3728  1.3685
14807TIP3   OH265911   6.419   4.176  12.000 -0.4440 -0.3452  0.2224
14807TIP3    H165912   6.486   4.233  11.961  0.3349 -0.6574  1.0829
14807TIP3    H265913   6.338   4.199  11.955 -0.2957  1.9779  1.0914
14808TIP3   OH265914   1.899   1.130   1.860 -0.1469 -0.1999 -0.4237
14808TIP3    H165915   1.865   1.182   1.787  1.8598  0.6467 -0.7618
14808TIP3    H265916   1.930   1.049   1.819  1.8676  0.6763 -0.6547
14809TIP3   OH265917   4.442   3.204   0.369  0.1490 -0.0223  0.2380
14809TIP3    H165918   4.448   3.109   0.366  0.1548 -0.0133  0.0066
14809TIP3    H265919   4.532   3.234   0.374  0.2615  0.0659 -2.0641
14810TIP3   OH265920   4.176   0.519  15.717  0.1445  0.3211  0.6827
14810TIP3    H165921   4.122   0.568  15.778 -0.1868  1.9174 -0.8451
14810TIP3    H265922   4.253   0.574  15.703 -1.0237  1.3435 -2.3783
14811TIP3   OH265923   5.392   3.593   3.535  0.7696  0.6414 -0.5336
14811TIP3    H165924   5.303   3.616   3.510  0.8687  0.7640 -0.7738
14811TIP3    H265925   5.395   3.611   3.629  0.6874  1.1072 -0.6199
14812TIP3   OH265926   0.833   0.202  14.268 -0.3913  0.3203 -0.5497
14812TIP3    H165927   0.851   0.264  14.339 -1.5219  0.1943 -0.1379
14812TIP3    H265928   0.756   0.237  14.224  0.2047  0.3048 -1.6346
14813TIP3   OH265929   1.070   0.823   2.448  0.2282 -0.1309 -0.4661
14813TIP3    H165930   1.154   0.851   2.411 -0.8192  1.2512 -1.8933
14813TIP3    H265931   1.027   0.775   2.377  0.1488 -1.5514  0.5270
14814TIP3   OH265932   3.272   6.635   4.875 -0.4473  0.2888  0.3972
14814TIP3    H165933   3.183   6.647   4.842 -0.3731  0.2318  0.1794
14814TIP3    H265934   3.328   6.670   4.806 -0.2649 -0.4220  0.1820
14815TIP3   OH265935   5.050   3.613   1.868  0.0889  0.1398 -0.0429
14815TIP3    H165936   5.133   3.565   1.861  1.1536  1.6265  1.8389
14815TIP3    H265937   4.996   3.558   1.925  1.0824  0.8165  1.5967
14816TIP3   OH265938   0.878   5.212   1.588 -0.2660 -0.5544 -0.4354
14816TIP3    H165939   0.920   5.148   1.645  0.9333 -0.4344 -1.1855
14816TIP3    H265940   0.908   5.190   1.500 -0.7815  0.3179 -0.8363
14817TIP3   OH265941   5.335   5.544   3.157  1.0153  0.0304 -0.4187
14817TIP3    H165942   5.345   5.589   3.073  0.4744  2.4557  0.7529
14817TIP3    H265943   5.395   5.591   3.216  1.2938 -1.5512  0.5941
14818TIP3   OH265944   6.279   3.386   6.102  0.2293  0.5774  0.2735
14818TIP3    H165945   6.295   3.316   6.165 -0.2677 -0.6648 -0.9598
14818TIP3    H265946   6.203   3.433   6.137 -2.4793 -2.4520 -1.2882
14819TIP3   OH265947   2.718   2.968   0.474  0.7863  0.2127 -0.1622
14819TIP3    H165948   2.684   2.901   0.414  0.1360 -0.6837  1.1769
14819TIP3    H265949   2.813   2.955   0.473  0.7827  0.2321 -1.0313
14820TIP3   OH265950   0.345   0.446   2.219  0.5068 -0.3348  0.5132
14820TIP3    H165951   0.270   0.395   2.191 -0.1274  0.2256  1.1634
14820TIP3    H265952   0.418   0.414   2.166 -0.0347 -1.4037  0.4194
14821TIP3   OH265953   2.909   6.367  12.223  0.0242  0.3251 -0.2499
14821TIP3    H165954   2.929   6.361  12.317  0.3470 -3.4833 -0.4890
14821TIP3    H265955   2.993   6.381  12.181  0.1776 -0.1647 -0.1119
14822TIP3   OH265956   5.792   4.510  10.450  0.3484  0.4606  0.6165
14822TIP3    H165957   5.706   4.478  10.477  0.8273 -1.2164  0.1933
14822TIP3    H265958   5.786   4.605  10.459 -1.3726  0.3212  1.0887
14823TIP3   OH265959   6.580   6.526   4.602 -0.0354  0.3105 -0.2598
14823TIP3    H165960   6.485   6.540   4.608 -0.3204  0.3218 -3.7856
14823TIP3    H265961   6.610   6.593   4.540  1.7756 -1.7285 -1.6389
14824TIP3   OH265962   3.111   6.486   2.341 -0.8274  0.3828  0.3592
14824TIP3    H165963   3.147   6.557   2.393 -2.8980  0.6424  1.4861
14824TIP3    H265964   3.017   6.487   2.360 -0.8619 -2.8803  0.6863
14825TIP3   OH265965   1.209   4.866  11.914  0.0472  0.3107  0.1783
14825TIP3    H165966   1.195   4.956  11.943  1.1167  0.7676 -0.6896
14825TIP3    H265967   1.207   4.872  11.818 -0.2994 -0.6531  0.1294
14826TIP3   OH265968   3.271   1.780   2.029  0.5898  0.4787 -0.4433
14826TIP3    H165969   3.316   1.695   2.027  1.5044  0.9268  0.5342
14826TIP3    H265970   3.342   1.844   2.035 -0.1885  1.1466  2.1385
14827TIP3   OH265971   2.832   4.947  16.163 -0.0668 -0.5827  0.4760
14827TIP3    H165972   2.801   4.989  16.243  1.4286 -2.1118  1.8931
14827TIP3    H265973   2.760   4.956  16.101 -0.7065  1.8960  1.5191
14828TIP3   OH265974   3.913   5.562  16.831  0.5718  0.6143  0.0469
14828TIP3    H165975   3.927   5.570  16.736  1.6890 -1.6847 -0.0048
14828TIP3    H265976   3.995   5.589  16.870  1.3655 -1.8421  0.1843
14829TIP3   OH265977   0.247   0.745   0.329  0.3191 -0.0245 -0.1035
14829TIP3    H165978   0.272   0.685   0.259 -1.7158 -1.1834  0.1040
14829TIP3    H265979   0.286   0.707   0.408  2.2066  1.0203 -0.5039
14830TIP3   OH265980   1.344   3.610  17.053  0.5243 -0.0193  0.4261
14830TIP3    H165981   1.305   3.588  16.968 -0.9535  1.0619  0.8032
14830TIP3    H265982   1.376   3.526  17.087  0.3989 -0.5895 -0.8359
14831TIP3   OH265983   3.032   0.337   3.307  0.4253 -0.1523 -0.0555
14831TIP3    H165984   3.074   0.283   3.373  0.9588  0.7454  0.3510
14831TIP3    H265985   3.094   0.408   3.292 -1.9020  2.5186  2.3090
14832TIP3   OH265986   5.183   6.439  11.209 -0.1654  0.1536  0.2246
14832TIP3    H165987   5.126   6.461  11.135 -1.7179  1.3807  1.7299
14832TIP3    H265988   5.269   6.473  11.184 -0.6382  0.4453 -1.0524
14833TIP3   OH265989   0.854   3.672  15.830 -0.2851 -0.0583 -0.2540
14833TIP3    H165990   0.859   3.738  15.760  0.9946 -0.1974 -0.3094
14833TIP3    H265991   0.833   3.591  15.785 -3.7775  0.6228  0.0237
14834TIP3   OH265992   4.159   3.012  17.090  0.1150 -0.4044 -0.6897
14834TIP3    H165993   4.219   3.079  17.122  1.4402 -0.4980 -2.8464
14834TIP3    H265994   4.211   2.932  17.089 -0.3189 -0.6812 -1.6794
14835TIP3   OH265995   4.284   0.744  11.186  0.4390  0.4518  0.0406
14835TIP3    H165996   4.285   0.837  11.207  0.4649  0.8268 -1.5677
14835TIP3    H265997   4.206   0.732  11.131 -0.5968 -0.8302  1.7068
14836TIP3   OH265998   6.372   0.269  16.917 -0.0377 -0.2177  0.1690
14836TIP3    H165999   6.457   0.313  16.906  0.6093 -1.1651  1.2786
14836TIP3    H266000   6.393   0.186  16.960 -1.6861  0.2632  1.9740
14837TIP3   OH266001   4.666   6.447   5.052  0.4757 -0.3708  0.7066
14837TIP3    H166002   4.608   6.471   4.980  3.0440 -1.4368 -1.7655
14837TIP3    H266003   4.648   6.355   5.068 -0.2929 -0.0710  1.7020
14838TIP3   OH266004   0.776   4.322   0.555 -0.9949  0.4222  0.0723
14838TIP3    H166005   0.766   4.273   0.473 -3.7836  1.4419 -0.2598
14838TIP3    H266006   0.717   4.277   0.616 -0.2534  0.7240  1.0191
14839TIP3   OH266007   6.120   6.148   3.216  0.1711 -0.4274  0.4396
14839TIP3    H166008   6.136   6.228   3.266 -1.4401 -0.3673  0.9057
14839TIP3    H266009   6.123   6.175   3.125  1.1016 -0.1380  0.5469
14840TIP3   OH266010   4.997   2.334   0.904  0.1986 -0.0426  0.1637
14840TIP3    H166011   4.930   2.345   0.972  0.4780 -1.3697  0.6716
14840TIP3    H266012   5.043   2.418   0.903 -0.2608  0.2390  1.1302
14841TIP3   OH266013   0.130   0.547  14.634  0.6548 -0.3720  0.0613
14841TIP3    H166014   0.050   0.578  14.675  0.8989  0.9005 -0.3877
14841TIP3    H266015   0.200   0.579  14.690  1.1012  3.1435 -2.3355
14842TIP3   OH266016   6.512   5.047  11.015 -0.7705  0.1837  0.0842
14842TIP3    H166017   6.470   5.081  10.936 -2.1386 -0.9854  0.2898
14842TIP3    H266018   6.509   4.952  11.005 -2.7191 -0.0508  2.4191
14843TIP3   OH266019   5.008   2.269   2.706 -0.4077  0.2934  0.2693
14843TIP3    H166020   4.996   2.363   2.694 -0.9779  0.2630  0.5752
14843TIP3    H266021   5.036   2.260   2.797 -1.1838  0.0975  0.4890
14844TIP3   OH266022   0.597   5.249  16.066 -0.1694 -0.8111 -0.5390
14844TIP3    H166023   0.522   5.211  16.111 -0.3793  0.9436  0.6235
14844TIP3    H266024   0.615   5.330  16.113  0.8426  0.0848 -2.4106
14845TIP3   OH266025   3.752   3.274   5.664  0.0513  0.3604 -0.0131
14845TIP3    H166026   3.682   3.331   5.695  0.3240  0.2750  0.7694
14845TIP3    H266027   3.718   3.236   5.583 -0.5359  0.8333  0.0056
14846TIP3   OH266028   0.218   3.536   6.291 -0.2561 -0.2204  0.1966
14846TIP3    H166029   0.247   3.617   6.250 -0.0101  0.3375  1.4585
14846TIP3    H266030   0.168   3.564   6.367  0.7456 -1.2641  1.2591
14847TIP3   OH266031   0.476   2.084   2.705 -0.1955  0.1151  0.0363
14847TIP3    H166032   0.532   2.095   2.782  0.7613  2.9113 -1.0087
14847TIP3    H266033   0.398   2.135   2.724 -0.2906  0.1893 -0.5324
14848TIP3   OH266034   6.115   4.091   1.425 -0.3955  0.5461 -0.5302
14848TIP3    H166035   6.138   4.149   1.352 -1.8777 -0.8864 -2.1781
14848TIP3    H266036   6.021   4.103   1.438 -0.1912  0.6262  1.0308
14849TIP3   OH266037   4.620   0.839  14.061 -0.7839  0.2351  0.2251
14849TIP3    H166038   4.587   0.925  14.036  0.0963 -0.0589 -2.0732
14849TIP3    H266039   4.543   0.793  14.096 -1.5358  1.4781  0.2306
14850TIP3   OH266040   0.034   1.090  13.281 -0.2823  0.0250  0.3508
14850TIP3    H166041  -0.016   1.009  13.292  0.0217 -0.2695 -0.4134
14850TIP3    H266042  -0.012   1.137  13.213  0.6004 -0.3475 -0.5177
14851TIP3   OH266043   5.251   1.483  12.733 -0.7497 -0.2004 -0.2240
14851TIP3    H166044   5.335   1.501  12.691 -0.7056 -1.4836 -0.7066
14851TIP3    H266045   5.274   1.444  12.817 -0.8292  2.8697  1.2925
14852TIP3   OH266046   6.014   2.490  15.485 -0.2206  0.1494  0.3905
14852TIP3    H166047   5.973   2.521  15.405  2.3422  0.9506 -0.6836
14852TIP3    H266048   6.013   2.395  15.477  0.8001  0.2426 -1.0390
14853TIP3   OH266049   0.529   0.238  11.456  0.4349  0.4064 -0.2625
14853TIP3    H166050   0.498   0.260  11.368  1.9918  1.2395 -0.6263
14853TIP3    H266051   0.482   0.158  11.479 -0.9642  0.9036 -1.3113
14854TIP3   OH266052   2.002   2.729  12.734  0.4418  0.2994 -0.4948
14854TIP3    H166053   1.976   2.793  12.801  1.1612  0.3727 -0.2837
14854TIP3    H266054   1.920   2.688  12.707  0.1507  0.1946  0.5135
14855TIP3   OH266055   4.860   4.596  10.485  0.2747 -0.3247  0.1290
14855TIP3    H166056   4.776   4.553  10.470  0.2573  0.3748 -1.8705
14855TIP3    H266057   4.925   4.526  10.481 -0.0394 -0.5994 -0.1533
14856TIP3   OH266058   5.056   3.733  14.863  0.3181  0.0157 -0.5220
14856TIP3    H166059   5.108   3.780  14.799  1.7920 -0.8113  0.0492
14856TIP3    H266060   4.974   3.712  14.817  1.1460 -0.1052 -1.9546
14857TIP3   OH266061   4.189   4.127   1.959  0.0450  0.1540  0.2341
14857TIP3    H166062   4.108   4.177   1.964  0.9472  1.6501  0.4428
14857TIP3    H266063   4.252   4.187   1.919  1.7878  0.0738  2.6804
14858TIP3   OH266064   4.896   3.768   1.682  0.3568 -0.7901  0.1256
14858TIP3    H166065   4.911   3.708   1.609  1.2813 -1.5475  0.9247
14858TIP3    H266066   4.922   3.718   1.759 -1.3409 -0.2717  1.0593
14859TIP3   OH266067   5.264   0.901   0.477 -0.3493  0.0426  0.6393
14859TIP3    H166068   5.169   0.897   0.466 -0.6609  1.3375  2.7102
14859TIP3    H266069   5.284   0.831   0.540  0.0674 -0.1467  0.2994
14860TIP3   OH266070   3.368   2.534  11.339 -0.1544  0.6505  0.5824
14860TIP3    H166071   3.292   2.478  11.325  1.0930 -0.7951 -0.5120
14860TIP3    H266072   3.362   2.559  11.431 -1.3584 -0.3349  0.7882
14861TIP3   OH266073   5.249   0.260  12.221  0.2307 -0.2522 -0.0880
14861TIP3    H166074   5.228   0.333  12.279 -2.3734 -0.3374 -0.8420
14861TIP3    H266075   5.179   0.261  12.156  1.9547 -1.4332 -2.0177
14862TIP3   OH266076   3.671   0.386  12.496 -0.0603 -0.0286 -0.0368
14862TIP3    H166077   3.652   0.307  12.547  0.8568 -1.0872 -1.3115
14862TIP3    H266078   3.747   0.424  12.540  1.5165 -1.6219 -1.3122
14863TIP3   OH266079   3.833   4.951   4.374  0.1582 -0.2472 -0.3300
14863TIP3    H166080   3.765   4.911   4.320 -0.6170  0.3391  0.1894
14863TIP3    H266081   3.837   5.042   4.343  0.2428 -0.1075  0.0949
14864TIP3   OH266082   4.101   3.150  11.190 -0.4929 -0.1579  0.1032
14864TIP3    H166083   4.121   3.140  11.097 -1.3265  1.8425 -0.3273
14864TIP3    H266084   4.114   3.063  11.227  2.7672 -0.3487 -1.3064
14865TIP3   OH266085   2.928   2.499  14.572  0.0147 -0.6030 -0.6098
14865TIP3    H166086   2.860   2.442  14.611 -0.5130 -0.0605 -0.7301
14865TIP3    H266087   3.010   2.465  14.608 -0.4789  0.0963  1.2682
14866TIP3   OH266088   1.037   4.311   5.240 -0.0395 -0.5571 -0.2940
14866TIP3    H166089   1.022   4.252   5.314 -0.1972  1.2196  1.1522
14866TIP3    H266090   0.950   4.334   5.210 -0.1653  2.5400  2.1700
14867TIP3   OH266091   5.773   0.166   1.569 -0.8111 -0.2203 -0.2859
14867TIP3    H166092   5.840   0.099   1.578 -0.4576 -0.0566 -1.6043
14867TIP3    H266093   5.694   0.117   1.544 -1.2189 -0.4213  1.3422
14868TIP3   OH266094   4.975   1.566  13.670  0.1393 -0.4862 -0.2877
14868TIP3    H166095   4.884   1.557  13.643  0.2543 -0.2016 -0.7700
14868TIP3    H266096   4.977   1.648  13.720  0.8667  1.4922 -3.4549
14869TIP3   OH266097   2.387   2.908   1.925  0.1891 -0.2546  0.4914
14869TIP3    H166098   2.294   2.895   1.906 -0.4841  1.8191  2.1355
14869TIP3    H266099   2.406   2.842   1.992  0.2665 -1.5989 -0.8422
14870TIP3   OH266100   4.026   2.282   1.622  0.0978 -0.1947 -0.2673
14870TIP3    H166101   3.965   2.355   1.610 -0.5629 -0.8675 -1.0549
14870TIP3    H266102   4.113   2.320   1.611 -0.1588  0.8738  1.3593
14871TIP3   OH266103   0.343   3.007  15.032  0.1477 -0.0593 -0.0488
14871TIP3    H166104   0.346   3.008  15.128 -0.0293  1.3799 -0.0496
14871TIP3    H266105   0.373   2.919  15.008  2.6278  0.3900  1.2546
14872TIP3   OH266106   5.116   0.813   1.846 -0.3660 -0.0879 -0.6862
14872TIP3    H166107   5.201   0.856   1.844 -0.5819  0.3137 -1.3428
14872TIP3    H266108   5.115   0.757   1.768 -0.2950 -0.8765 -0.1273
14873TIP3   OH266109   0.779   5.976   0.030 -0.3932  0.5969  0.2223
14873TIP3    H166110   0.768   5.991   0.124  0.0420  0.6308  0.2675
14873TIP3    H266111   0.762   6.062  -0.010 -2.4359  0.1719  0.1133
14874TIP3   OH266112   0.997   2.610  14.688  0.3213  0.2025 -0.0913
14874TIP3    H166113   0.961   2.522  14.672 -1.3597  0.8564 -0.0079
14874TIP3    H266114   1.086   2.594  14.720 -0.0166 -1.4737  0.0661
14875TIP3   OH266115   2.484   0.867  13.409 -0.2294  0.1770  0.0348
14875TIP3    H166116   2.508   0.809  13.481 -1.1661  2.0156  1.8983
14875TIP3    H266117   2.554   0.933  13.407 -0.6528  0.6259 -0.1483
14876TIP3   OH266118   0.823   2.848  15.873 -0.0523  0.2168 -0.5242
14876TIP3    H166119   0.863   2.767  15.905 -1.0698 -0.3321 -0.6174
14876TIP3    H266120   0.736   2.849  15.913  0.1299  1.5172 -0.1199
14877TIP3   OH266121   4.946   3.065  16.511 -0.0279  0.6580  0.2047
14877TIP3    H166122   4.966   2.977  16.543  1.7864  0.2901 -1.8019
14877TIP3    H266123   4.921   3.053  16.419 -0.9480  2.1089  0.2457
14878TIP3   OH266124   6.564   3.806   4.866  0.1716 -0.2131  0.3027
14878TIP3    H166125   6.603   3.863   4.932 -2.4242  0.1166  1.6063
14878TIP3    H266126   6.495   3.859   4.826 -0.1398 -1.3776 -0.7389
14879TIP3   OH266127   6.663   6.760  12.516 -0.1634  0.2007  0.3930
14879TIP3    H166128   6.680   6.854  12.526 -2.1221  0.7152 -0.8946
14879TIP3    H266129   6.705   6.736  12.434 -1.3178  0.3668 -0.2431
14880TIP3   OH266130   3.578   1.276  11.811  0.6128  0.5752 -0.8156
14880TIP3    H166131   3.541   1.351  11.858  1.5829  1.2524 -1.1323
14880TIP3    H266132   3.652   1.312  11.762 -0.4430 -0.0834 -2.9606
14881TIP3   OH266133   5.776   3.799   5.734 -0.3107  0.2289 -0.0245
14881TIP3    H166134   5.785   3.799   5.638 -0.0683  0.2216 -0.0037
14881TIP3    H266135   5.782   3.892   5.758 -0.1915  0.2148 -0.0005
14882TIP3   OH266136   2.112   0.509  15.743 -0.3940 -0.0032  0.4037
14882TIP3    H166137   2.163   0.517  15.824 -1.0781  0.0826  0.8326
14882TIP3    H266138   2.031   0.558  15.761 -0.4215  0.2676 -0.4392
14883TIP3   OH266139   5.664   3.943  12.998 -0.2476  0.2019  0.3428
14883TIP3    H166140   5.574   3.970  13.016 -0.9925 -2.0448  0.1809
14883TIP3    H266141   5.681   3.973  12.909 -1.4119 -0.7764 -0.2157
14884TIP3   OH266142   6.755   5.321   5.572  0.5660 -0.0733  0.2368
14884TIP3    H166143   6.700   5.371   5.632 -1.3535  0.7818 -2.1321
14884TIP3    H266144   6.724   5.231   5.578 -1.1330  0.3971 -1.0496
14885TIP3   OH266145   4.276   3.386  16.385  0.2979  0.1534  0.5332
14885TIP3    H166146   4.286   3.307  16.439  1.5978 -0.9200 -1.2295
14885TIP3    H266147   4.219   3.358  16.313 -0.2656  1.1954  0.5652
14886TIP3   OH266148   5.906   5.538   5.099  0.0486  0.0794 -0.2579
14886TIP3    H166149   5.991   5.497   5.083 -0.3553 -0.9462  0.2102
14886TIP3    H266150   5.848   5.466   5.124 -0.9619  0.7710 -0.5515
14887TIP3   OH266151   1.414   6.107   4.674  0.0787 -0.2116 -0.1650
14887TIP3    H166152   1.434   6.013   4.671  0.5748 -0.1572  1.2809
14887TIP3    H266153   1.325   6.111   4.710 -0.2583 -0.1596 -0.9913
14888TIP3   OH266154   4.002   1.178  15.822 -0.6818  0.2934  0.3132
14888TIP3    H166155   4.008   1.229  15.741 -0.4291 -2.0796 -1.2127
14888TIP3    H266156   3.950   1.101  15.799 -0.0033 -0.7793  2.2049
14889TIP3   OH266157   4.725   1.287   2.135 -0.3484  0.1760  0.1906
14889TIP3    H166158   4.655   1.314   2.195 -0.4545  1.1087 -0.3250
14889TIP3    H266159   4.746   1.367   2.086 -0.2601 -0.5549 -0.9977
14890TIP3   OH266160   2.148   4.312   2.626 -0.0381 -0.1008 -0.3800
14890TIP3    H166161   2.068   4.362   2.642  0.0305 -0.2638  0.4933
14890TIP3    H266162   2.212   4.378   2.598 -1.0542 -0.2489 -3.2799
14891TIP3   OH266163   4.883   0.346   0.639  0.2651  0.2220  0.6155
14891TIP3    H166164   4.844   0.274   0.689 -0.5682 -1.8729 -2.8541
14891TIP3    H266165   4.976   0.344   0.662 -0.1352 -0.5213  2.2417
14892TIP3   OH266166   2.780   3.964  11.993  0.3408 -0.2333 -0.0730
14892TIP3    H166167   2.859   3.910  12.003  0.6456  0.0981 -0.6666
14892TIP3    H266168   2.738   3.960  12.079  0.0756 -1.8405 -0.2468
14893TIP3   OH266169   4.530   1.383   5.966  0.1105 -0.0679  0.4038
14893TIP3    H166170   4.548   1.360   5.875 -1.0865  0.2845  0.0670
14893TIP3    H266171   4.591   1.330   6.017 -0.7477 -1.9942 -0.4998
14894TIP3   OH266172   6.545   1.473  16.457 -0.7144 -0.0802 -0.3291
14894TIP3    H166173   6.500   1.402  16.502  0.0279 -0.6988 -0.5548
14894TIP3    H266174   6.481   1.544  16.454 -0.6376  0.1533  2.1290
14895TIP3   OH266175   2.203   4.800  15.660 -0.4195  0.0107  0.0585
14895TIP3    H166176   2.148   4.731  15.697  1.5292 -0.6485  1.7918
14895TIP3    H266177   2.212   4.864  15.731 -1.1503  1.4518 -1.1145
14896TIP3   OH266178   2.960   0.565   5.538  0.2183 -0.1443 -0.3667
14896TIP3    H166179   3.052   0.565   5.512  0.3678  1.1653  0.1135
14896TIP3    H266180   2.926   0.649   5.507 -0.9586 -0.8479 -1.0199
14897TIP3   OH266181   0.879   1.268   2.642 -0.0164 -0.1860  0.0783
14897TIP3    H166182   0.801   1.217   2.663 -1.5118  0.9204 -2.5129
14897TIP3    H266183   0.846   1.358   2.631  1.7542  0.4486 -0.1856
14898TIP3   OH266184   1.147   6.279  16.006 -0.5933 -0.3907  0.2191
14898TIP3    H166185   1.216   6.276  16.073 -0.2436 -1.4821 -0.1903
14898TIP3    H266186   1.177   6.220  15.938 -2.4057 -1.6276  0.4692
14899TIP3   OH266187   3.631   5.618   3.390 -0.4747 -0.2664 -0.1090
14899TIP3    H166188   3.688   5.590   3.462 -1.2185 -2.5540 -0.3895
14899TIP3    H266189   3.686   5.609   3.312  0.9683  4.0116  0.2667
14900TIP3   OH266190   1.420   3.210  13.381  0.1347  0.2323  0.1786
14900TIP3    H166191   1.445   3.135  13.435  0.3049  0.2936  0.1871
14900TIP3    H266192   1.491   3.217  13.316 -0.3555 -0.1968 -0.4076
14901TIP3   OH266193   3.251   5.257  14.912 -0.1534 -0.0090  0.0708
14901TIP3    H166194   3.298   5.230  14.990 -0.1066 -1.4188 -0.4248
14901TIP3    H266195   3.320   5.282  14.850 -0.2293  2.1945  0.8507
14902TIP3   OH266196   3.633   0.137   5.222  0.7201  0.0141  0.0328
14902TIP3    H166197   3.649   0.231   5.219 -1.7373  0.4900  0.9343
14902TIP3    H266198   3.655   0.111   5.311  3.1440 -0.6387 -0.7134
14903TIP3   OH266199   6.182   6.396   1.045  0.9417 -0.0372  0.0632
14903TIP3    H166200   6.244   6.345   0.993  0.8819  0.2689 -0.3163
14903TIP3    H266201   6.096   6.367   1.014  0.9146  0.9696 -0.8216
14904TIP3   OH266202   3.547   0.650  14.629  0.1299  0.2499  0.0501
14904TIP3    H166203   3.557   0.615  14.540  0.7690  0.0868  0.1867
14904TIP3    H266204   3.565   0.576  14.687  0.6015  0.5758  0.3255
14905TIP3   OH266205   4.177   1.977   1.603  0.0750 -0.1857  0.7664
14905TIP3    H166206   4.095   1.931   1.618 -0.1703 -0.3630 -0.9870
14905TIP3    H266207   4.193   2.026   1.684 -1.0277 -1.2473  1.6397
14906TIP3   OH266208   4.773   5.369   6.263 -0.2378  0.1619 -0.2041
14906TIP3    H166209   4.681   5.387   6.286 -0.1316  0.8760 -0.3218
14906TIP3    H266210   4.769   5.293   6.205 -0.9255  1.3513 -1.7628
14907TIP3   OH266211   1.945   1.630   0.003 -0.0753  0.1444  0.0008
14907TIP3    H166212   1.984   1.547   0.031 -1.6482 -0.6619 -0.1427
14907TIP3    H266213   1.938   1.681   0.084  0.5923  0.0094  0.1443
14908TIP3   OH266214   1.407   2.436   1.141  0.2565 -0.1729  0.4001
14908TIP3    H166215   1.433   2.381   1.215  0.4984 -0.3321  0.1993
14908TIP3    H266216   1.484   2.438   1.085 -0.1305 -0.5804 -0.1594
14909TIP3   OH266217   2.555   0.358  12.378  0.1891  0.2283  0.5114
14909TIP3    H166218   2.592   0.446  12.378  0.0186  0.3005  0.1480
14909TIP3    H266219   2.529   0.342  12.469  0.4774  0.4427  0.6320
14910TIP3   OH266220   3.902   5.546   5.578  0.1166  0.1384  0.0353
14910TIP3    H166221   3.850   5.555   5.498  2.7612  1.3551 -1.6039
14910TIP3    H266222   3.907   5.635   5.613 -0.0918 -0.2054  0.9453
14911TIP3   OH266223   3.384   0.348   3.175  0.1084 -0.4531 -0.6326
14911TIP3    H166224   3.365   0.372   3.084 -0.4679  0.1090 -0.3662
14911TIP3    H266225   3.316   0.392   3.226 -0.1108 -1.5037 -0.0067
14912TIP3   OH266226   1.863   4.723  14.864 -0.4115  0.0655 -0.2861
14912TIP3    H166227   1.833   4.805  14.903 -1.3036 -0.5549  0.3584
14912TIP3    H266228   1.919   4.750  14.792  0.0163  1.2460  0.4654
14913TIP3   OH266229   1.348   4.266   5.450 -0.0479  0.0682 -0.1830
14913TIP3    H166230   1.377   4.356   5.457  0.0586 -0.0400  0.8368
14913TIP3    H266231   1.267   4.263   5.501 -0.9776 -0.0127 -1.6418
14914TIP3   OH266232   1.565   4.427  11.413  0.1695  0.0217 -0.3649
14914TIP3    H166233   1.554   4.480  11.334  0.1309  1.4759  0.5883
14914TIP3    H266234   1.629   4.360  11.389 -0.6006 -0.1823 -1.9219
14915TIP3   OH266235   1.112   2.346   0.584 -0.1515  0.3959  0.6550
14915TIP3    H166236   1.140   2.263   0.545 -0.0980  0.2235  1.0638
14915TIP3    H266237   1.193   2.393   0.602 -0.2264  1.4746 -1.5987
14916TIP3   OH266238   6.311   3.963  13.125  0.3299  0.2384  0.0189
14916TIP3    H166239   6.275   3.883  13.162 -2.6600  1.4939 -0.0801
14916TIP3    H266240   6.362   4.002  13.197  0.0010 -0.6640  0.7448
14917TIP3   OH266241   0.727   4.909   3.419  0.2272 -0.5079  0.4013
14917TIP3    H166242   0.714   4.946   3.506  0.1674 -0.1867  0.2556
14917TIP3    H266243   0.683   4.970   3.360  1.9967  0.3749 -0.0557
14918TIP3   OH266244   5.972   6.742  16.864 -0.5191  0.0754 -0.0551
14918TIP3    H166245   5.954   6.831  16.833  0.3915  0.7454  1.2709
14918TIP3    H266246   5.940   6.742  16.954  1.3981 -0.2747  0.6542
14919TIP3   OH266247   2.150   1.821   3.039  0.4825 -0.1065 -0.1716
14919TIP3    H166248   2.125   1.730   3.055  1.4399 -0.5640 -1.1460
14919TIP3    H266249   2.199   1.847   3.117  1.1879 -0.8085 -0.3722
14920TIP3   OH266250   3.947   1.496   5.391  0.2821  0.1724  0.3705
14920TIP3    H166251   3.951   1.513   5.485  0.3752  0.5922  0.2913
14920TIP3    H266252   3.901   1.572   5.355  0.1812 -0.0214  0.0861
14921TIP3   OH266253   0.682   1.087   0.232 -0.0395  0.0118 -0.1723
14921TIP3    H166254   0.751   1.044   0.282 -1.3062  0.9518  2.4736
14921TIP3    H266255   0.618   1.115   0.298 -0.8563  2.9865 -2.1223
14922TIP3   OH266256   6.782   6.296   2.536  0.0316 -0.7166 -0.7435
14922TIP3    H166257   6.830   6.307   2.619 -2.5537 -1.1499  0.8861
14922TIP3    H266258   6.849   6.303   2.468  2.2463 -0.4367  1.3916
14923TIP3   OH266259   6.472   5.962  14.116 -0.1259  0.5173  0.2673
14923TIP3    H166260   6.501   5.911  14.192 -0.6984  1.5906  1.2362
14923TIP3    H266261   6.468   6.052  14.149  1.8814  1.3618 -1.6926
14924TIP3   OH266262   0.685   0.076   1.758 -0.1164 -0.3554 -0.4254
14924TIP3    H166263   0.606   0.125   1.737 -0.2028 -0.6552 -0.8063
14924TIP3    H266264   0.665  -0.014   1.733  0.4957 -0.3609 -0.9388
14925TIP3   OH266265   4.992   0.198   1.914 -0.1088 -0.5723  0.0450
14925TIP3    H166266   5.024   0.234   1.997  1.0394  0.1704 -0.6946
14925TIP3    H266267   5.049   0.123   1.897 -0.8026 -1.1534  0.2818
14926TIP3   OH266268   4.888   2.915  14.832 -0.8138 -0.8000 -0.3007
14926TIP3    H166269   4.809   2.957  14.866  0.3465  0.2891  1.0762
14926TIP3    H266270   4.922   2.864  14.905 -0.8160 -2.1461 -1.2129
14927TIP3   OH266271   3.093   2.926   5.568  0.4778 -0.2226  0.0436
14927TIP3    H166272   3.067   2.974   5.647  0.0398  0.9260 -0.7768
14927TIP3    H266273   3.051   2.974   5.496  1.6069 -0.7180 -0.9679
14928TIP3   OH266274   2.757   4.883  11.028 -0.3011  0.1346  0.1454
14928TIP3    H166275   2.686   4.925  10.981 -1.2858 -1.3836  0.2660
14928TIP3    H266276   2.817   4.955  11.050 -0.6943  1.0939 -1.8630
14929TIP3   OH266277   5.883   0.772  17.062 -0.2315 -0.6064 -0.2953
14929TIP3    H166278   5.863   0.697  17.117 -1.5682 -0.1396 -0.1448
14929TIP3    H266279   5.964   0.808  17.100 -0.9656 -0.4664  1.1858
14930TIP3   OH266280   4.311   2.526   0.775 -0.1062  0.6927  0.6627
14930TIP3    H166281   4.288   2.606   0.728 -3.3977 -0.0944  0.8346
14930TIP3    H266282   4.321   2.553   0.866 -3.7169  0.5145  1.1468
14931TIP3   OH266283   4.359   3.414  13.079  0.1103 -0.3067  0.4578
14931TIP3    H166284   4.383   3.485  13.139 -0.9788  0.4571  0.0092
14931TIP3    H266285   4.319   3.348  13.135 -0.8020  0.3560  0.6140
14932TIP3   OH266286   2.957   0.483  12.100  0.0301  0.3023  0.5906
14932TIP3    H166287   2.934   0.390  12.095 -1.8446  0.7256  0.7745
14932TIP3    H266288   2.992   0.493  12.188  2.2037 -0.6340 -0.1494
14933TIP3   OH266289   4.000   1.902   5.692 -0.4389 -0.6358  0.6334
14933TIP3    H166290   4.034   1.992   5.690 -1.0640 -0.3972  0.5562
14933TIP3    H266291   3.983   1.885   5.785 -0.3725 -0.6465  0.6429
14934TIP3   OH266292   2.272   4.925   4.113  0.0439 -0.5988  0.0094
14934TIP3    H166293   2.322   4.855   4.156  0.1994 -1.6693 -1.8586
14934TIP3    H266294   2.322   5.005   4.130  0.5910 -1.1412  1.0096
14935TIP3   OH266295   4.410   4.967   4.522 -0.0894 -0.0033  0.4256
14935TIP3    H166296   4.427   5.050   4.478  1.2067  0.6868  2.1764
14935TIP3    H266297   4.365   4.913   4.456  1.1506  1.2439 -1.4786
14936TIP3   OH266298   6.706   1.344  15.628  0.1543 -0.0749 -0.1193
14936TIP3    H166299   6.648   1.389  15.689  1.4614 -0.5269  1.4956
14936TIP3    H266300   6.704   1.398  15.549 -0.9067  0.9864  0.6122
14937TIP3   OH266301   2.719   0.588  17.156 -0.6812  0.4901  0.9520
14937TIP3    H166302   2.750   0.607  17.068  0.0585 -0.7537  0.9361
14937TIP3    H266303   2.747   0.663  17.208  2.2227 -0.4881  0.8865
14938TIP3   OH266304   1.884   5.656  15.723 -1.0923  0.0666  0.3704
14938TIP3    H166305   1.863   5.578  15.672 -1.6009 -0.4067  1.2910
14938TIP3    H266306   1.834   5.645  15.804 -1.5570  1.5872  0.2976
14939TIP3   OH266307   4.711   6.370  16.113 -0.2773 -0.0537  0.2474
14939TIP3    H166308   4.698   6.399  16.023 -1.3255  2.5985  1.1997
14939TIP3    H266309   4.786   6.420  16.143 -1.4271  0.9088  1.5826
14940TIP3   OH266310   2.169   4.553   0.797  0.0495  0.1179  0.4814
14940TIP3    H166311   2.195   4.500   0.871  0.4137 -1.6415 -0.8767
14940TIP3    H266312   2.234   4.533   0.729 -0.5926  1.2711 -0.4885
14941TIP3   OH266313   4.436   6.736   0.099  0.3652 -0.0237  0.0846
14941TIP3    H166314   4.411   6.721   0.190 -0.8150  0.8559 -0.0912
14941TIP3    H266315   4.506   6.801   0.103 -0.8562  1.3052  0.2721
14942TIP3   OH266316   2.603   1.733   5.629 -0.7210 -0.1893 -0.1782
14942TIP3    H166317   2.626   1.648   5.667 -0.4108 -0.0838 -0.1297
14942TIP3    H266318   2.687   1.779   5.620 -0.9457  0.3194  0.2973
14943TIP3   OH266319   2.386   5.596  11.335 -0.2933 -0.0552 -0.4072
14943TIP3    H166320   2.388   5.658  11.262 -0.4295  0.2453 -0.1580
14943TIP3    H266321   2.354   5.515  11.297 -1.6151  0.4651 -0.4176
14944TIP3   OH266322   3.322   4.014  15.253  0.7474 -0.5436  0.0820
14944TIP3    H166323   3.326   3.930  15.207  0.3282  0.3835 -1.6985
14944TIP3    H266324   3.322   4.079  15.183  1.4854  0.9645  1.4539
14945TIP3   OH266325   6.250   5.845  11.297 -0.2313  0.2501 -0.3288
14945TIP3    H166326   6.253   5.892  11.380 -1.3412  0.7510 -0.5637
14945TIP3    H266327   6.183   5.778  11.310  0.5388 -0.5346 -0.3743
14946TIP3   OH266328   3.500   5.131  14.818  0.3042  0.1541  0.2895
14946TIP3    H166329   3.546   5.090  14.745 -0.1983  0.0225  0.0478
14946TIP3    H266330   3.504   5.066  14.889  0.1593 -0.0126  0.1454
14947TIP3   OH266331   4.974   4.526   2.889  0.0374 -0.1302 -0.2864
14947TIP3    H166332   4.936   4.439   2.902 -0.6833 -0.1323 -2.1522
14947TIP3    H266333   4.945   4.576   2.965 -0.7167 -1.1514  0.1187
14948TIP3   OH266334   6.794   0.948  15.312 -0.0272 -0.0979  0.0975
14948TIP3    H166335   6.879   0.921  15.347 -2.1596 -3.0055  3.3994
14948TIP3    H266336   6.755   0.999  15.383 -1.8536 -0.4777 -0.6145
14949TIP3   OH266337   4.220   5.705   0.757 -0.0599  0.3886  0.5842
14949TIP3    H166338   4.130   5.718   0.787  0.5890 -0.0577  2.7368
14949TIP3    H266339   4.224   5.613   0.730  0.2155 -0.0473  2.1021
14950TIP3   OH266340   3.355   4.325  16.700  0.2261 -0.0130 -0.0972
14950TIP3    H166341   3.416   4.263  16.659  1.4290  1.0992 -0.0278
14950TIP3    H266342   3.364   4.405  16.648  0.0472  0.6680  0.9184
14951TIP3   OH266343   1.123   6.759   4.688 -0.3204  0.6611  0.4651
14951TIP3    H166344   1.044   6.742   4.739 -0.9793  2.4318  0.0705
14951TIP3    H266345   1.191   6.708   4.731 -1.2679  0.6599  1.9802
14952TIP3   OH266346   4.889   1.928   2.310 -0.6089  0.7195 -0.0503
14952TIP3    H166347   4.829   1.910   2.238 -0.2168  0.8275 -0.4118
14952TIP3    H266348   4.932   2.010   2.285  0.5545  0.0270 -0.3808
14953TIP3   OH266349   4.806   1.598   5.255  0.1986  0.1517  0.3899
14953TIP3    H166350   4.767   1.677   5.217  0.5512  0.6041  0.9777
14953TIP3    H266351   4.814   1.617   5.348  0.4711 -0.5021  0.5022
14954TIP3   OH266352   0.994   5.320   5.192 -0.6355  0.1934  0.5765
14954TIP3    H166353   1.046   5.241   5.206 -0.5408  0.1808  0.1642
14954TIP3    H266354   0.959   5.342   5.278  1.8031  1.4255  1.3116
14955TIP3   OH266355   4.732   5.908  15.790  0.1635  0.1921  0.0232
14955TIP3    H166356   4.777   5.973  15.843  1.4743 -0.4996 -0.2229
14955TIP3    H266357   4.734   5.944  15.701  1.0330 -0.2496 -0.1410
14956TIP3   OH266358   3.095   0.119   2.362  0.0242  0.2478  0.3732
14956TIP3    H166359   3.107   0.200   2.312 -1.7719  0.0684 -0.4147
14956TIP3    H266360   3.170   0.064   2.338 -1.8730 -0.6842 -3.9199
14957TIP3   OH266361   6.006   2.738   4.726 -0.2520  0.3275 -0.4561
14957TIP3    H166362   5.932   2.761   4.670 -2.0847 -0.0767  1.7205
14957TIP3    H266363   6.016   2.814   4.784  0.3417 -0.0705 -0.0359
14958TIP3   OH266364   2.468   0.803  16.554 -0.2094  0.0126  0.7606
14958TIP3    H166365   2.480   0.772  16.644 -1.4061  0.0045  0.9199
14958TIP3    H266366   2.467   0.723  16.502  1.0538  0.0482  0.6665
14959TIP3   OH266367   0.781   3.838   6.837  0.1747  0.3684 -0.4907
14959TIP3    H166368   0.720   3.877   6.899  0.3658  1.6021 -1.0765
14959TIP3    H266369   0.730   3.768   6.794 -0.4617  0.6241 -0.1568
14960TIP3   OH266370   3.824   0.991  15.233 -0.1762  0.1974 -0.5979
14960TIP3    H166371   3.778   1.011  15.151 -0.6826 -0.4682 -0.4782
14960TIP3    H266372   3.901   1.048  15.232 -0.2958  0.3474 -1.4378
14961TIP3   OH266373   3.121   4.077   5.340 -0.4625 -0.3053  0.5394
14961TIP3    H166374   3.154   4.030   5.417 -0.5481 -0.1203  0.6884
14961TIP3    H266375   3.199   4.097   5.289 -0.4344 -0.6972  0.4267
14962TIP3   OH266376   2.257   2.646   3.379 -0.1531  0.6368 -0.6401
14962TIP3    H166377   2.174   2.627   3.423  0.4652 -0.0951  0.2343
14962TIP3    H266378   2.234   2.709   3.311 -1.3574  0.7676 -0.1309
14963TIP3   OH266379   4.893   6.283  10.147  0.0841 -0.1655  0.3548
14963TIP3    H166380   4.819   6.248  10.196  0.0338 -1.8362 -0.8611
14963TIP3    H266381   4.913   6.366  10.190 -1.6094 -0.3428  1.5531
14964TIP3   OH266382   2.771   4.671  14.409  0.0261 -0.0177 -0.4175
14964TIP3    H166383   2.865   4.685  14.397 -0.0247  0.1443 -0.6396
14964TIP3    H266384   2.732   4.758  14.403 -0.3840 -0.3006 -2.6818
14965TIP3   OH266385   5.345   3.209  11.203  0.0146  0.1400 -0.5538
14965TIP3    H166386   5.287   3.229  11.277  0.4871  0.3038 -0.2264
14965TIP3    H266387   5.425   3.176  11.244 -0.2028 -1.0124 -1.0439
14966TIP3   OH266388   1.977   3.554  11.010 -0.2043  0.9624 -0.1538
14966TIP3    H166389   1.966   3.648  11.024  0.4671  1.2751 -1.6002
14966TIP3    H266390   2.069   3.538  11.028 -0.8926  0.0362  2.8707
14967TIP3   OH266391   0.850   3.459   5.178  0.1486  0.6233 -0.2576
14967TIP3    H166392   0.816   3.509   5.104  1.6269  1.2666 -0.5347
14967TIP3    H266393   0.872   3.374   5.140 -1.3093  0.1423 -0.0340
14968TIP3   OH266394   5.064   3.771   6.295  0.5080  0.1487 -0.3926
14968TIP3    H166395   5.061   3.866   6.284 -0.9080  0.0720 -0.8202
14968TIP3    H266396   5.117   3.757   6.374  1.0963  1.2682 -0.5846
14969TIP3   OH266397   5.569   4.675  12.618  0.2105 -0.7850 -0.2671
14969TIP3    H166398   5.557   4.737  12.546 -1.4991  0.9835  1.4800
14969TIP3    H266399   5.663   4.656  12.617  0.7388  1.6303 -1.0484
14970TIP3   OH266400   3.304   0.481  14.140  0.5188 -0.2789  0.5946
14970TIP3    H166401   3.398   0.462  14.134  0.5881  0.3486 -0.3704
14970TIP3    H266402   3.273   0.477  14.049 -0.6818 -1.9599  1.0698
14971TIP3   OH266403   2.959   1.584  13.934 -1.1521  0.1429  0.2493
14971TIP3    H166404   2.917   1.669  13.946  0.2195  0.8683 -0.0021
14971TIP3    H266405   3.010   1.572  14.014 -2.6102 -1.2008  1.0087
14972TIP3   OH266406   3.251   2.613   4.527 -0.2296  0.9981 -0.1068
14972TIP3    H166407   3.185   2.566   4.579  0.9624  0.0985  0.6343
14972TIP3    H266408   3.257   2.564   4.445  1.1740 -0.3363  0.7538
14973TIP3   OH266409   1.873   6.394   4.524 -0.1896  0.0331  0.2279
14973TIP3    H166410   1.866   6.346   4.442  0.9287 -2.2431  1.4095
14973TIP3    H266411   1.790   6.441   4.532 -0.0117  0.8931 -2.5352
14974TIP3   OH266412   4.248   4.285   2.228  0.2379  0.1118 -0.0471
14974TIP3    H166413   4.314   4.277   2.158  0.4207  0.6367  0.0642
14974TIP3    H266414   4.276   4.361   2.279  0.7779 -0.9849  1.3198
14975TIP3   OH266415   3.632   3.312  12.301  0.6682  0.6275  0.5927
14975TIP3    H166416   3.723   3.331  12.281 -0.0903  4.3658  0.2626
14975TIP3    H266417   3.630   3.297  12.395  1.4408  2.0995  0.8594
14976TIP3   OH266418   0.995   5.338   4.508 -0.5897  0.2522 -0.3840
14976TIP3    H166419   0.998   5.260   4.564 -2.1129  0.5095  0.0932
14976TIP3    H266420   0.978   5.304   4.420  1.9442 -0.1669 -0.7543
14977TIP3   OH266421   0.896   2.686   0.827  0.4977 -0.0520 -0.1620
14977TIP3    H166422   0.937   2.602   0.806  0.4802 -0.3839  1.1118
14977TIP3    H266423   0.928   2.746   0.760  1.2669 -0.8491 -0.5134
14978TIP3   OH266424   5.160   6.086  13.427  0.3934 -0.1033  0.7067
14978TIP3    H166425   5.143   5.997  13.458 -1.1107  0.5484  1.8341
14978TIP3    H266426   5.085   6.137  13.460  1.5458  1.6905  0.5954
14979TIP3   OH266427   6.404   0.174   2.665 -0.2831  0.6282 -0.0558
14979TIP3    H166428   6.469   0.150   2.732 -0.7732 -0.1751  0.1317
14979TIP3    H266429   6.453   0.175   2.583 -0.5652 -2.5949 -0.3240
14980TIP3   OH266430   2.275   0.191  14.977 -0.2043 -0.1984  0.2465
14980TIP3    H166431   2.289   0.212  15.069  0.4192  1.7547 -0.2724
14980TIP3    H266432   2.179   0.194  14.966 -0.2511  0.0290  0.7160
14981TIP3   OH266433   4.157   4.587   5.470  0.5613 -0.0791  0.3674
14981TIP3    H166434   4.097   4.651   5.434  1.4233 -0.6275 -2.1402
14981TIP3    H266435   4.102   4.528   5.521 -0.5442  1.3012  0.7898
14982TIP3   OH266436   2.764   4.726  11.346 -0.0136  0.0363 -0.0828
14982TIP3    H166437   2.769   4.634  11.370 -0.8360 -0.0697 -0.2899
14982TIP3    H266438   2.722   4.767  11.422 -0.7593  0.0386 -0.4957
14983TIP3   OH266439   4.803   5.500   3.809 -0.4633 -0.0878 -0.1854
14983TIP3    H166440   4.798   5.488   3.904  0.6960  1.3304  0.0649
14983TIP3    H266441   4.866   5.433   3.780  0.4371  0.5601  0.2639
14984TIP3   OH266442   4.270   0.138  14.403 -0.4757  0.2333 -0.6284
14984TIP3    H166443   4.305   0.169  14.486 -0.2925 -0.1200 -0.5714
14984TIP3    H266444   4.304   0.049  14.394 -2.7992 -0.7797  0.2817
14985TIP3   OH266445   0.963   6.791  14.194 -0.1060 -0.0560  0.2006
14985TIP3    H166446   0.912   6.862  14.234 -2.2105 -1.6503  0.4839
14985TIP3    H266447   1.022   6.762  14.263 -0.8077 -0.0439  0.8114
14986TIP3   OH266448   6.584   3.871  17.134  0.2429  0.3469  0.3551
14986TIP3    H166449   6.554   3.942  17.078  2.1937  2.9606  2.4979
14986TIP3    H266450   6.661   3.836  17.089  0.4824  0.9321  0.3104
14987TIP3   OH266451   2.675   2.415  15.686  0.4803 -0.1361 -0.0533
14987TIP3    H166452   2.712   2.448  15.768  0.3645  0.4251 -0.2268
14987TIP3    H266453   2.751   2.382  15.637  0.5914 -0.1450  0.1226
14988TIP3   OH266454   3.268   5.685  13.065  0.2285 -0.2737 -0.2215
14988TIP3    H166455   3.231   5.610  13.018 -0.0824 -0.1806 -0.1236
14988TIP3    H266456   3.204   5.704  13.133 -0.5704  1.2403 -1.3796
14989TIP3   OH266457   6.327   1.756  11.117 -0.4995  0.6714  0.0430
14989TIP3    H166458   6.337   1.774  11.024 -2.2467  1.8248  0.0491
14989TIP3    H266459   6.381   1.821  11.161 -1.6683  1.7670 -0.1140
14990TIP3   OH266460   3.058   0.429   3.601  0.4545  0.0166 -0.2342
14990TIP3    H166461   3.131   0.447   3.542 -0.0487  0.8097 -0.6300
14990TIP3    H266462   3.092   0.365   3.664  0.5638 -2.0377 -2.2971
14991TIP3   OH266463   2.987   2.004  11.513 -0.0399 -0.3024  0.2548
14991TIP3    H166464   2.954   2.010  11.603  1.1956  0.1542  0.6950
14991TIP3    H266465   3.081   2.017  11.522  0.3939 -2.4207 -0.8667
14992TIP3   OH266466   2.891   1.896   1.616 -0.4120  0.1481  0.5115
14992TIP3    H166467   2.958   1.882   1.682  0.5078 -0.2908 -0.5136
14992TIP3    H266468   2.809   1.871   1.660  0.0734  0.6806  1.7601
14993TIP3   OH266469   4.570   3.714   4.738  0.0421 -0.3853  0.2158
14993TIP3    H166470   4.537   3.773   4.806  0.4269 -0.5788  0.5700
14993TIP3    H266471   4.666   3.715   4.750  0.2403  0.8735 -1.3668
14994TIP3   OH266472   6.489   4.739  14.504  0.1965 -0.0111 -0.5372
14994TIP3    H166473   6.444   4.654  14.503 -0.2088  0.1723  1.1632
14994TIP3    H266474   6.504   4.758  14.412  1.2632 -2.4517 -0.9148
14995TIP3   OH266475   0.369   0.975  13.308 -0.0657 -0.1921  0.0462
14995TIP3    H166476   0.311   1.051  13.299 -0.6090 -0.7678 -1.4055
14995TIP3    H266477   0.367   0.955  13.402 -2.6797 -0.5437 -0.0447
14996TIP3   OH266478   3.981   1.120   2.937  0.0472 -0.5758 -0.3419
14996TIP3    H166479   3.955   1.073   3.017  0.3250 -1.2076 -0.6223
14996TIP3    H266480   4.074   1.139   2.950 -0.5292  1.7611  0.7002
14997TIP3   OH266481   5.127   0.194   0.874  0.1511 -0.0822  0.2958
14997TIP3    H166482   5.088   0.281   0.866 -0.8843 -0.6393 -0.9677
14997TIP3    H266483   5.063   0.135   0.833  0.7838 -1.4505  1.2342
14998TIP3   OH266484   4.799   4.022   4.535 -0.0279 -0.1605  0.0075
14998TIP3    H166485   4.836   3.965   4.602 -0.0902  1.2459  1.2953
14998TIP3    H266486   4.731   4.071   4.581 -1.5598 -0.6924 -1.6327
14999TIP3   OH266487   3.793   2.080  16.263  0.5817 -0.5074 -0.7282
14999TIP3    H166488   3.857   2.071  16.193  1.3814  1.4430 -0.2726
14999TIP3    H266489   3.796   2.172  16.287  1.6663 -1.4552  3.1116
15000TIP3   OH266490   2.496   3.657  14.137  0.4604 -0.1293 -0.2762
15000TIP3    H166491   2.570   3.705  14.173 -0.6561 -0.6082  2.8040
15000TIP3    H266492   2.529   3.568  14.125  0.6361 -0.1359  0.2526
15001TIP3   OH266493   4.794   6.720   3.441 -0.1993 -0.7499  0.8399
15001TIP3    H166494   4.775   6.791   3.380 -1.4234  0.3041  2.4015
15001TIP3    H266495   4.756   6.749   3.524  0.0591 -2.8405  1.7210
15002TIP3   OH266496   6.592   6.389  13.043 -0.2386 -0.0688  0.3102
15002TIP3    H166497   6.505   6.355  13.062  0.3772 -1.7886  0.1245
15002TIP3    H266498   6.577   6.456  12.977 -1.2627 -1.5137 -0.9677
15003TIP3   OH266499   4.468   6.559   4.269 -0.0321 -0.4278 -0.3924
15003TIP3    H166500   4.443   6.555   4.176 -2.0566 -1.5906  0.1518
15003TIP3    H266501   4.474   6.652   4.288 -0.6967 -0.1510 -1.4412
15004TIP3   OH266502   1.736   4.360  16.349  0.0580  0.4420  0.0944
15004TIP3    H166503   1.674   4.429  16.373 -0.0737  0.7076 -0.9706
15004TIP3    H266504   1.693   4.314  16.276  1.3700  1.0085 -1.0442
15005TIP3   OH266505   3.008   3.404  13.273  0.3620  0.0171 -0.2889
15005TIP3    H166506   3.012   3.405  13.368  0.9225  0.2336 -0.3143
15005TIP3    H266507   2.929   3.355  13.253 -0.1223  0.5613  0.2944
15006TIP3   OH266508   2.652   5.101  14.082  0.1616 -0.0373  0.2465
15006TIP3    H166509   2.734   5.051  14.074  1.0935  1.0122  2.6725
15006TIP3    H266510   2.616   5.073  14.166 -0.1246  2.1652  0.8754
15007TIP3   OH266511   4.363   1.441   0.771  0.5412  0.4487 -0.2764
15007TIP3    H166512   4.354   1.511   0.707  2.6549  2.0142  1.0852
15007TIP3    H266513   4.408   1.371   0.724  0.4383  0.8630 -0.9969
15008TIP3   OH266514   5.502   2.404   3.987  0.1724  0.1312  0.1772
15008TIP3    H166515   5.516   2.495   4.013  2.1300 -0.2076  0.3126
15008TIP3    H266516   5.407   2.391   3.997  0.1740  1.4971  2.2682
15009TIP3   OH266517   2.698   4.860  16.470 -0.5311  0.2255 -0.4908
15009TIP3    H166518   2.624   4.885  16.415  0.8499  0.5117 -2.2544
15009TIP3    H266519   2.749   4.940  16.481 -0.6598  0.1114  1.0059
15010TIP3   OH266520   5.892   0.235  16.993 -0.0442 -0.4444  0.3481
15010TIP3    H166521   5.828   0.304  16.978  1.0088  0.8422  1.7021
15010TIP3    H266522   5.852   0.178  17.059  0.0050  0.0814  0.8292
15011TIP3   OH266523   3.914   6.367   2.014  0.2825  0.2236  0.1013
15011TIP3    H166524   3.886   6.284   1.974 -1.2433  0.1803  1.2402
15011TIP3    H266525   3.854   6.432   1.979 -0.3794  0.3619  1.4485
15012TIP3   OH266526   2.999   2.583   1.700  0.0623  0.1080 -0.0548
15012TIP3    H166527   2.930   2.583   1.767 -0.3444 -0.8823 -0.4644
15012TIP3    H266528   2.951   2.579   1.617  0.5625  1.3274 -0.4085
15013TIP3   OH266529   3.761   5.583   3.626  0.4758 -0.0785  0.2543
15013TIP3    H166530   3.811   5.665   3.632  0.0335  0.0848  1.9054
15013TIP3    H266531   3.746   5.557   3.717 -3.1295  0.2841 -0.1635
15014TIP3   OH266532   6.141   6.672  12.533  0.4556  0.2513 -0.4582
15014TIP3    H166533   6.192   6.676  12.452  2.1138 -0.2975  0.5468
15014TIP3    H266534   6.176   6.595  12.579 -1.7328 -0.5374 -0.0573
15015TIP3   OH266535   1.282   5.659  15.898  0.1012  0.2942 -0.5966
15015TIP3    H166536   1.348   5.625  15.959 -0.7839  2.3273  1.6093
15015TIP3    H266537   1.329   5.721  15.844  0.2266  0.9765  0.2813
15016TIP3   OH266538   0.714   2.730  16.419 -0.6366 -0.1252  0.3626
15016TIP3    H166539   0.624   2.762  16.411 -1.1073 -1.0184  1.9335
15016TIP3    H266540   0.712   2.643  16.380 -0.6680 -0.5186  1.2453
15017TIP3   OH266541   0.601   2.551  15.701 -0.2660  0.6160  0.4733
15017TIP3    H166542   0.567   2.528  15.788 -0.9195  0.0103  0.0646
15017TIP3    H266543   0.657   2.477  15.677 -1.2905  0.0790 -0.2663
15018TIP3   OH266544   5.708   0.465  13.776  0.2685 -0.7565  0.0910
15018TIP3    H166545   5.747   0.382  13.803 -1.4427 -1.7494 -0.4630
15018TIP3    H266546   5.657   0.444  13.698 -0.0510  0.8455 -0.1485
15019TIP3   OH266547   2.274   3.355  13.046 -0.2348  0.3139 -0.2974
15019TIP3    H166548   2.345   3.295  13.066 -1.7303 -2.2285 -2.3693
15019TIP3    H266549   2.195   3.313  13.081 -1.1938  1.4024 -1.0772
15020TIP3   OH266550   3.995   1.676  13.047 -0.1229 -0.2996 -0.2893
15020TIP3    H166551   4.027   1.650  13.134  1.1536 -0.5589 -0.8267
15020TIP3    H266552   4.000   1.596  12.995  0.3031  0.1531 -0.9448
15021TIP3   OH266553   2.884   5.042  14.593  0.2085 -0.4713  0.1013
15021TIP3    H166554   2.908   4.958  14.633  1.9793  0.2706  0.6713
15021TIP3    H266555   2.950   5.104  14.627  0.7091  0.5391 -2.6147
15022TIP3   OH266556   3.584   1.394   5.785 -0.6838  0.4433 -0.0110
15022TIP3    H166557   3.546   1.348   5.711 -1.1851  0.2369  0.3698
15022TIP3    H266558   3.523   1.378   5.857  0.3083 -0.1712  0.6962
15023TIP3   OH266559   4.917   1.385  12.916  0.2881  0.0640 -0.1692
15023TIP3    H166560   4.876   1.299  12.927  2.0834 -0.8519 -0.4498
15023TIP3    H266561   4.957   1.403  13.001 -0.3940  0.8059  0.0022
15024TIP3   OH266562   6.064   5.691   4.024 -0.0572 -0.1290  0.1818
15024TIP3    H166563   6.154   5.724   4.024 -0.5444  1.2680 -0.0652
15024TIP3    H266564   6.042   5.680   4.116  1.1523 -2.7939  0.2034
15025TIP3   OH266565   0.205   3.571   1.942  0.1104 -0.0876  0.0114
15025TIP3    H166566   0.212   3.492   1.996  0.7084 -0.4209 -0.5373
15025TIP3    H266567   0.290   3.614   1.953  0.0090  0.1616 -0.1838
15026TIP3   OH266568   1.064   3.613   2.562 -0.1025  0.3310 -0.0840
15026TIP3    H166569   1.119   3.536   2.569 -0.6116  0.0756  1.2778
15026TIP3    H266570   0.983   3.581   2.522 -0.2823  0.1683  0.4048
15027TIP3   OH266571   1.761   1.183  13.312  0.3127 -0.6760 -0.0853
15027TIP3    H166572   1.810   1.265  13.305 -0.8683  0.1323  0.8279
15027TIP3    H266573   1.825   1.119  13.341  0.6651  0.5548  1.9455
15028TIP3   OH266574   6.164   2.516  12.619  0.5832  0.7505 -0.4702
15028TIP3    H166575   6.225   2.466  12.675  0.2938  1.8497  0.8493
15028TIP3    H266576   6.078   2.479  12.638  0.5097  0.9919 -0.3277
15029TIP3   OH266577   4.208   6.227   3.980  0.1117  0.5376  0.2264
15029TIP3    H166578   4.209   6.260   4.070  0.9347  0.5833  0.2014
15029TIP3    H266579   4.264   6.287   3.932  0.2621  0.0781 -0.1712
15030TIP3   OH266580   5.671   2.025   4.942  0.9116 -0.2339 -0.0966
15030TIP3    H166581   5.595   2.084   4.945  2.0724  1.2348  1.4699
15030TIP3    H266582   5.731   2.066   4.879  1.4132 -0.1207  0.4495
15031TIP3   OH266583   3.315   4.037  13.544 -0.2518 -0.1632 -0.2966
15031TIP3    H166584   3.389   4.096  13.528 -0.3851 -0.1283 -0.7982
15031TIP3    H266585   3.260   4.047  13.466 -1.3187  0.6271  0.5444
15032TIP3   OH266586   4.010   0.634   4.482  0.4447 -0.0578 -0.3236
15032TIP3    H166587   4.012   0.610   4.574 -0.9561  1.0187 -0.0056
15032TIP3    H266588   4.080   0.700   4.474  0.6246 -0.2135 -0.0590
15033TIP3   OH266589   2.952   0.668   0.061 -0.6478  0.1763  0.3792
15033TIP3    H166590   2.955   0.699   0.152 -3.9262 -2.3744  1.4465
15033TIP3    H266591   2.890   0.728   0.018 -0.9675 -0.0834  0.4724
15034TIP3   OH266592   6.260   5.718  15.416  0.0726  0.3180  0.2932
15034TIP3    H166593   6.221   5.684  15.335 -0.2036  0.3515  0.4132
15034TIP3    H266594   6.312   5.645  15.450 -0.0425  0.2107  0.2371
15035TIP3   OH266595   1.617   2.372  17.023  0.3322  0.4134  0.1012
15035TIP3    H166596   1.666   2.424  17.087  1.8481  2.6414 -2.8177
15035TIP3    H266597   1.665   2.381  16.941 -2.8995 -0.4227 -2.0001
15036TIP3   OH266598   1.639   5.591   4.377  0.0792  0.3610  0.1962
15036TIP3    H166599   1.574   5.556   4.438 -0.7025  1.9671  0.3053
15036TIP3    H266600   1.718   5.540   4.394 -0.8062 -0.8001  0.8939
15037TIP3   OH266601   4.499   6.820   2.651  0.1006 -0.0769 -0.0985
15037TIP3    H166602   4.562   6.862   2.592 -0.8812  2.1789  0.4146
15037TIP3    H266603   4.439   6.773   2.592  0.7330 -0.1087 -0.7282
15038TIP3   OH266604   2.471   4.422   2.328  0.4008  1.0394 -0.8496
15038TIP3    H166605   2.540   4.488   2.335  2.4033 -1.1613  1.0148
15038TIP3    H266606   2.438   4.431   2.238  3.6661  1.6305 -2.0403
15039TIP3   OH266607   5.933   2.116  13.908 -0.6464 -0.3766  0.1421
15039TIP3    H166608   5.843   2.117  13.939 -0.3049 -1.0211  1.1748
15039TIP3    H266609   5.985   2.091  13.985  0.4669  0.5241 -0.2939
15040TIP3   OH266610   3.021   0.776   1.457 -0.5741  0.1864  0.2168
15040TIP3    H166611   2.936   0.733   1.466 -0.7369  0.3200 -0.6251
15040TIP3    H266612   3.002   0.858   1.412 -0.1127  0.6095  0.7886
15041TIP3   OH266613   5.979   6.490  12.325 -0.4496  0.2910 -0.6385
15041TIP3    H166614   6.053   6.536  12.366 -1.3906  0.1630  1.2517
15041TIP3    H266615   5.950   6.550  12.256  0.5467  0.9591 -0.4973
15042TIP3   OH266616   6.184   4.262   4.389  0.1709  0.2367  0.2514
15042TIP3    H166617   6.225   4.333   4.339 -0.3693 -0.6501 -1.4909
15042TIP3    H266618   6.258   4.215   4.428  0.5706  1.2914  0.7886
15043TIP3   OH266619   5.897   1.303   1.038  0.6173  0.5961  0.4653
15043TIP3    H166620   5.955   1.228   1.021 -0.1940  0.4830 -2.0066
15043TIP3    H266621   5.935   1.374   0.986 -0.4429  0.9980  0.2231
15044TIP3   OH266622   0.819   2.300   1.017 -0.2165 -0.2404 -0.2300
15044TIP3    H166623   0.907   2.306   1.054 -1.3588  0.9542  2.3348
15044TIP3    H266624   0.822   2.356   0.939  1.1608  0.1548  0.0927
15045TIP3   OH266625   0.982   5.039   2.313  0.1585 -0.5412  0.2214
15045TIP3    H166626   1.058   4.999   2.355  0.6825  2.0033  1.8320
15045TIP3    H266627   0.907   4.996   2.354  0.7034  0.0437  1.8654
15046TIP3   OH266628   1.744   3.310   6.160  0.3418 -0.1507 -0.4395
15046TIP3    H166629   1.778   3.228   6.125 -1.5770 -0.2302 -2.2387
15046TIP3    H266630   1.818   3.349   6.206  1.6167 -2.3171 -0.5757
15047TIP3   OH266631   0.878   4.614   6.749  1.0099 -0.0695 -0.5097
15047TIP3    H166632   0.848   4.562   6.823 -0.8542  0.1063 -1.1137
15047TIP3    H266633   0.843   4.570   6.672  0.3479  1.4242 -1.0934
15048TIP3   OH266634   0.727   4.721  17.016  0.1197  0.0251  0.3202
15048TIP3    H166635   0.792   4.682  17.074  0.9493 -1.6583 -1.7207
15048TIP3    H266636   0.647   4.725  17.070  0.3717 -3.2278  1.0221
15049TIP3   OH266637   2.133   2.144   3.737 -0.9959  0.0381 -0.3321
15049TIP3    H166638   2.173   2.136   3.651 -0.1045  0.2934  0.0574
15049TIP3    H266639   2.118   2.054   3.765  2.0242 -0.1750  0.7741
15050TIP3   OH266640   1.589   1.020  15.253 -0.0769  0.6859  0.2573
15050TIP3    H166641   1.658   1.030  15.187  1.5337  1.6361  2.0283
15050TIP3    H266642   1.583   0.926  15.268  1.1871  0.6139  0.4039
15051TIP3   OH266643   1.719   6.476  16.187  0.0737 -0.0990  0.4171
15051TIP3    H166644   1.725   6.489  16.092 -0.8096 -1.4214  0.1685
15051TIP3    H266645   1.714   6.381  16.198 -0.9367  0.0954  1.7292
15052TIP3   OH266646   0.709   6.093  15.181  0.2767 -0.4107  0.2945
15052TIP3    H166647   0.754   6.082  15.265  0.0345 -0.6383  0.3950
15052TIP3    H266648   0.719   6.009  15.137  0.3471 -0.3126  0.1218
15053TIP3   OH266649   5.608   4.933  15.039  0.0449 -0.9960  0.2403
15053TIP3    H166650   5.652   4.865  15.090  1.7244  0.2722  0.5144
15053TIP3    H266651   5.626   4.910  14.948  0.3029 -1.1208  0.3212
15054TIP3   OH266652   6.058   4.336   2.976 -0.3321  0.4072  0.4604
15054TIP3    H166653   5.992   4.404   2.991 -0.9043  0.0154 -0.2665
15054TIP3    H266654   6.009   4.262   2.940  0.2728 -0.4405  1.3804
15055TIP3   OH266655   3.637   5.893   3.588  0.3947  0.4717 -0.5819
15055TIP3    H166656   3.680   5.978   3.583  0.9126  0.2204 -0.3862
15055TIP3    H266657   3.688   5.836   3.531 -0.4058  0.4831 -1.3153
15056TIP3   OH266658   2.749   4.473  12.073  0.1295 -0.1198  0.2056
15056TIP3    H166659   2.757   4.447  12.165  0.7882  1.2987  0.5548
15056TIP3    H266660   2.826   4.434  12.031 -0.4019 -1.1387  0.1536
15057TIP3   OH266661   4.196   2.119   2.680  0.2034  0.2720  0.4285
15057TIP3    H166662   4.264   2.128   2.747 -0.8098 -0.7026  1.6042
15057TIP3    H266663   4.134   2.056   2.717 -1.0258  0.6933 -0.8916
15058TIP3   OH266664   0.324   0.606  16.924 -0.2928  0.1931 -0.1532
15058TIP3    H166665   0.231   0.619  16.906 -0.0216  1.4959 -0.7063
15058TIP3    H266666   0.329   0.520  16.964 -1.6368 -0.2812 -0.9591
15059TIP3   OH266667   0.392   6.074   1.571 -0.0254  0.2346 -0.0991
15059TIP3    H166668   0.428   6.099   1.486 -0.3626  1.2655  0.0528
15059TIP3    H266669   0.375   6.157   1.615 -1.3756 -0.2628  0.3362
15060TIP3   OH266670   0.872   2.793   4.167 -0.5721  0.2105  0.6090
15060TIP3    H166671   0.899   2.720   4.111  0.1401  1.5172 -0.7810
15060TIP3    H266672   0.908   2.772   4.253  2.4357  0.4920 -0.5245
15061TIP3   OH266673   3.843   2.236   5.060  0.5189  0.6172  0.2568
15061TIP3    H166674   3.804   2.271   5.139  0.3493 -0.9958  0.9140
15061TIP3    H266675   3.769   2.201   5.010  0.7923  0.1403  0.1748
15062TIP3   OH266676   0.240   0.304  15.607 -0.0856  0.5453 -0.3977
15062TIP3    H166677   0.276   0.285  15.520  0.4745  2.0689 -0.5168
15062TIP3    H266678   0.146   0.295  15.596  0.0663 -0.7122 -0.7897
15063TIP3   OH266679   4.532   4.834   4.175  0.0172  0.5724 -0.2948
15063TIP3    H166680   4.578   4.909   4.138 -1.3553  1.3394 -0.4715
15063TIP3    H266681   4.439   4.855   4.165 -0.3823 -0.8551  0.2490
15064TIP3   OH266682   1.739   6.696   1.548 -0.2197  0.3051 -0.1580
15064TIP3    H166683   1.815   6.644   1.574 -1.8369 -1.2319  1.6093
15064TIP3    H266684   1.678   6.632   1.513 -1.1251  1.3985 -0.6026
15065TIP3   OH266685   4.229   3.966   3.615  0.5668 -0.0795  0.7663
15065TIP3    H166686   4.139   3.966   3.650  0.4852 -0.2807  0.5543
15065TIP3    H266687   4.240   4.053   3.577 -0.2137 -0.7244 -0.9634
15066TIP3   OH266688   6.229   3.237  10.793  0.4150 -0.2593  0.4363
15066TIP3    H166689   6.295   3.285  10.844  0.3440  1.4155 -1.0158
15066TIP3    H266690   6.149   3.244  10.845  0.2812  1.6682 -0.0019
15067TIP3   OH266691   4.778   3.929  15.282 -0.4274 -0.1193 -0.2975
15067TIP3    H166692   4.751   3.867  15.350 -0.5427  0.3304  0.0681
15067TIP3    H266693   4.808   4.006  15.330 -1.7569  0.7123 -0.7870
15068TIP3   OH266694   3.797   6.542   3.574  0.1465  0.0980  0.2412
15068TIP3    H166695   3.722   6.534   3.632  1.0021 -1.9685  1.1002
15068TIP3    H266696   3.761   6.528   3.486 -0.8338  1.4032  0.4174
15069TIP3   OH266697   5.426   2.332   4.310  0.0229  0.1677  0.6316
15069TIP3    H166698   5.334   2.318   4.335 -0.2275 -0.5629 -0.6350
15069TIP3    H266699   5.442   2.424   4.328 -1.7823  0.9560 -1.6650
15070TIP3   OH266700   0.835   2.402   5.001 -0.1229 -0.2573 -0.5771
15070TIP3    H166701   0.899   2.376   4.934 -0.0543 -2.7520  0.4157
15070TIP3    H266702   0.868   2.486   5.034  0.9872 -0.0440 -2.1784
15071TIP3   OH266703   0.367   0.920   4.048 -0.1804  0.2094 -0.3229
15071TIP3    H166704   0.427   0.942   4.119  1.7328 -1.9336 -1.2393
15071TIP3    H266705   0.349   0.827   4.059 -1.6824  0.3663 -1.3185
15072TIP3   OH266706   1.432   0.488   4.657  0.5220 -0.1391  0.1391
15072TIP3    H166707   1.369   0.472   4.587  0.9322 -0.7470 -0.1031
15072TIP3    H266708   1.427   0.582   4.673  0.0450 -0.0778 -0.3468
15073TIP3   OH266709   6.756   4.449   5.477 -0.4335  0.1654  0.1085
15073TIP3    H166710   6.809   4.407   5.408 -1.6697  0.3174 -0.9597
15073TIP3    H266711   6.781   4.541   5.474 -0.5682  0.1917 -0.2233
15074TIP3   OH266712   2.373   4.840   0.776  0.3623 -0.3548  0.5432
15074TIP3    H166713   2.334   4.860   0.691  2.1121  0.6675 -0.0614
15074TIP3    H266714   2.442   4.777   0.756  0.9193  0.0497  1.1590
15075TIP3   OH266715   4.724   1.782   1.769  0.7495 -0.6197  0.2250
15075TIP3    H166716   4.652   1.833   1.807  0.7823  0.0199 -0.5538
15075TIP3    H266717   4.687   1.696   1.754 -0.0599 -0.1028 -0.7883
15076TIP3   OH266718   0.889   0.331  15.811 -0.0499 -0.6700 -0.0941
15076TIP3    H166719   0.895   0.391  15.737 -0.1849 -0.8293 -0.2352
15076TIP3    H266720   0.893   0.244  15.771 -3.2340 -0.8077 -0.2092
15077TIP3   OH266721   0.653   6.015   2.177 -0.6721 -0.7427  0.1885
15077TIP3    H166722   0.701   5.932   2.182 -0.5230 -0.6609  0.1430
15077TIP3    H266723   0.671   6.048   2.089 -1.1142 -0.8890  0.0419
15078TIP3   OH266724   0.375   3.852  13.121  0.2927 -0.1058  0.2195
15078TIP3    H166725   0.342   3.929  13.166  0.7264 -1.0157  2.1508
15078TIP3    H266726   0.298   3.812  13.081 -0.5611 -0.7259  2.4006
15079TIP3   OH266727   0.132   3.384   4.710 -0.4843  0.0591 -0.4277
15079TIP3    H166728   0.119   3.444   4.636  1.3991  0.8162 -0.1699
15079TIP3    H266729   0.178   3.436   4.776 -0.3209 -1.1950  0.4709
15080TIP3   OH266730   2.889   3.906   5.236  1.1123 -0.0203  0.3861
15080TIP3    H166731   2.966   3.956   5.264  1.5025 -0.9742  1.0485
15080TIP3    H266732   2.814   3.961   5.260  1.5416  0.3096  0.9915
15081TIP3   OH266733   3.488   1.118   3.898 -0.2485  0.5454  0.3538
15081TIP3    H166734   3.434   1.167   3.836 -0.0781  0.2666 -0.0118
15081TIP3    H266735   3.461   1.151   3.984 -1.3359  0.0683  0.2016
15082TIP3   OH266736   0.629   6.515  15.668 -0.2241 -0.0740  0.2858
15082TIP3    H166737   0.562   6.576  15.696  0.7898  0.5194  1.4584
15082TIP3    H266738   0.655   6.545  15.581  0.0286  0.9592  0.7190
15083TIP3   OH266739   6.657   3.640   5.480 -0.2077 -0.0464  0.1198
15083TIP3    H166740   6.715   3.660   5.553 -0.4993  1.1807  0.0119
15083TIP3    H266741   6.680   3.550   5.456  0.9447  0.0733  0.7366
15084TIP3   OH266742   4.483   3.838   1.334 -0.4657 -1.3310 -0.0624
15084TIP3    H166743   4.572   3.832   1.370 -0.7422 -1.1169  0.6547
15084TIP3    H266744   4.474   3.760   1.279  0.2363 -1.2542 -0.2870
15085TIP3   OH266745   4.995   4.553  16.520 -0.0336 -0.1871  0.8004
15085TIP3    H166746   4.979   4.463  16.547  1.0414 -0.5532  0.2562
15085TIP3    H266747   4.916   4.580  16.473  0.4013 -1.4891 -0.7131
15086TIP3   OH266748   3.763   3.962  10.778 -0.0856  0.7364  0.4079
15086TIP3    H166749   3.811   3.895  10.729  1.0860  0.9637  1.2095
15086TIP3    H266750   3.827   4.032  10.790 -1.0384  1.6284  0.3382
15087TIP3   OH266751   2.068   3.164  13.673  0.0830 -0.1047  0.1619
15087TIP3    H166752   2.095   3.090  13.728 -0.1267 -0.2208  0.1069
15087TIP3    H266753   2.063   3.127  13.584 -1.7921 -0.4614  0.3986
15088TIP3   OH266754   5.928   5.435   5.392  0.2741  0.2773 -0.1075
15088TIP3    H166755   5.899   5.379   5.320  0.4767  1.1356 -0.8697
15088TIP3    H266756   5.939   5.376   5.466  1.0130 -0.7805 -1.0482
15089TIP3   OH266757   5.839   2.364   1.541 -0.0332 -0.6367  0.0527
15089TIP3    H166758   5.881   2.422   1.478  0.3369 -0.8914  0.0618
15089TIP3    H266759   5.747   2.392   1.542  0.4245  0.8535  1.0908
15090TIP3   OH266760   5.260   0.609   0.185  0.7891  0.5074  0.5519
15090TIP3    H166761   5.201   0.640   0.116 -0.0980  0.1467  1.1501
15090TIP3    H266762   5.285   0.521   0.157  1.5377  0.8807 -0.0035
15091TIP3   OH266763   1.911   4.664   4.132 -0.1671  0.0085 -0.8233
15091TIP3    H166764   1.991   4.616   4.156 -0.1256 -0.1894 -1.3469
15091TIP3    H266765   1.942   4.736   4.077 -0.1417  1.1437  0.6354
15092TIP3   OH266766   2.325   3.318  14.354  0.0635  0.2256 -0.5343
15092TIP3    H166767   2.307   3.408  14.383  0.2134 -0.1815  0.8824
15092TIP3    H266768   2.421   3.313  14.351  0.1338 -0.6844  2.0895
15093TIP3   OH266769   2.166   1.370   1.569 -0.0679 -0.7947  0.0175
15093TIP3    H166770   2.190   1.444   1.625 -0.3687 -0.7029  0.0250
15093TIP3    H266771   2.094   1.403   1.515  1.0875 -0.4459 -1.3618
15094TIP3   OH266772   3.384   0.692  10.549 -0.1761  0.0377 -0.8098
15094TIP3    H166773   3.311   0.745  10.518 -0.2653  0.5050  0.1647
15094TIP3    H266774   3.456   0.754  10.558  0.1325 -0.2821 -1.0542
15095TIP3   OH266775   3.793   4.034  16.873  0.1417  0.1398 -0.2497
15095TIP3    H166776   3.833   4.121  16.872  1.3313 -0.3910  0.5575
15095TIP3    H266777   3.866   3.974  16.862 -0.6233 -0.7774 -0.3369
15096TIP3   OH266778   3.820   2.404   3.586  0.0616 -0.3728  0.2132
15096TIP3    H166779   3.841   2.392   3.678 -0.2620 -1.0729  0.1898
15096TIP3    H266780   3.785   2.320   3.557 -0.6385  0.1009 -0.3345
15097TIP3   OH266781   5.162   3.009  10.578  0.3169 -0.3757 -0.6063
15097TIP3    H166782   5.236   3.062  10.549  0.9066  0.5341  2.3516
15097TIP3    H266783   5.085   3.061  10.557  0.6863 -0.0534 -1.1580
15098TIP3   OH266784   1.354   2.057   3.394 -0.2282  0.7581 -0.2053
15098TIP3    H166785   1.346   1.968   3.426 -0.3415  0.9393  0.2622
15098TIP3    H266786   1.407   2.049   3.314  0.7696  0.4132  0.4804
15099TIP3   OH266787   1.607   2.056   4.547 -0.3828  0.1885  0.3874
15099TIP3    H166788   1.521   2.036   4.510 -0.5274  1.2842  0.1304
15099TIP3    H266789   1.653   1.972   4.545 -1.5586 -0.4953  0.8469
15100TIP3   OH266790   1.400   2.338  12.190 -0.2881 -0.8233 -0.3341
15100TIP3    H166791   1.374   2.249  12.164  0.5972 -0.9660 -0.7534
15100TIP3    H266792   1.491   2.329  12.219 -0.1515 -0.0263 -0.5097
15101TIP3   OH266793   1.134   2.173  15.647  0.7981  0.1304 -0.1842
15101TIP3    H166794   1.065   2.154  15.710  1.7273 -0.9548  0.5173
15101TIP3    H266795   1.200   2.105  15.662  1.9123  1.0118 -1.0041
15102TIP3   OH266796   1.846   5.154   5.512  0.0283  0.0771  0.3818
15102TIP3    H166797   1.759   5.116   5.511 -0.2269  0.6091  1.6012
15102TIP3    H266798   1.860   5.181   5.603  1.6579 -0.4665  0.3167
15103TIP3   OH266799   0.888   0.679  12.402  0.2294 -0.5037  0.0998
15103TIP3    H166800   0.868   0.740  12.331  0.8351 -0.7903 -0.3229
15103TIP3    H266801   0.802   0.644  12.428 -0.1856  0.9869  0.7798
15104TIP3   OH266802   5.104   5.799   3.070  0.1351  0.0334  0.2178
15104TIP3    H166803   5.052   5.828   2.995 -0.5917  0.7167  0.9825
15104TIP3    H266804   5.100   5.703   3.066  0.0486  0.0667 -0.5737
15105TIP3   OH266805   1.603   5.113   2.620  0.2451 -0.0739  0.2303
15105TIP3    H166806   1.685   5.147   2.654  1.7841 -1.9826 -1.4407
15105TIP3    H266807   1.583   5.038   2.675 -1.6165  1.6819  2.0569
15106TIP3   OH266808   1.379   4.227   4.805  0.2570 -0.2056 -1.1589
15106TIP3    H166809   1.353   4.226   4.713 -2.8348 -1.6996 -0.3679
15106TIP3    H266810   1.298   4.208   4.853  1.7354  0.7870  1.8967
15107TIP3   OH266811   5.720   4.719   3.110 -0.0441 -0.4247  0.1821
15107TIP3    H166812   5.666   4.735   3.188  0.8526  0.7024  0.5938
15107TIP3    H266813   5.659   4.683   3.046 -1.7196  2.4929  0.0338
15108TIP3   OH266814   6.625   4.483  16.328  0.3912  0.5198 -0.0132
15108TIP3    H166815   6.690   4.552  16.340  0.6130  0.7027 -2.2136
15108TIP3    H266816   6.582   4.503  16.245  0.5608 -2.0650 -0.7645
15109TIP3   OH266817   5.868   4.371   1.596  0.2487 -0.3359 -0.2863
15109TIP3    H166818   5.956   4.334   1.592  0.2162 -0.6336  1.4692
15109TIP3    H266819   5.828   4.331   1.672 -1.2420  0.1966 -0.7639
15110TIP3   OH266820   5.405   4.063  12.009  0.3102  0.0011 -0.3544
15110TIP3    H166821   5.453   4.096  11.933 -2.0470  0.6662 -1.5802
15110TIP3    H266822   5.387   3.971  11.988  1.8003 -0.5116  0.5146
15111TIP3   OH266823   0.435   2.282   3.638  0.2303  0.1579  0.1125
15111TIP3    H166824   0.421   2.372   3.611  2.3136  0.6951  0.7227
15111TIP3    H266825   0.500   2.248   3.577 -0.4260 -0.9027 -0.0192
15112TIP3   OH266826   0.086   5.808   3.797 -0.5840  0.4108 -0.8036
15112TIP3    H166827   0.000   5.800   3.756 -0.1413  0.2790 -1.7030
15112TIP3    H266828   0.098   5.902   3.809 -1.5208  0.3509  0.7565
15113TIP3   OH266829   5.388   3.778   5.534  0.0436 -0.3828 -0.9138
15113TIP3    H166830   5.336   3.794   5.456 -1.9867 -2.8652 -0.1436
15113TIP3    H266831   5.414   3.865   5.564 -4.0575  1.0094 -1.1099
15114TIP3   OH266832   5.962   3.039  13.118 -0.5405  0.0966  0.6760
15114TIP3    H166833   6.025   3.111  13.126  1.2720 -1.4101  0.5082
15114TIP3    H266834   5.886   3.078  13.075  0.6777  1.7486 -0.0314
15115TIP3   OH266835   0.347   4.523   4.192  0.2493  0.4560 -0.2101
15115TIP3    H166836   0.337   4.437   4.232  0.1461  0.1143 -0.9643
15115TIP3    H266837   0.426   4.516   4.139  0.3553  0.8874 -0.1112
15116TIP3   OH266838   1.403   3.010  13.096 -0.1236  0.0017  0.4435
15116TIP3    H166839   1.326   3.063  13.116  0.7169  0.8090  1.5527
15116TIP3    H266840   1.385   2.924  13.135 -1.9718 -0.9586 -2.2916
15117TIP3   OH266841   2.393   2.423  15.719 -0.2539  0.1241  0.2015
15117TIP3    H166842   2.486   2.420  15.699 -0.6554 -2.3662 -1.4934
15117TIP3    H266843   2.366   2.331  15.725 -2.1148  0.7830  3.1324
15118TIP3   OH266844   3.768   4.161   1.261 -0.1139 -0.6420  0.2280
15118TIP3    H166845   3.793   4.253   1.269 -1.1378 -0.4185  0.8851
15118TIP3    H266846   3.850   4.113   1.277  0.3036  0.1317  0.4644
15119TIP3   OH266847   3.220   0.399   2.922  0.0059 -0.4531 -0.5027
15119TIP3    H166848   3.143   0.431   2.874 -0.5105 -0.9980 -0.0549
15119TIP3    H266849   3.207   0.305   2.928 -0.5807 -0.2561  1.7683
15120TIP3   OH266850   4.509   5.839   2.309 -0.0595  0.1184 -0.1097
15120TIP3    H166851   4.559   5.916   2.281 -2.4771  1.7681  0.0098
15120TIP3    H266852   4.524   5.775   2.240  0.7883  1.2195 -0.9721
15121TIP3   OH266853   4.240   0.013   5.975 -0.2798 -0.4056 -0.9496
15121TIP3    H166854   4.309   0.062   5.929  0.0360 -0.1441 -0.1937
15121TIP3    H266855   4.229  -0.067   5.922  0.7921 -0.5784 -0.9213
15122TIP3   OH266856   6.395   2.138  13.077 -0.0972  0.2370 -0.1898
15122TIP3    H166857   6.306   2.165  13.101  0.2908  2.0432 -0.7056
15122TIP3    H266858   6.382   2.074  13.007 -1.0211 -0.4802  0.6156
15123TIP3   OH266859   3.885   2.029   2.339  0.0520  0.3602 -0.6214
15123TIP3    H166860   3.946   2.087   2.293  2.9889 -1.0030  1.4300
15123TIP3    H266861   3.878   2.066   2.427 -0.8224 -0.4544 -0.3388
15124TIP3   OH266862   4.301   4.186   0.937 -0.0189  0.2439  0.4602
15124TIP3    H166863   4.304   4.250   1.008 -0.7640  0.0582  0.6626
15124TIP3    H266864   4.265   4.234   0.862  2.0595  0.8171 -0.2029
15125TIP3   OH266865   1.596   0.161  15.864  0.0264 -0.2891  0.5017
15125TIP3    H166866   1.532   0.109  15.815 -0.3673  2.8640 -2.4907
15125TIP3    H266867   1.677   0.152  15.814  0.1745  1.2774  0.4529
15126TIP3   OH266868   3.821   0.730  15.598 -0.1130  1.2133  0.5580
15126TIP3    H166869   3.812   0.636  15.614 -0.3284  1.4240  1.7363
15126TIP3    H266870   3.854   0.736  15.508 -1.3579  0.0620  0.0010
15127TIP3   OH266871   3.277   1.007  10.667  0.2982 -0.3076 -0.4826
15127TIP3    H166872   3.365   0.975  10.645  0.7654 -0.6941  1.8542
15127TIP3    H266873   3.229   0.929  10.693 -0.5675 -0.0042 -1.1482
15128TIP3   OH266874   4.298   1.985   5.317  0.3472 -0.0029 -0.0318
15128TIP3    H166875   4.325   1.955   5.403  0.6453 -0.7027 -0.3659
15128TIP3    H266876   4.316   2.079   5.318 -0.6452  0.1822  1.0351
15129TIP3   OH266877   4.665   2.372  16.754  0.0824  0.0428 -0.2673
15129TIP3    H166878   4.668   2.431  16.830  1.2523  1.1227 -1.1333
15129TIP3    H266879   4.621   2.293  16.787  1.6634  0.0112  1.8602
15130TIP3   OH266880   3.670   5.493  17.288 -0.0620  0.5884 -0.1207
15130TIP3    H166881   3.598   5.540  17.246 -0.9220  1.4900  2.2801
15130TIP3    H266882   3.746   5.549  17.274 -0.9345  2.4095  2.0738
15131TIP3   OH266883   2.153   1.965  14.602  0.1383  0.0949  0.6614
15131TIP3    H166884   2.191   1.892  14.554 -1.8392 -0.1061 -0.6657
15131TIP3    H266885   2.224   1.998  14.657  1.8953 -0.9127 -0.9668
15132TIP3   OH266886   0.547   5.875  11.944 -0.4489  0.0373 -0.2831
15132TIP3    H166887   0.625   5.820  11.942 -1.1925 -1.0237 -0.9965
15132TIP3    H266888   0.490   5.833  12.009 -0.6224  0.5431 -0.1049
15133TIP3   OH266889   3.410   6.688   3.422 -0.6590 -0.1554 -0.2153
15133TIP3    H166890   3.501   6.675   3.448 -0.5488  0.5654 -0.2298
15133TIP3    H266891   3.412   6.696   3.327 -0.9311 -1.6836 -0.3676
15134TIP3   OH266892   2.590   6.270  15.450 -0.1455 -0.1123  0.3499
15134TIP3    H166893   2.651   6.303  15.516 -0.2068 -1.3043  1.0277
15134TIP3    H266894   2.525   6.221  15.500 -0.8026 -0.1264 -0.5085
15135TIP3   OH266895   3.687   6.311  15.269 -0.0214 -0.4092  0.2672
15135TIP3    H166896   3.754   6.350  15.326  0.5354 -0.9627 -0.0120
15135TIP3    H266897   3.645   6.245  15.324  1.8883 -2.3857 -0.5795
15136TIP3   OH266898   5.742   6.451  13.998  0.3369  0.0488 -0.0251
15136TIP3    H166899   5.831   6.482  13.979 -0.0871  1.4390  0.2210
15136TIP3    H266900   5.726   6.478  14.088 -0.0493 -0.8848  0.1840
15137TIP3   OH266901   4.415   3.934   3.072  0.2129 -0.0333  0.6672
15137TIP3    H166902   4.363   3.859   3.098  1.5332 -2.2174 -2.6460
15137TIP3    H266903   4.505   3.901   3.066  1.3447  2.5966  2.1534
15138TIP3   OH266904   6.175   2.725  15.795 -0.0675  0.0118  0.0700
15138TIP3    H166905   6.082   2.717  15.772  0.0352  1.6765 -0.9759
15138TIP3    H266906   6.178   2.709  15.890 -1.1008 -2.3228 -0.2374
15139TIP3   OH266907   3.584   1.679   4.213 -0.3492 -0.8410 -0.4884
15139TIP3    H166908   3.529   1.757   4.225 -0.3175 -0.8310 -0.4071
15139TIP3    H266909   3.522   1.609   4.195 -0.4601 -1.0323  0.6028
15140TIP3   OH266910   0.650   6.420  16.722 -0.7448 -0.5909  0.1677
15140TIP3    H166911   0.653   6.476  16.799 -0.4602 -0.8529  0.3452
15140TIP3    H266912   0.610   6.475  16.654 -1.1537 -0.4188  0.5440
15141TIP3   OH266913   6.207   3.333   4.776 -0.2699  0.1659 -0.1564
15141TIP3    H166914   6.236   3.378   4.856  0.2458  0.4176 -0.4829
15141TIP3    H266915   6.218   3.399   4.707  2.6791 -1.1546 -1.0371
15142TIP3   OH266916   4.680   4.495  12.775 -0.1285 -0.1301  0.1473
15142TIP3    H166917   4.762   4.515  12.821  0.5412  1.8183 -1.8328
15142TIP3    H266918   4.707   4.463  12.690 -1.4100 -0.4724 -0.1348
15143TIP3   OH266919   3.384   1.599  15.358  0.1173  0.0688 -0.5679
15143TIP3    H166920   3.367   1.547  15.279 -0.1549  1.4409 -1.4302
15143TIP3    H266921   3.297   1.615  15.395  0.0080  1.5766 -1.4101
15144TIP3   OH266922   3.282   1.736  14.286  0.0955 -0.1569 -0.2024
15144TIP3    H166923   3.300   1.698  14.201 -1.2208 -0.3982 -0.3829
15144TIP3    H266924   3.337   1.814  14.290  0.2215 -0.1914 -1.2392
15145TIP3   OH266925   6.589   6.253   0.038  0.5669  0.1221 -0.2637
15145TIP3    H166926   6.633   6.247  -0.047  3.6871  0.9135  1.2166
15145TIP3    H266927   6.573   6.347   0.050 -1.2310 -0.1227 -0.5997
15146TIP3   OH266928   1.472   2.078   3.132 -0.2852  0.0029  0.0597
15146TIP3    H166929   1.566   2.084   3.118 -0.0621 -0.5863  1.2022
15146TIP3    H266930   1.443   2.169   3.145  0.5470 -0.0192  2.2121
15147TIP3   OH266931   3.635   2.854   4.482 -0.0343  0.4401  0.1273
15147TIP3    H166932   3.598   2.833   4.568 -0.8522  0.1262 -0.3006
15147TIP3    H266933   3.600   2.940   4.461 -0.0049  0.4227  0.0068
15148TIP3   OH266934   3.223   6.800   5.167  0.5772 -0.0381  0.1424
15148TIP3    H166935   3.130   6.797   5.148  0.9639 -3.4027 -1.7402
15148TIP3    H266936   3.259   6.858   5.100 -0.1598  1.3793  0.9614
15149TIP3   OH266937   4.126   5.038  10.652  0.1532  0.1292  0.0288
15149TIP3    H166938   4.061   4.969  10.651  1.6800 -1.3350 -0.7773
15149TIP3    H266939   4.116   5.082  10.567 -0.6920  0.7854  0.4657
15150TIP3   OH266940   6.754   5.101   0.177  0.3753  0.2364 -0.0913
15150TIP3    H166941   6.710   5.128   0.258 -0.5286  0.2181 -0.5682
15150TIP3    H266942   6.759   5.181   0.124 -0.6695 -0.1289 -0.7571
15151TIP3   OH266943   5.829   1.427  14.130  0.0282  0.2708 -0.7486
15151TIP3    H166944   5.902   1.462  14.181 -0.6571  0.3077  0.2303
15151TIP3    H266945   5.804   1.347  14.176 -0.2099 -0.0268 -1.3845
15152TIP3   OH266946   2.343   2.219   4.065 -0.3649  0.3181 -0.6876
15152TIP3    H166947   2.281   2.230   4.137 -0.3513  0.0733 -0.6381
15152TIP3    H266948   2.369   2.308   4.042 -1.1073  0.4553 -1.0334
15153TIP3   OH266949   0.145   1.283   5.138  0.6199 -0.1816  0.2791
15153TIP3    H166950   0.126   1.361   5.086 -0.8214 -1.0168 -0.4806
15153TIP3    H266951   0.206   1.232   5.084  1.4690  0.3697  0.7234
15154TIP3   OH266952   2.755   5.331  15.331 -0.1274  0.5417  0.3323
15154TIP3    H166953   2.700   5.295  15.401  0.4915  0.0156  0.5548
15154TIP3    H266954   2.746   5.267  15.260  0.8119  0.0395  0.6549
15155TIP3   OH266955   2.685   3.457  15.250 -0.3076  0.0853  0.1925
15155TIP3    H166956   2.750   3.408  15.301 -0.5832 -0.2560  0.2189
15155TIP3    H266957   2.603   3.440  15.295 -0.9661 -2.2894 -1.8245
15156TIP3   OH266958   3.332   5.550   1.699 -0.0421  0.4261  0.1824
15156TIP3    H166959   3.312   5.595   1.781 -0.4582 -1.3735  1.1076
15156TIP3    H266960   3.390   5.609   1.652  2.3256  0.3837  2.9387
15157TIP3   OH266961   0.063   2.090   4.424  0.1331 -0.2756 -0.2158
15157TIP3    H166962   0.016   2.144   4.360  1.7376 -0.4090 -1.5438
15157TIP3    H266963   0.005   2.087   4.500 -0.6028  2.1426 -0.6373
15158TIP3   OH266964   5.416   2.037  15.686 -0.1581  0.1656  0.0048
15158TIP3    H166965   5.428   2.107  15.622 -1.2089 -0.1088 -0.4996
15158TIP3    H266966   5.371   2.078  15.759  1.0127  0.4712  0.5688
15159TIP3   OH266967   0.068   1.617  12.556  0.1322 -1.0576  0.0893
15159TIP3    H166968   0.005   1.683  12.584 -0.2397 -1.3553 -0.0483
15159TIP3    H266969   0.153   1.660  12.568 -0.1055 -0.5406 -0.0314
15160TIP3   OH266970   4.310   4.563  14.626 -1.3715  0.2583  0.1054
15160TIP3    H166971   4.256   4.485  14.620  0.8620 -1.2857 -0.6533
15160TIP3    H266972   4.336   4.581  14.535  0.1153  0.3942  0.5402
15161TIP3   OH266973   2.826   1.667  14.428  0.0356 -0.8270  0.2813
15161TIP3    H166974   2.874   1.717  14.363 -2.5933 -0.2096 -1.2435
15161TIP3    H266975   2.835   1.718  14.509 -2.1184  1.8503 -1.1164
15162TIP3   OH266976   2.031   4.322   1.221 -0.1032  1.0010  0.4053
15162TIP3    H166977   2.109   4.306   1.167 -1.2468  0.4907 -1.1390
15162TIP3    H266978   1.991   4.236   1.230 -0.9997  1.4123  0.3737
15163TIP3   OH266979   3.516   5.039  15.483  0.2028 -0.6807 -0.3418
15163TIP3    H166980   3.600   5.013  15.447  0.4244  1.0136 -1.0869
15163TIP3    H266981   3.451   5.004  15.421  0.4089 -1.0399 -0.3559
15164TIP3   OH266982   2.406   2.762   0.224  0.4575 -0.1517 -0.5710
15164TIP3    H166983   2.468   2.792   0.290 -0.3327  1.9514 -0.7426
15164TIP3    H266984   2.363   2.842   0.193 -1.9537 -1.4915 -0.8399
15165TIP3   OH266985   5.828   3.900  16.646  0.0253 -0.4068  0.0840
15165TIP3    H166986   5.788   3.900  16.733  0.3867 -0.8037  0.2515
15165TIP3    H266987   5.918   3.872  16.661  0.4950  0.8608 -0.2350
15166TIP3   OH266988   6.443   4.738  13.428 -0.6140  0.1578 -0.2843
15166TIP3    H166989   6.424   4.725  13.335  1.0482 -0.2189 -0.5710
15166TIP3    H266990   6.425   4.831  13.443  0.9698  0.6761 -1.4430
15167TIP3   OH266991   4.088   6.063  13.252  0.3848  0.2961  0.3666
15167TIP3    H166992   4.024   6.013  13.303 -0.9307  0.4727 -1.0870
15167TIP3    H266993   4.091   6.149  13.294 -0.2189  0.2376  0.5229
15168TIP3   OH266994   3.538   4.785  15.239  0.1247 -0.1468 -0.0014
15168TIP3    H166995   3.571   4.783  15.329 -1.7250  0.6784  0.7170
15168TIP3    H266996   3.542   4.693  15.210  1.3911 -0.3135  0.6559
15169TIP3   OH266997   1.044   5.495  16.556 -0.5731  0.0118  0.5286
15169TIP3    H166998   0.998   5.414  16.533 -0.4131  0.5794 -1.9050
15169TIP3    H266999   0.976   5.563  16.551 -0.4586  0.2058  1.4819
15170TIP3   OH267000   0.352   1.214   1.600  0.3790 -0.2923 -0.1978
15170TIP3    H167001   0.315   1.295   1.566 -0.7386 -1.3025 -1.4967
15170TIP3    H267002   0.446   1.224   1.591  0.1908  0.3119 -1.6591
15171TIP3   OH267003   0.618   0.002  16.695  0.1002 -0.1568  0.4040
15171TIP3    H167004   0.559  -0.053  16.746 -1.0414  1.1322  0.5042
15171TIP3    H267005   0.644  -0.052  16.620 -0.1229 -1.2028  1.0751
15172TIP3   OH267006   6.102   1.014  12.666  0.3263 -0.1640 -0.0265
15172TIP3    H167007   6.197   1.020  12.658  0.2537  1.6503  0.1589
15172TIP3    H267008   6.087   0.961  12.745  1.1773 -1.0077 -0.4395
15173TIP3   OH267009   3.587   4.348  14.260  0.2978 -0.0099  0.1238
15173TIP3    H167010   3.589   4.396  14.343 -1.3412 -0.6086  0.5262
15173TIP3    H267011   3.567   4.258  14.286 -2.5358  0.2389 -1.0978
15174TIP3   OH267012   0.077   6.261   1.610  0.1595  0.0539 -0.2937
15174TIP3    H167013   0.171   6.257   1.595  0.7571 -1.3862  3.1739
15174TIP3    H267014   0.046   6.172   1.592 -0.2056  0.0651  0.2472
15175TIP3   OH267015   0.183   6.393   1.061  0.0807  0.3550 -0.0013
15175TIP3    H167016   0.225   6.458   1.117  0.6597 -0.8931  1.0458
15175TIP3    H267017   0.188   6.311   1.110  1.3815 -0.9676 -2.2410
15176TIP3   OH267018   2.863   6.628  10.585  0.7502  0.2043 -0.1113
15176TIP3    H167019   2.952   6.596  10.598  0.6525  0.7493  2.1401
15176TIP3    H267020   2.864   6.717  10.619 -0.6708  0.2020 -0.0271
15177TIP3   OH267021   6.361   4.471  16.401  0.5130  0.1600 -0.1145
15177TIP3    H167022   6.453   4.496  16.390  0.6770 -0.8902 -1.2627
15177TIP3    H267023   6.312   4.541  16.357  0.8402 -0.1114 -0.9172
15178TIP3   OH267024   2.318   3.569   4.421 -0.7059 -0.0104 -0.2742
15178TIP3    H167025   2.267   3.592   4.499 -1.2041  2.2241 -1.2147
15178TIP3    H267026   2.354   3.483   4.440 -4.2990 -1.3735  0.7101
15179TIP3   OH267027   6.158   0.531  16.078  0.0510  0.0639  0.4217
15179TIP3    H167028   6.198   0.615  16.099 -2.8179  1.6741 -0.2430
15179TIP3    H267029   6.184   0.515  15.987 -1.7844  1.7258 -0.4311
15180TIP3   OH267030   6.190   1.141   3.981 -0.0504  0.2293 -0.4298
15180TIP3    H167031   6.175   1.120   4.073  2.2945 -2.2204 -0.5703
15180TIP3    H267032   6.183   1.237   3.978 -1.2920  0.2702  2.0432
15181TIP3   OH267033   0.738   3.919  16.837 -0.1613  0.1562  0.3565
15181TIP3    H167034   0.667   3.959  16.887 -0.2951  2.2676 -1.4655
15181TIP3    H267035   0.700   3.839  16.802 -1.1762  0.5302  0.5954
15182TIP3   OH267036   4.722   1.103  14.406  0.4442 -0.6958  0.1643
15182TIP3    H167037   4.636   1.144  14.399 -0.3052 -2.2455  0.0552
15182TIP3    H267038   4.772   1.140  14.332  0.4969  1.5926  1.2961
15183TIP3   OH267039   1.289   2.998  12.833 -0.1665  0.3274  0.1362
15183TIP3    H167040   1.332   2.996  12.919 -0.3285  1.7717  0.2639
15183TIP3    H267041   1.306   3.086  12.800 -0.1857 -0.2016 -1.2773
15184TIP3   OH267042   4.170   3.623  15.859 -0.6944  0.2248 -0.1382
15184TIP3    H167043   4.133   3.711  15.868  0.9317  0.7131  2.5131
15184TIP3    H267044   4.188   3.596  15.949  1.5172 -1.6406 -1.0830
15185TIP3   OH267045   4.788   0.974   3.146  0.2116  0.1662  0.1943
15185TIP3    H167046   4.840   1.008   3.220  0.3577 -0.7035  0.4987
15185TIP3    H267047   4.714   0.929   3.187  1.4998 -2.3058 -0.0881
15186TIP3   OH267048   4.311   5.698   0.191  0.0393  0.0409 -0.0460
15186TIP3    H167049   4.290   5.757   0.264  0.6181  1.7242 -1.2003
15186TIP3    H267050   4.284   5.611   0.221  0.8758  0.6053  2.4177
15187TIP3   OH267051   6.183   3.897   0.923  0.6247 -0.2486  0.7778
15187TIP3    H167052   6.095   3.925   0.949 -0.0623 -1.5855 -0.0618
15187TIP3    H267053   6.238   3.974   0.939 -1.0274  1.2316 -0.4623
15188TIP3   OH267054   5.725   2.440  16.268  0.4903  0.4681  0.1038
15188TIP3    H167055   5.731   2.354  16.226 -0.2631  0.3888  0.1442
15188TIP3    H267056   5.812   2.456  16.303  0.5438 -0.4511  0.4174
15189TIP3   OH267057   4.212   4.586  16.942 -0.0735  0.3016 -0.1864
15189TIP3    H167058   4.134   4.531  16.928  0.3394 -0.1511 -0.7520
15189TIP3    H267059   4.271   4.562  16.871  0.4921  0.8119  0.1048
15190TIP3   OH267060   4.611   3.745   3.530  0.1162  0.1672 -0.4878
15190TIP3    H167061   4.579   3.691   3.458 -0.2202 -1.4960  0.8786
15190TIP3    H267062   4.608   3.688   3.607  0.2546  1.9693  0.9041
15191TIP3   OH267063   6.067   5.956  13.633 -0.0229 -0.3877 -0.3429
15191TIP3    H167064   6.110   5.984  13.714 -0.1633  1.5502 -0.9291
15191TIP3    H267065   6.121   5.991  13.563 -1.2370  0.0470 -1.0914
15192TIP3   OH267066   2.659   6.066   2.210  0.0568 -0.6872  0.0002
15192TIP3    H167067   2.746   6.055   2.250  0.8571 -1.4853 -1.8642
15192TIP3    H267068   2.670   6.033   2.121 -2.2704 -1.0963 -0.1633
15193TIP3   OH267069   0.848   3.913  15.692  0.1331  0.0706 -0.1555
15193TIP3    H167070   0.897   3.985  15.733 -0.9116  1.6544 -1.6418
15193TIP3    H267071   0.763   3.951  15.671 -0.9407 -2.0389  0.3602
15194TIP3   OH267072   2.055   4.991   5.745  0.0896  0.2802  0.1371
15194TIP3    H167073   1.999   4.923   5.707  0.3125  1.0689 -1.6433
15194TIP3    H267074   2.004   5.026   5.818  0.9440 -3.4067  2.6115
15195TIP3   OH267075   0.779   0.916   4.822  0.3676 -0.1994  0.2151
15195TIP3    H167076   0.725   0.951   4.893 -0.4930 -0.6321 -0.2192
15195TIP3    H267077   0.719   0.862   4.771  0.7291  0.9965 -1.4882
15196TIP3   OH267078   1.449   4.307   2.324  0.3770 -0.0011 -0.2254
15196TIP3    H167079   1.545   4.316   2.324  0.4027 -0.2016  0.6062
15196TIP3    H267080   1.433   4.213   2.315  0.2554  0.0641 -0.6733
15197TIP3   OH267081   1.866   6.105  14.559  0.5492 -0.0286  0.3961
15197TIP3    H167082   1.838   6.108  14.650 -1.5890 -3.3868 -0.0358
15197TIP3    H267083   1.795   6.148  14.511  0.6256 -0.1818  0.1423
15198TIP3   OH267084   5.624   1.064  13.512 -0.0360 -0.0748 -0.5448
15198TIP3    H167085   5.586   1.078  13.425 -1.5127  0.1627  0.1259
15198TIP3    H267086   5.585   0.983  13.542  2.2491 -1.3930 -1.0379
15199TIP3   OH267087   5.331   3.350   5.447  0.1109 -0.1442  0.2143
15199TIP3    H167088   5.381   3.419   5.491 -0.8241 -0.3148  1.5951
15199TIP3    H267089   5.351   3.361   5.354  2.2780  0.1263  0.6764
15200TIP3   OH267090   0.427   3.515  14.328  0.0644  0.2847 -0.7006
15200TIP3    H167091   0.463   3.556  14.250  0.9857 -0.2561 -0.5725
15200TIP3    H267092   0.485   3.542  14.399 -0.7605  0.7678 -0.2004
15201TIP3   OH267093   4.581   1.370   1.134  0.5784 -0.2360  0.1205
15201TIP3    H167094   4.648   1.399   1.196  0.4221  1.4809 -0.4854
15201TIP3    H267095   4.526   1.447   1.121 -1.2059 -1.4624  0.1930
15202TIP3   OH267096   1.491   3.051   4.308 -0.2185 -1.0771  0.1333
15202TIP3    H167097   1.578   3.090   4.321 -0.4770 -0.5496  0.2618
15202TIP3    H267098   1.485   3.039   4.213 -0.8662  0.8768 -0.0952
15203TIP3   OH267099   6.814   5.745   4.167  0.3864  0.1278 -0.1123
15203TIP3    H167100   6.864   5.677   4.213  1.5320  1.1111  0.1249
15203TIP3    H267101   6.742   5.766   4.227  0.6529 -0.0970  0.2885
15204TIP3   OH267102   3.381   3.586   1.633 -0.4719  0.6260 -0.5383
15204TIP3    H167103   3.450   3.637   1.589 -0.3561 -0.5269 -1.7413
15204TIP3    H267104   3.360   3.636   1.711  0.4609  1.9250 -1.1008
15205TIP3   OH267105   5.237   5.615  16.685  0.1473 -0.1348  0.1999
15205TIP3    H167106   5.293   5.550  16.643 -0.0082  0.4573 -0.9614
15205TIP3    H267107   5.175   5.563  16.737 -0.7013 -0.9922 -1.6155
15206TIP3   OH267108   3.671   2.220   3.200 -0.7690  0.8064 -0.3829
15206TIP3    H167109   3.763   2.242   3.213 -0.1361 -1.1903 -1.2886
15206TIP3    H267110   3.664   2.206   3.105 -1.8578  0.3128 -0.2294
15207TIP3   OH267111   0.587   1.078  15.053 -0.0160  0.1196 -0.2583
15207TIP3    H167112   0.673   1.037  15.041 -0.0181  0.6399 -2.2886
15207TIP3    H267113   0.599   1.139  15.125  1.3845  0.3214 -0.6384
15208TIP3   OH267114   1.547   2.513  13.529 -0.6162  0.0482  0.1345
15208TIP3    H167115   1.452   2.501  13.539 -0.5040 -1.4503 -0.4223
15208TIP3    H267116   1.567   2.591  13.581 -2.0522  0.0071  0.7828
15209TIP3   OH267117   1.604   6.212  13.762  0.3415  0.3422 -0.9180
15209TIP3    H167118   1.614   6.270  13.687  2.5656 -0.3896 -1.2303
15209TIP3    H267119   1.676   6.235  13.820 -1.3214  0.8633  0.9911
15210TIP3   OH267120   1.029   6.578   5.477 -0.4190 -0.2318 -0.2728
15210TIP3    H167121   1.109   6.535   5.446 -0.0230 -0.3370  0.8850
15210TIP3    H267122   0.975   6.586   5.398  0.7081 -0.2015 -1.0601
15211TIP3   OH267123   3.820   6.436   1.704  0.1667  0.5751 -0.0735
15211TIP3    H167124   3.877   6.415   1.777  0.0392  0.0753 -0.1181
15211TIP3    H267125   3.844   6.525   1.679  1.4910  0.0789 -0.6056
15212TIP3   OH267126   3.892   5.170  10.987  0.3551  0.0618 -0.1949
15212TIP3    H167127   3.834   5.245  10.973 -0.7065 -0.7835 -0.4254
15212TIP3    H267128   3.969   5.189  10.934 -1.1375 -0.3488 -2.5951
15213TIP3   OH267129   5.495   0.247   4.980 -0.2208  0.5442 -0.1923
15213TIP3    H167130   5.452   0.329   5.006 -0.3135  0.5850 -0.4678
15213TIP3    H267131   5.425   0.195   4.941 -0.4880 -0.2888  1.3702
15214TIP3   OH267132   5.292   6.094   0.186 -0.2117  0.2304  0.0518
15214TIP3    H167133   5.209   6.067   0.225  0.3563 -1.3041  0.2333
15214TIP3    H267134   5.342   6.129   0.260  0.1738 -1.0104  0.4029
15215TIP3   OH267135   6.627   5.182   4.643  0.0594  1.2086  0.1400
15215TIP3    H167136   6.719   5.206   4.636  0.6876 -0.8175  1.0986
15215TIP3    H267137   6.613   5.163   4.736 -1.4174  1.8109  0.0684
15216TIP3   OH267138   6.565   3.772   5.251 -0.3682  0.6611 -0.1432
15216TIP3    H167139   6.577   3.698   5.192  1.0983  1.5162 -0.9426
15216TIP3    H267140   6.595   3.741   5.336 -0.1531  0.2091 -0.3849
15217TIP3   OH267141   0.261   2.289  15.181  0.1604  0.2451  0.7487
15217TIP3    H167142   0.216   2.223  15.234 -1.8693  1.1480  0.1590
15217TIP3    H267143   0.192   2.332  15.131  1.7061  1.4541 -0.3983
15218TIP3   OH267144   3.797   5.859   5.657  0.5784  0.3262  0.1172
15218TIP3    H167145   3.738   5.926   5.621 -0.3428 -1.0741 -1.0265
15218TIP3    H267146   3.740   5.783   5.670  1.2350  0.2793  3.0308
15219TIP3   OH267147   3.344   4.366  12.327 -0.4792  0.5440 -0.2053
15219TIP3    H167148   3.351   4.428  12.254  1.3954  1.2316  0.5434
15219TIP3    H267149   3.430   4.366  12.368 -1.3769 -0.1844  1.7529
15220TIP3   OH267150   0.814   2.975   0.974 -0.5791 -0.0816  0.3001
15220TIP3    H167151   0.760   3.023   0.911 -2.2851  0.5514  2.1840
15220TIP3    H267152   0.842   2.897   0.926 -0.6990  1.0382 -1.6711
15221TIP3   OH267153   6.276   6.122   1.319  0.9171  0.5360 -0.3478
15221TIP3    H167154   6.298   6.057   1.253  2.8031 -0.4672  1.2311
15221TIP3    H267155   6.220   6.076   1.381 -0.3037  1.2906 -0.8784
15222TIP3   OH267156   1.368   2.703  15.024  0.0433 -0.5305 -0.3456
15222TIP3    H167157   1.339   2.794  15.033  0.3048 -0.5673  0.8820
15222TIP3    H267158   1.316   2.669  14.951 -0.8123  0.2912 -0.1328
15223TIP3   OH267159   4.402   0.790   0.192  0.2036  0.2057  0.6226
15223TIP3    H167160   4.440   0.851   0.130  1.2677  0.7402  1.7690
15223TIP3    H267161   4.380   0.712   0.140  0.0456  1.0603 -0.5954
15224TIP3   OH267162   6.306   0.779  11.946 -0.7196  0.3436 -0.4710
15224TIP3    H167163   6.234   0.729  11.985  0.5081 -1.6633 -0.6555
15224TIP3    H267164   6.375   0.713  11.931  2.1974  2.6127  2.1732
15225TIP3   OH267165   6.570   0.150   2.424 -0.0657 -0.0352 -0.3701
15225TIP3    H167166   6.616   0.234   2.432  2.5991 -1.3886 -0.8422
15225TIP3    H267167   6.515   0.159   2.347 -2.3820  2.4329  1.5124
15226TIP3   OH267168   5.623   0.183  12.441  0.6246  0.0022 -0.0616
15226TIP3    H167169   5.685   0.248  12.407  3.6266 -1.7689  1.8697
15226TIP3    H267170   5.642   0.178  12.535 -2.1945 -0.9127  0.5243
15227TIP3   OH267171   4.634   3.515   5.226  0.1721  0.0218  0.2452
15227TIP3    H167172   4.661   3.490   5.138  0.9917  0.3164  0.4092
15227TIP3    H267173   4.544   3.547   5.216  0.0175 -0.6246 -0.3627
15228TIP3   OH267174   6.736   4.356  12.467  0.4030  0.3821  0.0123
15228TIP3    H167175   6.739   4.448  12.441  2.8797  0.6722  1.2175
15228TIP3    H267176   6.743   4.308  12.385  1.1641  1.2634 -0.4464
15229TIP3   OH267177   0.295   0.200   6.157  0.6008 -0.6701 -0.2255
15229TIP3    H167178   0.285   0.153   6.240 -1.1371  0.6543  0.3533
15229TIP3    H267179   0.220   0.260   6.154  1.0514 -0.1611 -2.4074
15230TIP3   OH267180   0.291   1.586  17.066  0.6652  0.2032  0.1469
15230TIP3    H167181   0.267   1.573  17.158  0.4260 -1.7874 -0.1771
15230TIP3    H267182   0.360   1.522  17.050  1.5522  1.3567 -0.7555
15231TIP3   OH267183   2.597   6.548  13.344 -0.0694  0.5015 -0.4871
15231TIP3    H167184   2.561   6.592  13.421 -0.1812 -0.1239 -0.1860
15231TIP3    H267185   2.616   6.459  13.373 -2.2598 -0.4271 -1.7740
15232TIP3   OH267186   3.259   0.303  15.274 -0.1977  0.3158 -0.5003
15232TIP3    H167187   3.326   0.250  15.317 -0.8740 -0.1130  0.0363
15232TIP3    H267188   3.224   0.247  15.205 -0.6335  0.2041 -0.1923
15233TIP3   OH267189   5.522   4.159  14.192 -0.0953 -0.8223 -0.1355
15233TIP3    H167190   5.553   4.159  14.283  1.1737  1.5394 -0.5020
15233TIP3    H267191   5.447   4.219  14.192 -0.1561 -0.8912 -0.6239
15234TIP3   OH267192   5.443   4.703  14.115  0.0336  0.0117 -0.3465
15234TIP3    H167193   5.473   4.615  14.091  2.1626  0.5417  0.3531
15234TIP3    H267194   5.406   4.738  14.034 -0.8962 -1.5355 -0.6256
15235TIP3   OH267195   5.721   4.746  15.649  0.0388  0.0866  0.0179
15235TIP3    H167196   5.682   4.810  15.710 -1.2414  0.8019 -1.5034
15235TIP3    H267197   5.647   4.693  15.620  0.4898  0.2203 -1.4462
15236TIP3   OH267198   0.389   4.019   1.652 -0.2910  0.3969  0.3588
15236TIP3    H167199   0.421   4.056   1.570 -2.5729 -0.3214 -0.9143
15236TIP3    H267200   0.457   3.957   1.678  0.6191  0.8797 -0.7998
15237TIP3   OH267201   0.780   4.560  11.223 -0.2756  0.0145  0.8014
15237TIP3    H167202   0.861   4.601  11.192 -0.3671  0.1403  0.7335
15237TIP3    H267203   0.710   4.602  11.174 -0.3352 -0.5161  0.4271
15238TIP3   OH267204   0.636   1.106   2.534  0.0574 -0.5161  0.0654
15238TIP3    H167205   0.550   1.089   2.497 -0.7567  1.1737  1.1123
15238TIP3    H267206   0.686   1.147   2.463 -1.0135  1.3523  0.3674
15239TIP3   OH267207   0.510   1.662   0.655 -0.4814 -0.1109  0.3466
15239TIP3    H167208   0.490   1.729   0.589 -4.3310 -0.8287  0.6555
15239TIP3    H267209   0.548   1.712   0.727 -3.5119  1.9076  0.6757
15240TIP3   OH267210   1.706   4.953   3.736  0.1798 -0.1955  0.1879
15240TIP3    H167211   1.742   5.041   3.726 -1.6053  0.4479 -0.7889
15240TIP3    H267212   1.712   4.915   3.649 -0.2991 -0.5548  0.3133
15241TIP3   OH267213   6.007   1.361   2.550 -0.1109 -0.1140  0.3870
15241TIP3    H167214   5.926   1.411   2.536  0.1717  0.1222 -0.4324
15241TIP3    H267215   5.979   1.270   2.549 -0.2080 -0.0799 -1.0829
15242TIP3   OH267216   6.572   6.524   0.916  0.1897 -0.0939 -0.0113
15242TIP3    H167217   6.535   6.518   1.005 -1.2457 -0.0527 -0.5800
15242TIP3    H267218   6.605   6.437   0.897  0.3188 -0.1566  0.4858
15243TIP3   OH267219   6.377   3.697   6.274  0.4545  0.1304  0.0601
15243TIP3    H167220   6.359   3.758   6.346  0.7645  1.3400 -0.8698
15243TIP3    H267221   6.303   3.636   6.275 -0.1789  0.8935  0.6134
15244TIP3   OH267222   4.487   0.998   2.761  0.4060  0.4665 -0.1437
15244TIP3    H167223   4.473   1.030   2.672 -1.1642  0.7426  0.1873
15244TIP3    H267224   4.410   0.944   2.780  0.6910  0.4564  1.0624
15245TIP3   OH267225   1.657   6.072   3.311 -0.0788 -0.0234 -0.0701
15245TIP3    H167226   1.638   5.998   3.253  1.2489 -0.8176  0.4889
15245TIP3    H267227   1.715   6.128   3.260  0.9068 -0.6103  0.3836
15246TIP3   OH267228   3.072   1.521  16.398 -0.5221  0.7788  0.2501
15246TIP3    H167229   2.981   1.492  16.390 -0.5194  0.9185 -0.2621
15246TIP3    H267230   3.080   1.595  16.339  0.7573 -1.2053 -2.1981
15247TIP3   OH267231   0.282   4.095  16.118 -0.1203  0.6708 -0.0344
15247TIP3    H167232   0.327   4.094  16.203 -0.6835 -2.4245  0.3051
15247TIP3    H267233   0.321   4.168  16.071  0.3277  2.3491  2.8233
15248TIP3   OH267234   5.698   0.397   2.039 -0.4152 -0.0275  0.1891
15248TIP3    H167235   5.635   0.408   1.967 -2.9897 -0.1186  2.3309
15248TIP3    H267236   5.748   0.319   2.016 -0.9271  0.1811 -1.6959
15249TIP3   OH267237   1.740   2.586  11.253 -0.8695 -0.4290 -0.4144
15249TIP3    H167238   1.660   2.638  11.251  0.7236  2.1509  0.0200
15249TIP3    H267239   1.809   2.648  11.227  1.2102 -2.0956  0.9581
15250TIP3   OH267240   5.643   5.922  12.555 -0.8939  0.1694  0.0577
15250TIP3    H167241   5.680   5.877  12.479  0.4926 -1.7584  1.8224
15250TIP3    H267242   5.643   6.014  12.531  1.6551 -0.1843 -1.4230
15251TIP3   OH267243   4.067   2.461  12.981 -0.7254 -0.4891  0.3161
15251TIP3    H167244   4.059   2.549  13.017 -0.6227  0.1972 -1.3291
15251TIP3    H267245   4.034   2.404  13.051  0.6468  0.7130  1.9920
15252TIP3   OH267246   5.183   6.333   0.069 -0.2799  0.1688 -0.1536
15252TIP3    H167247   5.229   6.389   0.007 -0.2379  1.5460  1.0926
15252TIP3    H267248   5.238   6.256   0.078 -0.1085  0.1125 -1.5399
15253TIP3   OH267249   1.614   3.994  16.069  0.3518  0.0007 -0.6970
15253TIP3    H167250   1.690   3.937  16.082 -0.2678 -1.0250 -1.4637
15253TIP3    H267251   1.553   3.968  16.138  0.3788  0.2718 -0.5710
15254TIP3   OH267252   5.477   0.507   6.486 -0.2013 -0.2025 -0.5688
15254TIP3    H167253   5.558   0.510   6.435 -0.6806  0.1696 -1.3175
15254TIP3    H267254   5.501   0.461   6.566  0.6693 -0.3925 -0.9320
15255TIP3   OH267255   5.741   0.412   3.186  0.4779 -0.5160 -0.1201
15255TIP3    H167256   5.671   0.361   3.144 -0.4352 -0.0412  0.8006
15255TIP3    H267257   5.801   0.346   3.220 -0.6291 -0.9989  0.9504
15256TIP3   OH267258   3.762   5.811  16.003  0.3474  0.6644  0.0920
15256TIP3    H167259   3.841   5.826  15.950  0.6141  0.4689  0.4299
15256TIP3    H267260   3.725   5.898  16.017 -0.7223  0.5630 -1.9330
15257TIP3   OH267261   6.608   0.191   4.250 -0.5571  0.3693 -0.4807
15257TIP3    H167262   6.527   0.228   4.215 -1.5925 -0.9466  0.4539
15257TIP3    H267263   6.621   0.110   4.201 -0.9344 -0.4644  0.7694
15258TIP3   OH267264   5.170   2.722   4.597  0.6015 -0.7189  0.2616
15258TIP3    H167265   5.182   2.646   4.654  2.4473 -0.3402  0.4371
15258TIP3    H267266   5.256   2.764   4.597  0.7313 -0.9170 -3.1140
15259TIP3   OH267267   0.794   1.018  16.761 -0.2060 -0.0240  0.0709
15259TIP3    H167268   0.724   0.956  16.782 -1.2117  1.2948  0.6702
15259TIP3    H267269   0.785   1.087  16.826  1.8193  0.0503  0.2905
15260TIP3   OH267270   5.588   1.682   4.286 -0.1783 -0.3153  0.3167
15260TIP3    H167271   5.636   1.716   4.211 -0.0799  2.8080  1.6968
15260TIP3    H267272   5.506   1.650   4.250  0.4576 -0.1677 -1.2926
15261TIP3   OH267273   2.928   6.631   1.198 -0.6951 -0.1170 -0.2276
15261TIP3    H167274   2.849   6.684   1.209  0.3905  1.2834  1.0580
15261TIP3    H267275   2.961   6.618   1.287 -1.4029 -3.7707 -0.4043
15262TIP3   OH267276   2.024   3.488  14.263 -0.4697 -0.1784 -0.0814
15262TIP3    H167277   2.093   3.511  14.325 -0.0139  0.8662 -0.9664
15262TIP3    H267278   2.030   3.393  14.254  0.2318 -0.1913  0.5673
15263TIP3   OH267279   2.745   1.167   4.605  0.2370  0.5072  0.0444
15263TIP3    H167280   2.785   1.197   4.687  0.6617  0.3990 -0.1217
15263TIP3    H267281   2.767   1.074   4.600  0.1220  0.4901 -0.1423
15264TIP3   OH267282   1.190   5.260  13.878 -0.2086 -0.3735 -0.2266
15264TIP3    H167283   1.130   5.196  13.915  0.0066  0.1711  1.0965
15264TIP3    H267284   1.153   5.345  13.903  0.9213 -0.0317  0.2970
15265TIP3   OH267285   1.380   1.071  13.851  0.2832 -0.6144  0.7118
15265TIP3    H167286   1.446   1.061  13.782  0.1694 -0.5048  0.5870
15265TIP3    H267287   1.396   0.997  13.911  1.4958  0.2652  1.4925
15266TIP3   OH267288   4.438   1.719  13.739 -0.4683 -0.3747  0.3053
15266TIP3    H167289   4.375   1.652  13.767 -0.3015 -0.0638  1.4779
15266TIP3    H267290   4.425   1.791  13.801 -0.1849  0.4122 -0.5339
15267TIP3   OH267291   0.105   0.580   5.759 -0.2089  0.1999 -0.2466
15267TIP3    H167292   0.193   0.555   5.730 -0.1442 -0.9033  0.8584
15267TIP3    H267293   0.062   0.497   5.781 -1.3751  0.7608 -0.3306
15268TIP3   OH267294   5.109   0.128   1.184  0.2441  0.0024  0.4671
15268TIP3    H167295   5.145   0.153   1.270 -1.2455  1.3982  0.7228
15268TIP3    H267296   5.179   0.149   1.122  1.0220 -0.2232  1.2578
15269TIP3   OH267297   0.902   4.512   0.396 -0.1736 -0.1890  0.0714
15269TIP3    H167298   0.859   4.468   0.469 -2.2986  0.3623 -0.8208
15269TIP3    H267299   0.901   4.605   0.419  0.1872 -0.1251 -0.1526
15270TIP3   OH267300   4.853   4.433  15.717 -0.1116  0.4650  0.2973
15270TIP3    H167301   4.874   4.508  15.662 -0.1855  0.4013  0.1797
15270TIP3    H267302   4.795   4.379  15.662 -1.1723  1.0013  0.8731
15271TIP3   OH267303   4.933   2.137  11.833 -0.2021 -0.1267  0.0342
15271TIP3    H167304   4.953   2.123  11.925  0.2923 -0.6706 -0.1513
15271TIP3    H267305   4.865   2.073  11.813 -0.2978 -0.0200  0.0198
15272TIP3   OH267306   2.262   2.830  16.949  0.8449 -0.4259  0.1598
15272TIP3    H167307   2.282   2.912  16.903  1.7697 -1.0263 -0.5306
15272TIP3    H267308   2.275   2.851  17.041 -2.0269  1.0771  0.2869
15273TIP3   OH267309   4.610   3.825   1.718  0.0297 -0.0955  0.2309
15273TIP3    H167310   4.569   3.760   1.661 -1.4742  0.4385  0.6764
15273TIP3    H267311   4.704   3.809   1.709 -0.1260  0.5371 -3.0340
15274TIP3   OH267312   3.548   2.092   1.324  0.5779  0.2678  0.0846
15274TIP3    H167313   3.477   2.137   1.278  0.7234  0.4133 -0.0003
15274TIP3    H267314   3.505   2.024   1.376  0.3617  0.4628  0.1595
15275TIP3   OH267315   2.104   1.729  16.559  0.2920 -0.3727  0.1088
15275TIP3    H167316   2.019   1.704  16.523  0.9121 -0.1328 -1.5706
15275TIP3    H267317   2.124   1.814  16.518  1.5004 -0.6061  0.1902
15276TIP3   OH267318   1.697   0.475   1.398 -0.2499  0.0100 -0.2917
15276TIP3    H167319   1.786   0.493   1.367 -0.0181 -0.2173  0.2337
15276TIP3    H267320   1.683   0.382   1.379  0.4724 -0.5354  1.6587
15277TIP3   OH267321   5.100   1.161   3.742  0.2445 -0.4280 -0.4273
15277TIP3    H167322   5.146   1.183   3.661  0.7489  0.8953  0.1889
15277TIP3    H267323   5.008   1.176   3.722  0.5750  2.4271 -0.0253
15278TIP3   OH267324   1.002   0.856  15.750  0.1705 -0.2490  0.1090
15278TIP3    H167325   1.057   0.870  15.672  2.7302 -1.1254  1.7012
15278TIP3    H267326   1.039   0.779  15.792 -0.0709  1.2359  3.1384
15279TIP3   OH267327   1.391   2.487  15.465  0.1807  0.2186  0.4107
15279TIP3    H167328   1.407   2.399  15.432  1.1576  0.8561 -0.8819
15279TIP3    H267329   1.398   2.543  15.387 -0.8552  1.3810  1.1455
15280TIP3   OH267330   6.637   5.433  11.407 -0.3163  0.4919  0.1612
15280TIP3    H167331   6.685   5.502  11.453 -0.5332  0.6016  0.2236
15280TIP3    H267332   6.643   5.358  11.466  0.7274  0.1725 -0.3333
15281TIP3   OH267333   4.987   0.959  12.183 -0.1339 -0.5925  0.5111
15281TIP3    H167334   4.949   0.926  12.265 -0.5414 -0.8256  0.2327
15281TIP3    H267335   4.957   1.050  12.178  0.1184 -0.4962  0.7590
15282TIP3   OH267336   4.362   0.683   5.987  0.2075 -0.3271 -0.0562
15282TIP3    H167337   4.420   0.666   5.913  0.1136 -1.5706  0.1377
15282TIP3    H267338   4.405   0.754   6.035  1.3304 -0.9048 -0.1854
15283TIP3   OH267339   2.239   5.962  15.492 -0.2202 -0.1096  0.1309
15283TIP3    H167340   2.260   5.884  15.544 -1.1910 -0.2676  0.2985
15283TIP3    H267341   2.315   6.019  15.503  0.5567 -1.0931 -0.1094
15284TIP3   OH267342   2.892   5.743   5.656  0.3818 -0.5045  0.0820
15284TIP3    H167343   2.915   5.701   5.573  0.9154  0.6308 -0.3568
15284TIP3    H267344   2.807   5.783   5.640  1.0357  0.7487 -0.3056
15285TIP3   OH267345   2.721   3.023   5.856 -0.0776  0.6176 -0.1979
15285TIP3    H167346   2.666   2.953   5.892 -1.1218  1.9857  0.9065
15285TIP3    H267347   2.691   3.033   5.766  1.2926 -1.5560 -0.9485
15286TIP3   OH267348   4.501   5.104   4.910  0.1290  0.2696  0.3962
15286TIP3    H167349   4.452   5.023   4.899  1.7883 -0.9374  1.6180
15286TIP3    H267350   4.593   5.077   4.913  0.6161  1.9777  2.5285
15287TIP3   OH267351   3.388   0.315   2.066 -0.5553 -0.2441  0.2413
15287TIP3    H167352   3.400   0.260   1.989 -0.7722  0.8233 -0.5542
15287TIP3    H267353   3.412   0.403   2.038  0.0833  0.0327  1.5967
15288TIP3   OH267354   4.103   3.795  11.880  0.2293  0.2065  0.9966
15288TIP3    H167355   4.097   3.704  11.910 -2.0802  0.5074  1.5314
15288TIP3    H267356   4.032   3.804  11.817 -1.2563  2.3787  2.9154
15289TIP3   OH267357   3.956   5.713   1.790 -0.1347  0.4060  0.0166
15289TIP3    H167358   3.990   5.789   1.837  2.8144 -0.9447  0.1574
15289TIP3    H267359   3.941   5.743   1.701 -2.0088  1.9396  0.8100
15290TIP3   OH267360   5.864   6.031  13.305  0.0423 -0.2867 -0.3702
15290TIP3    H167361   5.788   6.018  13.248  1.2957 -0.6371 -2.0326
15290TIP3    H267362   5.860   6.123  13.329 -0.8939 -0.2943 -0.4617
15291TIP3   OH267363   0.064   6.040   4.429  0.0669  0.3010 -0.0381
15291TIP3    H167364   0.130   6.050   4.360 -1.2191  0.2287 -1.2777
15291TIP3    H267365   0.066   5.947   4.450  1.5166  0.5567  1.1109
15292TIP3   OH267366   1.877   6.538  12.805 -0.3802  0.3342 -0.3205
15292TIP3    H167367   1.882   6.494  12.890  0.8535  0.5446 -0.2762
15292TIP3    H267368   1.959   6.517  12.762  0.3400  2.7760 -0.2103
15293TIP3   OH267369   6.388   5.603   2.651 -0.2064  0.2950 -0.5280
15293TIP3    H167370   6.415   5.669   2.587 -2.0354  2.4626  0.8654
15293TIP3    H267371   6.298   5.583   2.628 -0.1961 -0.4571  0.0850
15294TIP3   OH267372   5.949   1.763   5.065 -0.7255  0.0409  0.1132
15294TIP3    H167373   5.996   1.846   5.060 -1.6330  0.4395 -2.9836
15294TIP3    H267374   5.860   1.788   5.089 -0.8954 -0.0596 -0.3990
15295TIP3   OH267375   3.656   3.050   0.779  0.2730 -0.1688 -0.0421
15295TIP3    H167376   3.660   2.955   0.781 -1.5065 -0.2418  0.9884
15295TIP3    H267377   3.743   3.077   0.749  0.9670 -2.0860  0.1718
15296TIP3   OH267378   4.323   3.796  12.946  0.0678 -0.1480 -0.2854
15296TIP3    H167379   4.408   3.755  12.934  0.5717  0.5430  0.8248
15296TIP3    H267380   4.336   3.888  12.921 -0.2355  0.0598  0.3052
15297TIP3   OH267381   2.675   3.770  17.286 -0.1003  0.0582  0.0197
15297TIP3    H167382   2.598   3.802  17.239  0.5122  2.2874  0.4691
15297TIP3    H267383   2.737   3.745  17.218 -1.6110 -2.8596 -0.3589
15298TIP3   OH267384   3.169   6.789   4.089 -1.1018  0.8408 -1.0121
15298TIP3    H167385   3.185   6.758   3.999  0.4863  1.5568 -0.9749
15298TIP3    H267386   3.103   6.728   4.123 -0.3276 -0.5863 -2.0209
15299TIP3   OH267387   3.022   1.446   4.536 -0.0156  0.0774 -0.0262
15299TIP3    H167388   3.091   1.397   4.581  1.7032  2.1142 -0.4023
15299TIP3    H267389   2.992   1.387   4.467  1.7232 -0.6010 -0.2189
15300TIP3   OH267390   1.001   2.954   2.763 -0.9780  0.4842 -0.1705
15300TIP3    H167391   0.980   2.908   2.845 -0.0734 -0.4291 -0.4496
15300TIP3    H267392   0.916   2.983   2.730 -1.5328 -0.7452  0.1511
15301TIP3   OH267393   2.173   4.611   3.014 -0.1875  0.1355 -0.3457
15301TIP3    H167394   2.157   4.531   2.964 -0.2162  0.2197 -0.4711
15301TIP3    H267395   2.268   4.624   3.008 -0.4469  1.3291 -2.1911
15302TIP3   OH267396   1.041   4.745   5.698 -0.2984 -0.4866  0.1671
15302TIP3    H167397   1.119   4.766   5.647 -0.8247 -0.4520 -0.6179
15302TIP3    H267398   0.990   4.685   5.644 -1.7009  0.9018 -0.1075
15303TIP3   OH267399   6.110   5.685   2.284  0.1383  0.4574 -0.1874
15303TIP3    H167400   6.103   5.753   2.216 -0.1313  2.0834  1.4318
15303TIP3    H267401   6.198   5.695   2.318 -0.0040  0.1920  0.2598
15304TIP3   OH267402   6.799   6.008   1.571  0.2064  0.7458 -0.0031
15304TIP3    H167403   6.859   5.954   1.518  0.5097 -0.0543  1.1340
15304TIP3    H267404   6.804   5.969   1.658 -1.5045  1.0659  0.2384
15305TIP3   OH267405   0.130   3.097  13.813  0.0904  0.1054 -0.5105
15305TIP3    H167406   0.203   3.046  13.778 -0.0497 -0.8276  0.5260
15305TIP3    H267407   0.087   3.037  13.874  0.0559  1.5368  0.8843
15306TIP3   OH267408   5.697   3.523  15.490  0.0290 -1.1152  0.1803
15306TIP3    H167409   5.675   3.451  15.549 -0.8424 -1.1024 -0.1211
15306TIP3    H267410   5.644   3.597  15.522 -0.0202 -0.9546 -0.2660
15307TIP3   OH267411   6.525   2.310  10.886 -0.0719  0.5616  0.4412
15307TIP3    H167412   6.494   2.250  10.818 -0.1951  0.8469  0.2413
15307TIP3    H267413   6.620   2.304  10.881 -0.0938 -0.6971  1.3883
15308TIP3   OH267414   6.584   0.952   5.079  0.2184 -0.0718 -0.3198
15308TIP3    H167415   6.649   0.918   5.141 -1.1724 -0.8758  0.7090
15308TIP3    H267416   6.504   0.960   5.130 -0.0036  2.9326 -1.0387
15309TIP3   OH267417   6.098   2.850  10.974  0.7011  0.0410 -0.4733
15309TIP3    H167418   6.085   2.917  11.041 -3.0907  1.4372 -2.4405
15309TIP3    H267419   6.103   2.768  11.024  0.0881  1.2465  1.6465
15310TIP3   OH267420   3.904   2.516   1.454  0.2248 -0.6688 -0.0159
15310TIP3    H167421   3.922   2.561   1.371 -0.2344  0.4034  0.4602
15310TIP3    H267422   3.810   2.500   1.452  0.6278 -3.1020 -0.9155
15311TIP3   OH267423   3.477   5.447   0.737  0.2864 -0.1877  0.6464
15311TIP3    H167424   3.474   5.512   0.667  0.6137  0.5127  1.2747
15311TIP3    H267425   3.522   5.491   0.809  1.2901 -1.3902  0.7826
15312TIP3   OH267426   2.901   4.615  11.054 -0.1161  0.5040 -0.1479
15312TIP3    H167427   2.924   4.699  11.014  0.4644  0.2359 -0.3799
15312TIP3    H267428   2.924   4.550  10.988  1.0008  0.0444  0.6793
15313TIP3   OH267429   2.832   6.141   5.254  0.2630 -0.0845  0.2665
15313TIP3    H167430   2.871   6.054   5.243  0.3330  0.0866 -0.9002
15313TIP3    H267431   2.887   6.199   5.202 -0.7040  0.3912 -0.2437
15314TIP3   OH267432   4.831   5.540   2.311  0.2414 -0.0218 -0.0108
15314TIP3    H167433   4.776   5.463   2.323 -0.9100  0.7151 -0.4681
15314TIP3    H267434   4.853   5.540   2.217  1.1499 -0.3984  0.1982
15315TIP3   OH267435   6.470   5.703  17.106 -0.0664 -0.1766 -0.2550
15315TIP3    H167436   6.447   5.711  17.199 -0.4075 -0.1326 -0.3415
15315TIP3    H267437   6.440   5.615  17.082 -0.0551 -0.1561 -0.3447
15316TIP3   OH267438   6.261   5.774   0.469 -0.3380  0.2003 -0.3638
15316TIP3    H167439   6.270   5.858   0.515 -0.5558 -0.5536  1.0658
15316TIP3    H267440   6.351   5.744   0.457 -0.3178 -0.0844  0.4766
15317TIP3   OH267441   3.648   2.599   1.162 -0.3413 -0.7809  0.0353
15317TIP3    H167442   3.591   2.626   1.234  1.5054  1.0466  0.8882
15317TIP3    H267443   3.649   2.504   1.166  0.1260 -0.6999  2.7671
15318TIP3   OH267444   2.302   0.097   5.184 -0.0526 -0.1027  0.4364
15318TIP3    H167445   2.230   0.035   5.169 -0.0143 -0.1971  0.6443
15318TIP3    H267446   2.320   0.090   5.278  0.1704 -0.0146  0.3989
15319TIP3   OH267447   2.411   1.840   3.881 -0.0774  0.3505 -0.0607
15319TIP3    H167448   2.348   1.852   3.810 -0.0580 -0.6791 -0.2542
15319TIP3    H267449   2.389   1.755   3.919  1.2985 -0.1088 -0.2445
15320TIP3   OH267450   4.854   0.675  15.941 -0.4767  0.6979 -0.0413
15320TIP3    H167451   4.939   0.647  15.908 -0.9327  0.1875 -0.7975
15320TIP3    H267452   4.800   0.687  15.863 -1.5408 -0.4143  0.4995
15321TIP3   OH267453   3.551   6.655   3.942 -1.2754  0.1326 -0.6510
15321TIP3    H167454   3.518   6.607   4.018  0.5799 -0.3299 -0.1164
15321TIP3    H267455   3.587   6.736   3.978 -3.2892  1.4039 -1.4166
15322TIP3   OH267456   0.193   1.554  13.247 -0.7029 -0.3815  0.1826
15322TIP3    H167457   0.282   1.528  13.221 -0.7106  1.1512 -1.4732
15322TIP3    H267458   0.204   1.642  13.285 -1.5028 -0.2052  0.0045
15323TIP3   OH267459   2.309   4.420   3.869  0.4485  0.0078  0.9225
15323TIP3    H167460   2.361   4.485   3.821  2.5716 -0.3097  2.7117
15323TIP3    H267461   2.263   4.371   3.801  2.3674  0.4116 -0.7209
15324TIP3   OH267462   5.365   4.615   3.657  0.4440  0.1877  0.3748
15324TIP3    H167463   5.326   4.679   3.717 -0.0404 -0.5858  0.8942
15324TIP3    H267464   5.326   4.636   3.572 -1.4884 -0.8476  0.9664
15325TIP3   OH267465   2.951   0.444  11.150 -0.0024  0.5364 -0.7702
15325TIP3    H167466   2.976   0.532  11.176  1.8183  0.2573 -1.5148
15325TIP3    H267467   3.008   0.423  11.076  0.3861 -1.6789  0.0896
15326TIP3   OH267468   0.301   2.903   3.125 -0.2780 -0.5512  0.2269
15326TIP3    H167469   0.329   2.829   3.071  0.0676  0.3102 -0.7775
15326TIP3    H267470   0.207   2.891   3.136 -0.0946 -1.5730  0.7370
15327TIP3   OH267471   1.592   4.497  11.704  0.6494 -0.1785 -0.6329
15327TIP3    H167472   1.502   4.522  11.724  0.5442 -0.5346 -0.6544
15327TIP3    H267473   1.606   4.416  11.753  0.8110 -0.3703 -0.9924
15328TIP3   OH267474   4.284   5.692  14.130 -0.0411 -0.0833  0.0696
15328TIP3    H167475   4.251   5.623  14.073  0.1283 -0.7792  0.8159
15328TIP3    H267476   4.234   5.684  14.211  1.8410 -1.0968  1.1847
15329TIP3   OH267477   4.283   3.688   1.513  0.0119  0.0953 -0.1674
15329TIP3    H167478   4.210   3.653   1.463 -0.0015  0.4057 -0.3646
15329TIP3    H267479   4.331   3.742   1.450 -0.1394  0.6779  0.2171
15330TIP3   OH267480   3.020   1.967  16.942 -0.3168 -0.1481 -0.1103
15330TIP3    H167481   2.951   1.956  17.008  0.2588 -1.2801  0.3169
15330TIP3    H267482   3.078   1.892  16.956  1.0845  0.8726 -0.3692
15331TIP3   OH267483   6.787   4.412  13.538 -0.1407 -0.0287  0.9164
15331TIP3    H167484   6.760   4.478  13.603 -0.7103 -1.4574  2.1475
15331TIP3    H267485   6.717   4.413  13.473  0.1075  0.9514  0.6599
15332TIP3   OH267486   1.461   2.534   0.816 -0.0729  0.2774  0.1068
15332TIP3    H167487   1.381   2.577   0.846  0.3470  0.8307  0.4511
15332TIP3    H267488   1.530   2.575   0.868  0.6706  1.2862 -1.6504
15333TIP3   OH267489   4.829   0.354  11.139 -0.2919  0.0774 -0.7024
15333TIP3    H167490   4.924   0.346  11.148  0.2059  3.7317 -2.0149
15333TIP3    H267491   4.804   0.418  11.205 -1.9024 -0.9747 -0.2583
15334TIP3   OH267492   0.209   2.373   4.292  0.2430 -0.4763  0.4530
15334TIP3    H167493   0.241   2.350   4.379 -1.7140 -0.3229  1.2274
15334TIP3    H267494   0.115   2.359   4.296  0.0879 -0.1414 -1.5433
15335TIP3   OH267495   0.222   4.705   3.145  0.1982 -0.2003 -0.3443
15335TIP3    H167496   0.229   4.760   3.067  1.7702 -0.0611 -0.1399
15335TIP3    H267497   0.255   4.760   3.216 -0.8432 -0.4649  0.3525
15336TIP3   OH267498   4.147   3.102  13.967 -0.7626 -0.1202  0.6391
15336TIP3    H167499   4.075   3.077  13.909 -0.1881  1.1708 -0.6535
15336TIP3    H267500   4.211   3.031  13.958 -0.0394  0.7625 -1.4431
15337TIP3   OH267501   6.690   4.895  12.740 -0.3891 -0.3618  0.3783
15337TIP3    H167502   6.772   4.945  12.735  0.4221 -1.6514  0.5366
15337TIP3    H267503   6.625   4.959  12.771  0.6034  0.6164  0.4916
15338TIP3   OH267504   2.584   2.305  14.418  0.4524 -1.2289  0.2790
15338TIP3    H167505   2.634   2.264  14.347  1.0107 -0.6362  0.3247
15338TIP3    H267506   2.497   2.318  14.382  0.2061 -2.6743  0.3412
15339TIP3   OH267507   2.577   0.692   6.078 -0.4020 -0.4633 -0.0513
15339TIP3    H167508   2.627   0.764   6.118  1.7327 -0.4340 -2.6118
15339TIP3    H267509   2.491   0.730   6.061  0.3198  1.1350 -0.2746
15340TIP3   OH267510   3.710   3.438   3.525 -0.5104 -0.7698  0.3250
15340TIP3    H167511   3.756   3.414   3.445  0.7278 -1.1127  1.1312
15340TIP3    H267512   3.621   3.458   3.496  0.6876  2.1373 -1.5959
15341TIP3   OH267513   5.303   2.873  15.877  0.2384 -0.5260  0.5239
15341TIP3    H167514   5.372   2.881  15.812  0.3911  0.0997  0.7509
15341TIP3    H267515   5.222   2.867  15.827  0.0476  3.0856  0.2786
15342TIP3   OH267516   4.400   1.524   5.416  0.1130  0.3030  0.9311
15342TIP3    H167517   4.341   1.598   5.405 -0.2071  0.1835  1.8409
15342TIP3    H267518   4.416   1.492   5.327 -0.7805  0.6529  0.6462
15343TIP3   OH267519   2.254   0.929  16.420 -0.0817 -0.1675  0.0046
15343TIP3    H167520   2.219   0.990  16.485 -0.6070  0.6512 -1.0255
15343TIP3    H267521   2.312   0.871  16.469  3.1372  3.2566  0.5009
15344TIP3   OH267522   6.300   3.424   5.738 -0.4259 -0.6368 -0.1232
15344TIP3    H167523   6.358   3.448   5.665 -0.1752 -1.0045 -0.0495
15344TIP3    H267524   6.215   3.462   5.715 -0.2109 -0.2827 -0.3419
15345TIP3   OH267525   2.505   1.002   2.673  0.1407 -0.9820  0.4195
15345TIP3    H167526   2.559   0.925   2.657 -0.0266 -0.8556 -0.7637
15345TIP3    H267527   2.428   0.990   2.618 -0.2044 -0.2916  0.7382
15346TIP3   OH267528   5.253   1.408   4.339 -0.4710 -0.0484 -0.0871
15346TIP3    H167529   5.303   1.448   4.267  0.7658 -0.9724  0.2415
15346TIP3    H267530   5.320   1.367   4.394 -1.4806 -0.0204  1.1709
15347TIP3   OH267531   4.649   3.812  10.977  0.1422 -0.7089  0.1699
15347TIP3    H167532   4.738   3.808  10.941  0.5692  1.2816  0.9508
15347TIP3    H267533   4.593   3.832  10.902  0.4827 -0.9130 -0.1398
15348TIP3   OH267534   6.664   4.243   5.100 -0.4375 -0.3672 -0.1914
15348TIP3    H167535   6.617   4.321   5.129 -2.1160 -0.9323 -1.2866
15348TIP3    H267536   6.757   4.267   5.105 -0.7914  0.5712  2.6161
15349TIP3   OH267537   2.283   2.982  15.149 -0.2248 -0.5132  0.0906
15349TIP3    H167538   2.207   2.963  15.094  0.0611 -0.3009 -0.3808
15349TIP3    H267539   2.248   3.033  15.222 -0.6423 -0.9914  0.2271
15350TIP3   OH267540   5.462   4.008   5.204  0.1441  0.2029  0.3184
15350TIP3    H167541   5.386   3.955   5.231  0.4176 -1.1806 -1.5073
15350TIP3    H267542   5.521   3.945   5.164  1.8459  1.4471  0.8369
15351TIP3   OH267543   2.984   0.605  12.962  0.6089  0.0418  0.4372
15351TIP3    H167544   2.999   0.678  12.901 -1.2874 -0.6661 -0.9371
15351TIP3    H267545   3.030   0.630  13.042  0.3263  2.5762 -0.1526
15352TIP3   OH267546   4.102   5.457   1.514 -0.2058  0.0062 -0.3048
15352TIP3    H167547   4.117   5.364   1.495  0.1817 -0.0899  0.4771
15352TIP3    H267548   4.082   5.495   1.428 -1.6672 -1.0388 -0.4508
15353TIP3   OH267549   6.581   3.782   2.222  0.1504  0.0039 -0.5575
15353TIP3    H167550   6.563   3.832   2.302  0.6585 -0.1172 -0.3681
15353TIP3    H267551   6.671   3.751   2.232 -0.2578 -1.2076 -0.5260
15354TIP3   OH267552   6.559   1.296  14.490  0.3275  0.0488 -0.0819
15354TIP3    H167553   6.529   1.381  14.457 -1.3394 -1.4043 -2.4736
15354TIP3    H267554   6.499   1.275  14.561  0.4966  0.6588  0.2498
15355TIP3   OH267555   6.302   0.119   3.473 -0.1695  0.1702  0.4449
15355TIP3    H167556   6.356   0.066   3.414 -0.1267 -0.7678  1.3106
15355TIP3    H267557   6.353   0.198   3.488  0.1799  0.0595 -0.1376
15356TIP3   OH267558   2.273   2.025   1.514  0.4860  0.1639 -0.1957
15356TIP3    H167559   2.213   2.035   1.440 -0.1103  2.1317  0.5327
15356TIP3    H267560   2.232   2.074   1.585  1.0350 -1.7183  1.4839
15357TIP3   OH267561   1.749   4.798   3.483 -0.0324  0.5800 -0.3409
15357TIP3    H167562   1.723   4.739   3.412 -1.0096  2.2689 -1.4241
15357TIP3    H267563   1.841   4.818   3.466  0.1832 -0.2818 -0.2105
15358TIP3   OH267564   3.356   6.575   0.662  0.0011 -0.3808 -0.0172
15358TIP3    H167565   3.376   6.643   0.726  1.2360 -1.6364  0.9383
15358TIP3    H267566   3.262   6.558   0.673 -0.2439  0.9042 -0.0319
15359TIP3   OH267567   6.053   6.105  14.199 -0.1685  1.0839 -0.2398
15359TIP3    H167568   5.966   6.144  14.207 -0.3810  0.5952 -0.1209
15359TIP3    H267569   6.048   6.055  14.117 -0.8618 -1.0910  1.0893
15360TIP3   OH267570   4.516   6.636  15.623  0.6759 -0.3413  0.0473
15360TIP3    H167571   4.452   6.657  15.556  0.9525  0.3418 -0.0071
15360TIP3    H267572   4.465   6.601  15.696  0.4172 -1.5174 -0.6865
15361TIP3   OH267573   5.643   6.387   5.506  0.0520 -0.3080  0.4187
15361TIP3    H167574   5.608   6.375   5.418 -0.5598  0.4158  0.5585
15361TIP3    H267575   5.722   6.439   5.494 -0.7582  0.9549  0.4074
15362TIP3   OH267576   2.049   2.912  16.197 -0.9057  0.2500  0.0439
15362TIP3    H167577   2.060   2.884  16.288 -1.5285  0.2721  0.1266
15362TIP3    H267578   2.049   2.831  16.147 -0.5367  0.2392  0.0628
15363TIP3   OH267579   3.435   3.165   6.394  0.4383 -0.8491 -0.0677
15363TIP3    H167580   3.478   3.229   6.337 -0.0042 -1.5012 -1.1525
15363TIP3    H267581   3.362   3.133   6.342  0.5890 -2.1506  0.5158
15364TIP3   OH267582   6.559   2.975  13.175  0.1636 -0.0671 -0.1469
15364TIP3    H167583   6.481   3.030  13.168  0.4713  0.1385 -2.2482
15364TIP3    H267584   6.575   2.944  13.086  2.5269 -0.0610  0.2323
15365TIP3   OH267585   5.742   2.306  11.895  0.6839 -0.5175  0.1480
15365TIP3    H167586   5.666   2.354  11.926  0.5803 -0.9319  0.5383
15365TIP3    H267587   5.708   2.248  11.827  0.9642  0.6197 -0.9890
15366TIP3   OH267588   4.862   4.391   0.007 -0.2832 -0.2470 -0.0934
15366TIP3    H167589   4.957   4.407   0.004 -0.1503 -0.8077  0.8692
15366TIP3    H267590   4.828   4.464   0.060 -0.2759 -0.5049  0.2717
15367TIP3   OH267591   4.359   1.897  14.730  0.3803  0.0598  0.3701
15367TIP3    H167592   4.310   1.968  14.688 -1.5405 -1.3014  0.2498
15367TIP3    H267593   4.372   1.927  14.820  1.2007  1.3486 -0.1571
15368TIP3   OH267594   4.949   2.653   4.211 -0.1073  0.2291  0.0812
15368TIP3    H167595   5.015   2.723   4.212  0.3453 -0.1938  1.5678
15368TIP3    H267596   4.989   2.583   4.160 -0.6323  1.1144 -1.5594
15369TIP3   OH267597   5.536   5.308   0.387  0.1609 -0.0715  0.4163
15369TIP3    H167598   5.521   5.357   0.306  4.1947  1.1200  0.2393
15369TIP3    H267599   5.555   5.219   0.358 -3.6109 -0.9808  0.4965
15370TIP3   OH267600   6.085   3.008  15.846  0.4464 -0.2045 -0.6822
15370TIP3    H167601   6.096   2.913  15.846 -0.3163 -0.3091  2.0583
15370TIP3    H267602   6.140   3.039  15.918  1.4098  1.5465 -2.1121
15371TIP3   OH267603   4.244   5.718  13.285 -0.1598 -0.1252  0.3182
15371TIP3    H167604   4.278   5.742  13.371  2.5089  1.3133 -1.0423
15371TIP3    H267605   4.295   5.641  13.259  0.6113  0.7443 -0.8392
15372TIP3   OH267606   3.316   4.084  12.282  0.2047  0.4979 -0.1684
15372TIP3    H167607   3.311   4.179  12.295 -0.2412  0.4183  0.2636
15372TIP3    H267608   3.372   4.053  12.353  2.4721  0.7360 -1.8117
15373TIP3   OH267609   0.570   2.563  12.752 -0.0338 -0.1130 -0.2211
15373TIP3    H167610   0.628   2.503  12.706 -0.3911 -0.4891 -0.1869
15373TIP3    H267611   0.539   2.624  12.685  0.9973  0.5740 -0.0954
15374TIP3   OH267612   5.315   1.930  10.925  0.4898 -0.4984  0.1493
15374TIP3    H167613   5.369   2.004  10.952 -1.2771  1.1395 -0.7223
15374TIP3    H267614   5.375   1.855  10.925  2.1492  0.7957  1.6594
15375TIP3   OH267615   2.232   3.124   1.628  0.2898  0.1289  0.0664
15375TIP3    H167616   2.214   3.169   1.710 -0.5923  2.4453 -1.3303
15375TIP3    H267617   2.146   3.115   1.587  0.7717 -0.5796 -0.7969
15376TIP3   OH267618   2.325   3.395  15.946 -0.5462 -0.0968  0.4455
15376TIP3    H167619   2.317   3.332  15.874 -0.3272  0.4772 -0.0897
15376TIP3    H267620   2.420   3.409  15.955 -0.5424 -0.6577  1.2767
15377TIP3   OH267621   3.666   4.071  11.061 -0.2026  0.7938  0.0086
15377TIP3    H167622   3.750   4.051  11.019 -0.6279 -2.1115  0.4232
15377TIP3    H267623   3.677   4.042  11.151 -1.0073  2.2592  0.5902
15378TIP3   OH267624   2.091   0.923   0.594 -0.4437  0.2383 -0.2054
15378TIP3    H167625   2.077   0.847   0.651  1.1157  0.0035 -0.1122
15378TIP3    H267626   2.185   0.940   0.600 -0.4666  0.9656 -1.7724
15379TIP3   OH267627   4.911   0.146  14.569  0.3587  0.6466  0.1004
15379TIP3    H167628   4.918   0.051  14.559 -2.4787  0.3577  0.5842
15379TIP3    H267629   4.956   0.164  14.652  2.7613  0.0345 -1.0279
15380TIP3   OH267630   0.755   1.276  11.165  0.0380 -0.0330  0.2597
15380TIP3    H167631   0.850   1.265  11.171  0.2464  1.5098  0.1078
15380TIP3    H267632   0.726   1.286  11.256  0.0462 -0.3490  0.2958
15381TIP3   OH267633   4.256   0.889  11.857 -0.1567 -0.0275  0.0713
15381TIP3    H167634   4.255   0.794  11.847 -0.2056 -0.0127 -0.0568
15381TIP3    H267635   4.185   0.920  11.801 -0.5237  0.0414  0.5770
15382TIP3   OH267636   5.778   5.935   0.202  0.1967  0.2699 -0.2862
15382TIP3    H167637   5.683   5.932   0.190 -0.0002  1.1063  0.8944
15382TIP3    H267638   5.796   5.862   0.262 -0.1823  2.2037  2.2403
15383TIP3   OH267639   3.575   0.378  14.164  0.7835 -0.1974  0.0056
15383TIP3    H167640   3.537   0.311  14.107 -0.5761  1.6378 -1.2523
15383TIP3    H267641   3.659   0.399  14.124  0.5318 -0.0539 -0.4476
15384TIP3   OH267642   3.204   3.739   1.340  0.0063  0.3506 -0.6063
15384TIP3    H167643   3.205   3.729   1.435 -1.3659 -0.6816 -0.6841
15384TIP3    H267644   3.203   3.649   1.306 -1.8633  0.6871 -1.5330
15385TIP3   OH267645   2.956   4.665  15.690 -0.3824  0.2775 -0.0345
15385TIP3    H167646   2.868   4.701  15.677 -0.8860 -0.4936  1.1478
15385TIP3    H267647   2.997   4.723  15.754  0.4605  1.4107 -1.5738
15386TIP3   OH267648   5.017   0.122  14.823 -0.2849 -0.4945 -0.0192
15386TIP3    H167649   4.947   0.076  14.868  0.8466 -2.2412 -0.0099
15386TIP3    H267650   5.095   0.106  14.876  0.4661 -0.0635 -0.9721
15387TIP3   OH267651   5.592   1.844  15.720 -0.6698  0.2994  0.2148
15387TIP3    H167652   5.532   1.915  15.695 -2.2902 -1.5167 -1.2545
15387TIP3    H267653   5.536   1.782  15.767  0.3704 -0.7794  0.0278
15388TIP3   OH267654   2.404   3.512   5.524 -0.5328  0.1619 -0.2570
15388TIP3    H167655   2.360   3.596   5.517  0.9684  1.0234  0.2993
15388TIP3    H267656   2.484   3.522   5.472 -0.9421 -1.3515 -1.2166
15389TIP3   OH267657   3.850   3.554  13.825 -0.7763 -0.0267 -0.0116
15389TIP3    H167658   3.908   3.624  13.797 -1.5747  1.3510  1.6472
15389TIP3    H267659   3.821   3.512  13.743  1.4787  0.0921 -0.9020
15390TIP3   OH267660   3.822   4.416   1.091  0.1932 -0.1448 -0.0596
15390TIP3    H167661   3.804   4.348   1.027 -1.5102  0.3864 -0.1548
15390TIP3    H267662   3.817   4.498   1.042 -2.7077  0.3859  1.0308
15391TIP3   OH267663   5.874   1.710   6.196 -0.0898  0.0294  0.0216
15391TIP3    H167664   5.946   1.666   6.242 -0.8417 -2.2107 -0.8797
15391TIP3    H267665   5.916   1.750   6.119  0.4191 -0.1038  0.2256
15392TIP3   OH267666   3.588   5.539   0.994  0.1871 -0.2880 -0.1315
15392TIP3    H167667   3.557   5.453   1.024  1.3439 -0.4742  0.5601
15392TIP3    H267668   3.675   5.548   1.033  0.5547  0.7013 -1.1458
15393TIP3   OH267669   5.314   1.245  17.099  0.3325 -0.0986  0.0132
15393TIP3    H167670   5.340   1.308  17.166  1.3174 -1.5620  1.0317
15393TIP3    H267671   5.257   1.183  17.145 -3.8122  2.1110 -1.8126
15394TIP3   OH267672   2.726   1.017   1.231  0.2776  0.4733  0.4272
15394TIP3    H167673   2.690   1.037   1.144 -1.1326  0.6700  1.0531
15394TIP3    H267674   2.662   0.960   1.271  0.6121  0.9066  1.5972
15395TIP3   OH267675   5.038   2.387   4.920 -0.5198  0.1752 -0.2685
15395TIP3    H167676   4.959   2.442   4.918 -1.3059 -0.9627 -1.2129
15395TIP3    H267677   5.110   2.447   4.905 -1.2844  1.1069 -0.2311
15396TIP3   OH267678   1.524   4.307   5.711  0.2046 -0.0378  0.1714
15396TIP3    H167679   1.615   4.326   5.688  1.0011 -2.1300  1.3883
15396TIP3    H267680   1.486   4.273   5.630  0.6700  0.3027 -0.1966
15397TIP3   OH267681   4.132   4.040   2.311  0.2819 -0.0953 -0.0770
15397TIP3    H167682   4.137   3.992   2.228 -0.7505  0.2241 -0.3269
15397TIP3    H267683   4.175   4.123   2.294  2.7005 -1.1750  0.5505
15398TIP3   OH267684   4.088   2.496  17.217  0.4667  0.2038 -0.3111
15398TIP3    H167685   4.061   2.405  17.204  2.1412 -0.1517 -1.5457
15398TIP3    H267686   4.092   2.506  17.313 -2.8037 -0.0272 -0.0971
15399TIP3   OH267687   0.157   5.284  13.321  0.0388  0.4243 -0.3753
15399TIP3    H167688   0.236   5.240  13.292  0.0451 -0.3468  0.8175
15399TIP3    H267689   0.101   5.215  13.356 -1.7519  0.7526 -2.4513
15400TIP3   OH267690   0.781   6.551   2.439 -0.0152 -0.1818  0.4285
15400TIP3    H167691   0.846   6.620   2.447  0.4837 -0.4874 -0.8768
15400TIP3    H267692   0.708   6.581   2.492 -0.3344  1.9764 -1.1502
15401TIP3   OH267693   2.322   1.791   0.775  0.1645 -0.5349 -0.3732
15401TIP3    H167694   2.228   1.786   0.757 -0.4227  1.4344  2.0207
15401TIP3    H267695   2.358   1.837   0.699 -0.5015 -2.6840 -2.0809
15402TIP3   OH267696   0.984   1.317  15.333  0.1045  0.2958  0.3104
15402TIP3    H167697   0.945   1.378  15.271 -1.3966  0.5470  1.4574
15402TIP3    H267698   1.074   1.306  15.303 -0.3296  1.1274 -1.3503
15403TIP3   OH267699   1.972   5.049   0.071  0.1459 -0.0983  0.1310
15403TIP3    H167700   2.023   4.968   0.072  0.5692  0.1630 -0.3855
15403TIP3    H267701   2.037   5.119   0.074 -0.1694  0.2356 -0.8260
15404TIP3   OH267702   4.743   1.944   2.970 -0.1399 -0.1629 -0.2327
15404TIP3    H167703   4.793   1.869   3.003 -0.0095  0.0450  0.0493
15404TIP3    H267704   4.807   1.996   2.921 -0.8459 -1.6611 -2.8045
15405TIP3   OH267705   5.142   6.488   0.298  0.1755  0.5894 -0.1582
15405TIP3    H167706   5.176   6.426   0.234 -2.6273 -0.4793 -0.6957
15405TIP3    H267707   5.158   6.574   0.259  0.9935  0.0572 -1.0052
15406TIP3   OH267708   3.413   1.910   1.469  0.1457  0.4592  0.4259
15406TIP3    H167709   3.456   1.904   1.555  0.1464 -0.8115  0.3516
15406TIP3    H267710   3.326   1.874   1.483 -0.5833  2.1350  0.3442
15407TIP3   OH267711   4.671   6.336  15.520 -0.1041  0.2089 -0.2101
15407TIP3    H167712   4.707   6.289  15.445 -0.3643 -0.4158  0.0592
15407TIP3    H267713   4.577   6.341  15.503 -0.2178 -0.2785  0.2675
15408TIP3   OH267714   5.626   5.704   4.655 -0.3985  0.0917 -0.1617
15408TIP3    H167715   5.555   5.722   4.594  0.1731 -0.4921 -1.0067
15408TIP3    H267716   5.634   5.608   4.655  1.2080  0.2141 -1.0217
15409TIP3   OH267717   0.612   3.455  12.324  0.2896 -0.0204  0.8106
15409TIP3    H167718   0.523   3.470  12.292 -0.1497 -1.7432  1.1929
15409TIP3    H267719   0.668   3.494  12.256 -0.7432  1.1788  0.6226
15410TIP3   OH267720   6.528   0.117   4.564  0.0889 -0.1997  0.0756
15410TIP3    H167721   6.524   0.128   4.659 -1.4625 -1.7727  0.2025
15410TIP3    H267722   6.474   0.188   4.529 -1.3636 -1.0937  0.4782
15411TIP3   OH267723   5.360   1.522  14.716  0.2169 -0.3552  0.1665
15411TIP3    H167724   5.411   1.443  14.733  1.9316  1.0073  1.4765
15411TIP3    H267725   5.365   1.533  14.621  1.1900 -1.0104  0.1340
15412TIP3   OH267726   0.373   1.007   0.888 -0.0721  0.3244  0.3245
15412TIP3    H167727   0.461   0.975   0.907 -0.3672 -0.6531  0.0936
15412TIP3    H267728   0.382   1.102   0.883  1.3690  0.1142 -1.6594
15413TIP3   OH267729   1.273   2.714   0.894  0.4729  0.3093 -0.0303
15413TIP3    H167730   1.242   2.778   0.958  0.1655  1.3686 -1.2353
15413TIP3    H267731   1.325   2.765   0.833  2.4519 -1.0277  0.4958
15414TIP3   OH267732   2.603   2.258  12.210  0.1811 -0.0085  0.2294
15414TIP3    H167733   2.585   2.329  12.271 -1.0761 -0.7542  0.7336
15414TIP3    H267734   2.683   2.217  12.244 -0.0844  0.0525  0.9296
15415TIP3   OH267735   2.821   4.110   2.462 -0.0827 -0.6504 -0.0813
15415TIP3    H167736   2.847   4.039   2.403  0.9561 -0.6016  0.3048
15415TIP3    H267737   2.754   4.071   2.517  2.4182 -2.2113  1.9862
15416TIP3   OH267738   5.572   1.878   2.225  0.2049  0.0415  0.0678
15416TIP3    H167739   5.585   1.812   2.293 -0.0803  0.0338  0.1142
15416TIP3    H267740   5.646   1.867   2.166 -0.3789 -0.9830 -0.4777
15417TIP3   OH267741   4.363   5.086   1.012 -0.0886 -0.3493  0.1191
15417TIP3    H167742   4.435   5.120   0.959  0.6390 -0.7587  0.8345
15417TIP3    H267743   4.405   5.034   1.080 -1.0591 -0.5590  0.5767
15418TIP3   OH267744   3.584   1.834   2.424  0.0669  0.1730 -0.0434
15418TIP3    H167745   3.634   1.911   2.451 -0.7120  1.9913 -3.5219
15418TIP3    H267746   3.647   1.777   2.381 -0.3152  1.2814 -2.1137
15419TIP3   OH267747   3.212   6.527   6.303  0.1189  0.1164  0.5059
15419TIP3    H167748   3.214   6.456   6.238 -0.0586  1.1011 -0.5986
15419TIP3    H267749   3.133   6.577   6.281  0.4750  0.9033  0.9928
15420TIP3   OH267750   3.465   2.983  17.125  0.3119 -0.1503 -0.5757
15420TIP3    H167751   3.509   3.042  17.064  1.5846 -1.5690 -1.0908
15420TIP3    H267752   3.378   2.971  17.088  0.6286  0.0469 -1.4098
15421TIP3   OH267753   4.571   2.524   0.074  0.0901  0.5661  0.2662
15421TIP3    H167754   4.595   2.588   0.141  1.8451 -1.5667  1.7200
15421TIP3    H267755   4.538   2.449   0.122  0.8035 -0.7764 -1.2696
15422TIP3   OH267756   0.362   3.830  14.668 -0.1018 -0.2510 -0.1387
15422TIP3    H167757   0.447   3.794  14.696  0.2833  1.4990  1.0047
15422TIP3    H267758   0.297   3.777  14.715  0.3985 -0.6211  0.1468
15423TIP3   OH267759   3.871   2.454  16.578 -0.4945 -0.1446  0.7479
15423TIP3    H167760   3.926   2.394  16.628 -1.6657 -0.6670  1.4552
15423TIP3    H267761   3.932   2.514  16.536  0.7466 -2.1196 -0.3884
15424TIP3   OH267762   0.069   5.675   5.256  0.1479 -0.3689 -0.4166
15424TIP3    H167763   0.090   5.768   5.256 -0.1412 -0.3033 -1.1939
15424TIP3    H267764  -0.005   5.667   5.196 -1.0628 -0.8180  1.1147
15425TIP3   OH267765   5.893   1.844  13.410 -0.5753 -0.3081  0.0323
15425TIP3    H167766   5.978   1.801  13.408  0.0088  0.6938  1.8437
15425TIP3    H267767   5.844   1.797  13.477 -2.4996 -2.6824 -2.9100
15426TIP3   OH267768   3.823   3.430   4.222  0.1244  0.3568 -0.1598
15426TIP3    H167769   3.863   3.503   4.270 -1.1525  1.6395 -1.0172
15426TIP3    H267770   3.782   3.376   4.289  0.7284  0.6317  0.4378
15427TIP3   OH267771   3.143   4.092   4.079 -0.0776  0.1697  0.7345
15427TIP3    H167772   3.093   4.038   4.140 -1.4229  2.5325  1.7624
15427TIP3    H267773   3.161   4.034   4.005 -0.7473 -1.9299  2.1737
15428TIP3   OH267774   5.611   3.401  15.003  0.2740  0.4608 -0.2946
15428TIP3    H167775   5.689   3.456  14.988 -0.4797  1.6472  0.0642
15428TIP3    H267776   5.572   3.437  15.083  0.0149 -0.9068  0.2130
15429TIP3   OH267777   6.308   6.402   6.306 -0.3112 -0.1393 -0.2795
15429TIP3    H167778   6.255   6.323   6.303  0.4604 -0.6961  0.7241
15429TIP3    H267779   6.395   6.373   6.334  0.2921  0.8932 -1.0135
15430TIP3   OH267780   1.828   3.818   1.315 -0.6597 -0.1149 -0.3230
15430TIP3    H167781   1.900   3.764   1.347  1.6355  3.0716  0.1469
15430TIP3    H267782   1.855   3.845   1.227  1.0454  4.8249  1.5282
15431TIP3   OH267783   6.804   2.981  14.528  0.9107 -0.4468  0.6402
15431TIP3    H167784   6.899   2.975  14.536  0.9846  1.1964  1.1259
15431TIP3    H267785   6.780   3.056  14.582 -0.0930  2.1923 -3.2150
15432TIP3   OH267786   3.271   2.485  15.594  0.0674 -0.1666  0.0301
15432TIP3    H167787   3.313   2.552  15.541  1.1668  0.5070  1.6937
15432TIP3    H267788   3.178   2.505  15.590  0.3932  1.5327  0.5675
15433TIP3   OH267789   5.578   1.525  12.865  0.0727  0.0370  0.1503
15433TIP3    H167790   5.660   1.483  12.842  0.0526  0.3376 -0.4752
15433TIP3    H267791   5.518   1.453  12.882 -0.5786 -0.2574 -3.0427
15434TIP3   OH267792   0.739   0.028   0.778 -0.4991  0.4434 -0.5010
15434TIP3    H167793   0.657   0.062   0.742 -0.9939 -0.7235 -0.4813
15434TIP3    H267794   0.799   0.027   0.704 -1.0098 -0.3332 -0.9062
15435TIP3   OH267795   3.875   3.894  15.927  0.5579  0.1931  0.6231
15435TIP3    H167796   3.873   3.803  15.896  1.1350  0.2729  0.3418
15435TIP3    H267797   3.882   3.887  16.022  1.5553 -0.0537  0.5316
15436TIP3   OH267798   1.488   5.757   1.064  0.3923  0.2378  0.2450
15436TIP3    H167799   1.419   5.693   1.082  0.3739  0.3820  0.6855
15436TIP3    H267800   1.463   5.835   1.113  0.0106  0.8506 -0.9021
15437TIP3   OH267801   5.896   2.356  13.321 -0.6802  0.2104  0.2170
15437TIP3    H167802   5.958   2.377  13.391  0.8744 -0.5501 -0.9101
15437TIP3    H267803   5.875   2.263  13.334 -0.6584  0.1578 -0.1470
15438TIP3   OH267804   3.768   1.396  17.029 -0.0100 -0.4388 -0.0216
15438TIP3    H167805   3.712   1.342  17.085 -0.7241 -1.0495 -1.3059
15438TIP3    H267806   3.786   1.474  17.082  0.3525 -1.5542  1.5336
15439TIP3   OH267807   3.873   1.322  16.084  0.2439  0.1139 -0.2249
15439TIP3    H167808   3.820   1.310  16.005  0.9306 -0.4342 -0.6126
15439TIP3    H267809   3.889   1.417  16.087 -1.0759  0.3422  0.1199
15440TIP3   OH267810   1.506   5.684   2.619 -0.3676 -0.0706  0.9837
15440TIP3    H167811   1.509   5.597   2.657  0.0604 -0.6135 -0.2608
15440TIP3    H267812   1.593   5.696   2.580 -0.9693  0.2339 -0.2934
15441TIP3   OH267813   2.305   0.146   0.292 -0.0219  0.0231 -0.5661
15441TIP3    H167814   2.325   0.057   0.262 -0.1239 -1.4793  3.5190
15441TIP3    H267815   2.212   0.157   0.274 -0.0867 -0.8278 -0.7870
15442TIP3   OH267816   2.936   2.684   2.430  0.2541 -0.0189  0.6527
15442TIP3    H167817   2.866   2.625   2.400  0.1131 -0.2775  1.4898
15442TIP3    H267818   2.918   2.767   2.386 -0.4203 -0.1666  0.6450
15443TIP3   OH267819   2.292   1.064  11.583 -0.1583 -0.0651 -0.4423
15443TIP3    H167820   2.370   1.120  11.584 -0.4948  0.4395 -1.5588
15443TIP3    H267821   2.219   1.124  11.573 -0.5563 -0.6611 -1.2067
15444TIP3   OH267822   6.103   3.084   3.453  0.3184  0.0298 -0.3774
15444TIP3    H167823   6.118   3.121   3.540 -0.2504  1.6804 -0.9529
15444TIP3    H267824   6.008   3.070   3.449  0.5139 -1.3703 -0.2186
15445TIP3   OH267825   5.723   0.973   3.839  0.0938 -0.3018 -0.4946
15445TIP3    H167826   5.708   0.883   3.869  2.5205 -0.6822 -0.3275
15445TIP3    H267827   5.801   1.002   3.887 -0.7851  2.0001 -0.3641
15446TIP3   OH267828   3.172   5.804  16.453 -0.0392  0.2345  0.3273
15446TIP3    H167829   3.248   5.854  16.482  1.4639 -1.0321 -1.2935
15446TIP3    H267830   3.130   5.859  16.387 -1.2531  1.4458  2.0515
15447TIP3   OH267831   2.413   5.059   5.509 -0.3300  0.7679  0.0662
15447TIP3    H167832   2.453   5.061   5.421 -0.6171 -0.1760 -0.0954
15447TIP3    H267833   2.352   5.133   5.509 -0.3407  0.7669 -0.5382
15448TIP3   OH267834   1.773   5.581  14.951  0.6471  0.0815 -0.3381
15448TIP3    H167835   1.805   5.626  15.029  2.4782  0.6120 -1.3633
15448TIP3    H267836   1.795   5.640  14.879 -2.3307  0.2704 -1.1438
15449TIP3   OH267837   6.306   2.352  14.613 -0.0341 -0.7631  0.3330
15449TIP3    H167838   6.217   2.376  14.588  0.8185  0.9917 -1.1124
15449TIP3    H267839   6.326   2.410  14.686  1.0484  1.1273 -1.4127
15450TIP3   OH267840   5.048   5.866  11.782  0.5253 -0.0114 -0.4614
15450TIP3    H167841   5.131   5.882  11.827 -0.3751 -1.1071  1.6327
15450TIP3    H267842   4.997   5.945  11.797  1.2394  0.7631 -1.9513
15451TIP3   OH267843   2.422   2.110  12.038 -0.2543  0.2026  0.1084
15451TIP3    H167844   2.485   2.163  12.087 -1.3052  0.5872  1.0706
15451TIP3    H267845   2.337   2.132  12.077 -0.8303 -1.3333 -0.2693
15452TIP3   OH267846   6.093   3.919  16.373  0.7085 -0.5177 -0.6554
15452TIP3    H167847   6.183   3.930  16.403  0.4648 -0.8329  0.2171
15452TIP3    H267848   6.079   3.991  16.312  1.3813 -0.1562 -0.3909
15453TIP3   OH267849   6.040   5.892   3.775  1.0964 -0.1910 -0.4643
15453TIP3    H167850   6.019   5.912   3.683  2.0726  0.7571 -0.4810
15453TIP3    H267851   5.968   5.836   3.803  0.7574 -0.4594 -1.8012
15454TIP3   OH267852   0.524   5.258  14.381 -0.2427  0.3022 -0.2740
15454TIP3    H167853   0.597   5.302  14.337  0.7424 -1.5249 -0.5352
15454TIP3    H267854   0.486   5.202  14.314 -1.5494  0.8017  0.0242
15455TIP3   OH267855   3.155   3.254   4.291  0.4521 -0.2924  0.3508
15455TIP3    H167856   3.072   3.222   4.256  0.0490 -0.0155  1.0505
15455TIP3    H267857   3.130   3.321   4.355  1.2647  0.7158 -0.3876
15456TIP3   OH267858   5.863   4.122  16.255 -0.4184  0.2208  0.5782
15456TIP3    H167859   5.840   4.043  16.304 -0.7333 -0.2178 -0.2713
15456TIP3    H267860   5.841   4.102  16.165  1.9689  0.3207 -0.0557
15457TIP3   OH267861   1.850   0.710  13.394 -0.4395 -0.3757 -0.0949
15457TIP3    H167862   1.928   0.656  13.410 -0.5141  0.2122  2.4267
15457TIP3    H267863   1.875   0.798  13.424 -2.1116 -0.2294  0.9539
15458TIP3   OH267864   1.915   4.842   0.479  0.2577 -0.0845  0.1129
15458TIP3    H167865   1.835   4.804   0.443  0.6883 -0.5174 -0.4042
15458TIP3    H267866   1.907   4.936   0.464 -0.2683 -0.0976  0.3047
15459TIP3   OH267867   5.246   5.122  15.009 -0.1362 -1.3019 -0.5919
15459TIP3    H167868   5.161   5.159  15.034  0.6493 -0.0396  0.2647
15459TIP3    H267869   5.288   5.191  14.958  0.7053 -1.6322 -0.3463
15460TIP3   OH267870   0.335   4.301   1.070 -0.1605  0.1796  0.5850
15460TIP3    H167871   0.324   4.260   0.984  0.6769 -1.7256  1.3703
15460TIP3    H267872   0.246   4.329   1.094 -0.4476  0.4653 -0.7521
15461TIP3   OH267873   2.642   0.060   5.813  0.1332  0.2882 -0.3177
15461TIP3    H167874   2.703  -0.011   5.795  1.0084  0.1099  3.0476
15461TIP3    H267875   2.573   0.019   5.867  0.2899  1.7965  1.0774
15462TIP3   OH267876   6.008   3.479   4.217 -0.6773 -0.1281 -0.1907
15462TIP3    H167877   6.062   3.549   4.181 -1.7082  1.1418  0.6864
15462TIP3    H267878   6.070   3.419   4.258  0.1579  0.6765 -0.2566
15463TIP3   OH267879   4.817   6.593   3.095 -0.3001 -0.0314 -0.1060
15463TIP3    H167880   4.731   6.552   3.088 -0.1203 -0.0659 -2.6572
15463TIP3    H267881   4.867   6.557   3.022  1.0699  1.9148 -0.1734
15464TIP3   OH267882   0.421   5.077   5.766 -0.0920 -0.6673 -0.3025
15464TIP3    H167883   0.341   5.130   5.772 -0.2786 -0.6656 -2.4075
15464TIP3    H267884   0.450   5.067   5.856 -1.5966  0.6858  0.3569
15465TIP3   OH267885   5.118   1.325   3.022  0.4134  0.6563  0.1785
15465TIP3    H167886   5.083   1.281   2.946 -2.9393 -0.4788  2.2962
15465TIP3    H267887   5.201   1.280   3.041  0.5564  0.0403 -1.8971
15466TIP3   OH267888   4.070   2.187   3.965  0.1127  0.0424 -0.0593
15466TIP3    H167889   4.065   2.128   3.889  0.7321 -0.7249  0.4826
15466TIP3    H267890   4.145   2.154   4.015 -2.2106 -1.4186  2.5388
15467TIP3   OH267891   3.697   2.191   5.794  0.1845 -0.8401  0.5922
15467TIP3    H167892   3.613   2.201   5.837  0.8522  0.0372  1.7105
15467TIP3    H267893   3.736   2.278   5.794  1.4923 -1.3979  0.9462
15468TIP3   OH267894   1.341   5.276  11.109 -0.2419  0.1667  0.0312
15468TIP3    H167895   1.355   5.227  11.028 -0.3802  0.0792  0.0585
15468TIP3    H267896   1.262   5.328  11.093 -1.6899 -1.6738  0.9544
15469TIP3   OH267897   3.199   3.569  14.240 -0.0705  0.3281  0.0466
15469TIP3    H167898   3.240   3.653  14.219  1.5937 -0.1407  1.2947
15469TIP3    H267899   3.184   3.572  14.334 -2.3521  0.2239 -0.2938
15470TIP3   OH267900   4.448   0.006  11.141  0.1375  0.2042 -0.5323
15470TIP3    H167901   4.541   0.024  11.147 -0.1210  1.6799 -0.7142
15470TIP3    H267902   4.439  -0.050  11.065  0.8061  0.5730 -0.8864
15471TIP3   OH267903   0.168   6.088   3.497  0.2863  0.2885  0.2169
15471TIP3    H167904   0.193   6.179   3.480 -1.3463  0.9889  1.5035
15471TIP3    H267905   0.085   6.077   3.453 -1.6369  0.7203  3.5420
15472TIP3   OH267906   2.601   5.784   6.710  0.3496  0.4962  0.5205
15472TIP3    H167907   2.553   5.702   6.722 -1.6116  1.3039 -1.4114
15472TIP3    H267908   2.665   5.764   6.642 -1.0994  0.8891 -1.0144
15473TIP3   OH267909   3.398   5.138   3.066  0.2218  1.0933 -0.0050
15473TIP3    H167910   3.412   5.045   3.048 -0.8630  0.1598  3.5745
15473TIP3    H267911   3.485   5.174   3.080  0.7552  0.9615 -2.8292
15474TIP3   OH267912   4.475   6.761  13.753  0.2361 -0.0808 -0.0078
15474TIP3    H167913   4.455   6.774  13.845  1.2521  2.0541 -0.0618
15474TIP3    H267914   4.447   6.671  13.735  1.2542 -1.0069  2.7175
15475TIP3   OH267915   6.715   5.122  10.651 -0.0958  0.2910 -0.1865
15475TIP3    H167916   6.719   5.038  10.696 -0.8207  0.8488  0.9425
15475TIP3    H267917   6.803   5.134  10.614  0.5429 -0.1305  1.1594
15476TIP3   OH267918   0.639   4.613   5.377  0.7142 -0.1420 -0.1809
15476TIP3    H167919   0.563   4.666   5.402  1.3256  0.6427  0.0011
15476TIP3    H267920   0.651   4.630   5.284  0.0008 -1.1154 -0.4666
15477TIP3   OH267921   6.170   4.620  15.635  0.0495  0.1925 -0.0266
15477TIP3    H167922   6.244   4.638  15.576 -2.2384 -1.3662 -3.5257
15477TIP3    H267923   6.126   4.704  15.644  0.9915  0.6620  0.3298
15478TIP3   OH267924   4.640   0.096  13.364 -0.7206 -0.2766 -0.1186
15478TIP3    H167925   4.557   0.143  13.374 -0.6916 -0.3714  0.5299
15478TIP3    H267926   4.677   0.092  13.452  2.4337  4.3019 -1.0241
15479TIP3   OH267927   0.301   5.822  12.366 -0.7991  0.0891  0.5237
15479TIP3    H167928   0.235   5.758  12.340 -0.9071  0.3846  0.0697
15479TIP3    H267929   0.269   5.905  12.331 -1.2134  0.5799  2.0468
15480TIP3   OH267930   5.905   1.943   6.009  0.4066 -0.3902  0.9312
15480TIP3    H167931   5.845   1.998   6.061 -0.5683  1.5797 -2.1108
15480TIP3    H267932   5.985   1.995   6.003  0.9841 -1.2072  1.5704
15481TIP3   OH267933   0.629   5.833   1.289  0.2884 -0.8593  0.7467
15481TIP3    H167934   0.714   5.874   1.306  0.1159  0.3620 -1.1952
15481TIP3    H267935   0.606   5.791   1.372  2.6167 -0.9128  1.4070
15482TIP3   OH267936   1.617   1.968  11.704 -0.2589  0.5705  0.3238
15482TIP3    H167937   1.637   2.041  11.646  1.8296 -1.5600 -1.7755
15482TIP3    H267938   1.598   1.895  11.645 -1.9139 -0.7132  2.3579
15483TIP3   OH267939   4.849   1.822  13.347  0.1569  0.9973 -0.3390
15483TIP3    H167940   4.904   1.769  13.404  1.2354  3.2303  0.7745
15483TIP3    H267941   4.769   1.837  13.397 -0.3100  0.1306 -0.8096
15484TIP3   OH267942   0.673   3.664   5.063  0.1636  0.1292 -0.2149
15484TIP3    H167943   0.585   3.629   5.053  0.3811 -0.5032  0.0828
15484TIP3    H267944   0.666   3.724   5.137  0.0834 -0.2613  0.0977
15485TIP3   OH267945   4.565   2.588  13.787  0.4578 -0.8497 -0.0930
15485TIP3    H167946   4.567   2.681  13.763 -1.2909 -0.5755  0.7388
15485TIP3    H267947   4.606   2.586  13.874 -1.3844 -0.5510  0.7921
15486TIP3   OH267948   3.017   3.749  15.170 -0.1141  0.2476 -1.0568
15486TIP3    H167949   3.009   3.704  15.087  1.3116  0.6743 -1.4322
15486TIP3    H267950   3.067   3.690  15.226 -0.1371  0.4240 -0.8445
15487TIP3   OH267951   6.281   0.136   5.818  0.2907 -0.6141 -0.4459
15487TIP3    H167952   6.346   0.132   5.748 -0.3860  1.4994 -1.2339
15487TIP3    H267953   6.326   0.181   5.890  0.3923 -1.1412 -0.1731
15488TIP3   OH267954   6.595   4.702   5.301  0.0123 -0.0688 -0.1317
15488TIP3    H167955   6.663   4.685   5.236 -0.4543 -0.8968 -0.4112
15488TIP3    H267956   6.556   4.785   5.272 -0.5144 -0.6718 -1.2008
15489TIP3   OH267957   1.595   5.743  16.257 -0.4027  0.3902  0.0716
15489TIP3    H167958   1.626   5.813  16.314 -0.6845  0.0867  0.6068
15489TIP3    H267959   1.666   5.728  16.195 -0.4206  1.2801 -0.1669
15490TIP3   OH267960   1.263   5.681   4.502 -0.2253  0.3467  0.4999
15490TIP3    H167961   1.338   5.679   4.561  0.1106  0.8996  0.0914
15490TIP3    H267962   1.223   5.767   4.517 -1.1461 -0.1753  1.1656
15491TIP3   OH267963   0.092   2.054  15.613  0.3392  0.3706 -0.6118
15491TIP3    H167964   0.136   2.062  15.529  0.5580  1.2699 -0.4121
15491TIP3    H267965   0.162   2.060  15.678  0.1434 -0.0815 -0.3560
15492TIP3   OH267966   4.815   5.680   3.268 -0.0142  0.2898 -0.2098
15492TIP3    H167967   4.904   5.662   3.299 -0.5865  1.1332  2.0586
15492TIP3    H267968   4.818   5.663   3.174  2.7197  0.9660 -0.2820
15493TIP3   OH267969   6.280   6.487  11.430  0.4673  0.6992  0.4743
15493TIP3    H167970   6.285   6.564  11.373 -0.0025  0.0905 -0.4032
15493TIP3    H267971   6.371   6.457  11.436  0.4808  0.5705 -0.2426
15494TIP3   OH267972   3.415   0.821  11.725 -0.0646  0.0812 -0.7167
15494TIP3    H167973   3.461   0.872  11.791  0.2030 -2.0634  0.7679
15494TIP3    H267974   3.331   0.867  11.714  1.1659  2.2828 -1.2843
15495TIP3   OH267975   0.573   3.258  10.553 -0.3687  0.1016  0.6495
15495TIP3    H167976   0.667   3.273  10.564 -0.4939  1.6365 -0.3097
15495TIP3    H267977   0.562   3.166  10.575  2.2058 -1.5771 -4.2296
15496TIP3   OH267978   4.507   1.307  12.028  1.1524  0.1379 -0.3735
15496TIP3    H167979   4.433   1.275  11.976  0.8301 -1.3111  0.9567
15496TIP3    H267980   4.472   1.386  12.071  0.2785 -0.6953  0.4676
15497TIP3   OH267981   2.512   2.689  12.088 -0.3513 -0.0622  0.8750
15497TIP3    H167982   2.579   2.668  12.154  1.5547  1.6246 -0.4722
15497TIP3    H267983   2.496   2.782  12.101  0.3295  0.3702 -1.2905
15498TIP3   OH267984   3.595   3.026   2.952 -0.3068 -0.0914  0.4107
15498TIP3    H167985   3.636   3.053   2.870 -2.8037 -1.0744 -1.2141
15498TIP3    H267986   3.654   2.959   2.987  1.0870  0.7606 -0.2635
15499TIP3   OH267987   4.441   4.148   4.113 -0.0936  0.9102  0.1081
15499TIP3    H167988   4.482   4.217   4.061 -0.1120  0.6316 -0.2786
15499TIP3    H267989   4.496   4.140   4.191  1.3060 -0.3323 -0.9923
15500TIP3   OH267990   1.528   0.956   3.537 -0.2137 -0.0922  0.2425
15500TIP3    H167991   1.593   0.893   3.505  0.7836 -0.5741  3.0205
15500TIP3    H267992   1.448   0.905   3.547 -0.5784  0.1066 -1.6047
15501TIP3   OH267993   5.766   6.754   4.787 -0.2438  0.1611  0.3588
15501TIP3    H167994   5.756   6.682   4.725  1.7918  0.5053 -0.4090
15501TIP3    H267995   5.824   6.718   4.855  0.9776  1.1434 -0.1561
15502TIP3   OH267996   0.879   4.040  13.680 -0.3314  0.4749  0.0558
15502TIP3    H167997   0.872   3.950  13.648  1.5825  0.1688  0.4688
15502TIP3    H267998   0.829   4.091  13.616 -1.5838 -0.8779 -0.0908
15503TIP3   OH267999   0.049   1.801  17.167  0.2119  0.2652  0.4849
15503TIP3    H168000   0.132   1.774  17.207  0.2741  1.1674  0.9805
15503TIP3    H268001   0.072   1.821  17.076 -0.2623 -3.4786 -0.5210
15504TIP3   OH268002   5.461   1.167  12.543  0.5362 -0.3355 -0.2934
15504TIP3    H168003   5.529   1.235  12.538 -0.4090  0.4751 -2.7659
15504TIP3    H268004   5.480   1.109  12.469 -1.3280 -0.2030 -0.9062
15505TIP3   OH268005   0.914   6.367   1.238 -0.0632  0.1812  0.3241
15505TIP3    H168006   0.979   6.436   1.220 -0.9363  1.1053  0.6330
15505TIP3    H268007   0.848   6.411   1.292 -1.1681 -0.6352 -0.3572
15506TIP3   OH268008   5.617   4.845   0.687  0.2818  0.0257 -0.8209
15506TIP3    H168009   5.555   4.780   0.653 -0.8399 -0.7084  2.3636
15506TIP3    H268010   5.675   4.794   0.744  0.8008  1.4548 -0.0500
15507TIP3   OH268011   3.176   6.384  14.702 -0.0157 -0.1902  0.5402
15507TIP3    H168012   3.117   6.414  14.771 -1.0003 -0.2584 -0.2580
15507TIP3    H268013   3.126   6.394  14.621 -0.0433 -3.0784  0.1438
15508TIP3   OH268014   1.596   5.306  14.664  0.0272 -0.4201 -0.1287
15508TIP3    H168015   1.513   5.293  14.710 -0.3154  0.1439 -0.5807
15508TIP3    H268016   1.576   5.288  14.572  0.2503  0.3492 -0.3306
15509TIP3   OH268017   0.772   5.135   2.031  0.4054 -0.0053  0.1028
15509TIP3    H168018   0.774   5.039   2.029 -0.3936 -0.0304  0.1552
15509TIP3    H268019   0.688   5.158   1.992  0.1701  0.6448  0.9758
15510TIP3   OH268020   2.118   5.368   1.723 -0.2839 -0.0520 -0.3355
15510TIP3    H168021   2.078   5.337   1.642 -1.9513 -0.8191  0.7658
15510TIP3    H268022   2.157   5.453   1.699  0.1498 -0.7491 -2.1737
15511TIP3   OH268023   2.916   5.390  16.901  0.0243 -0.6753  0.1129
15511TIP3    H168024   2.870   5.381  16.984 -2.2176 -1.2649 -1.1450
15511TIP3    H268025   2.960   5.475  16.907  0.6097 -1.1018  2.2229
15512TIP3   OH268026   6.610   1.560   3.154 -0.3159  0.3062 -0.4003
15512TIP3    H168027   6.684   1.608   3.191 -2.4041  1.5314  2.3976
15512TIP3    H268028   6.603   1.591   3.064  2.4952  0.2143 -0.6883
15513TIP3   OH268029   2.000   4.370  13.268 -0.4236  0.0596 -0.0155
15513TIP3    H168030   1.999   4.363  13.173  1.3376 -0.0078 -0.0330
15513TIP3    H268031   1.934   4.307  13.297  0.6912 -1.6431 -1.0992
15514TIP3   OH268032   5.615   1.176   5.044  0.3452  0.0987 -0.1326
15514TIP3    H168033   5.688   1.234   5.065 -0.1730  1.0107 -0.7986
15514TIP3    H268034   5.605   1.121   5.121  4.5971 -3.1423 -1.6672
15515TIP3   OH268035   5.702   6.294   3.602 -0.4190 -0.2770 -0.7221
15515TIP3    H168036   5.759   6.243   3.544 -1.4773 -0.6111 -1.4796
15515TIP3    H268037   5.635   6.331   3.544  0.1584  1.7467 -0.1437
15516TIP3   OH268038   2.258   2.484  16.726 -0.0200  0.3880  0.3426
15516TIP3    H168039   2.287   2.486  16.817  1.8794 -0.7799 -0.2025
15516TIP3    H268040   2.200   2.409  16.721 -0.8610  0.9927  0.7749
15517TIP3   OH268041   2.530   0.358   4.781 -0.0992 -0.2171  0.0825
15517TIP3    H168042   2.601   0.312   4.734  0.9689  0.0496  1.3968
15517TIP3    H268043   2.570   0.384   4.864 -1.4305  0.9359  0.3711
15518TIP3   OH268044   2.997   0.882  14.717  0.3782 -0.3284 -0.0824
15518TIP3    H168045   3.071   0.823  14.707  0.0242 -0.7373 -0.3392
15518TIP3    H268046   3.011   0.925  14.801  0.1919 -1.4249  0.5191
15519TIP3   OH268047   6.267   0.748   4.229 -0.7091 -0.0684  0.4067
15519TIP3    H168048   6.175   0.724   4.226 -0.5140 -0.8401  0.6066
15519TIP3    H268049   6.283   0.790   4.144 -0.8811 -1.2512 -0.2174
15520TIP3   OH268050   5.691   4.911  11.880 -0.0390 -0.0385 -0.3968
15520TIP3    H168051   5.719   5.001  11.898  0.2037 -0.1257 -0.3427
15520TIP3    H268052   5.600   4.920  11.852 -0.8105 -0.0110  2.0058
15521TIP3   OH268053   1.964   2.358  12.822 -0.3307  0.6843 -0.0432
15521TIP3    H168054   1.952   2.264  12.805  0.0706  0.9235 -1.6817
15521TIP3    H268055   2.059   2.369  12.824 -0.3719  1.3746 -1.6617
15522TIP3   OH268056   2.929   3.451  12.979 -0.4083 -0.3225  0.6099
15522TIP3    H168057   2.964   3.523  12.927  0.5677 -0.9319  0.4254
15522TIP3    H268058   2.954   3.471  13.069  0.2075 -0.6281  0.5091
15523TIP3   OH268059   6.317   0.319  15.445 -0.0736 -0.5970 -0.5667
15523TIP3    H168060   6.315   0.253  15.376 -0.5938 -0.0073 -1.1182
15523TIP3    H268061   6.366   0.393  15.407 -0.3857 -0.2596 -0.3179
15524TIP3   OH268062   4.910   4.057  13.805  0.3820  0.2034 -0.4399
15524TIP3    H168063   4.986   4.015  13.764  0.3598 -0.5271  0.2673
15524TIP3    H268064   4.947   4.110  13.876  0.2283 -0.2268 -0.0345
15525TIP3   OH268065   1.363   0.360   0.402 -0.1899 -0.1872  0.3248
15525TIP3    H168066   1.286   0.340   0.455  0.3279 -0.9213  0.8029
15525TIP3    H268067   1.432   0.378   0.465 -0.0404  0.7836 -0.1046
15526TIP3   OH268068   1.445   1.248  16.461  0.0457  0.2152 -0.2625
15526TIP3    H168069   1.366   1.287  16.424 -0.1637 -0.1571 -0.2112
15526TIP3    H268070   1.444   1.158  16.430  0.8308  0.4025 -0.8593
15527TIP3   OH268071   4.306   6.164   1.420  0.1327 -0.2946 -0.0673
15527TIP3    H168072   4.327   6.071   1.431 -1.2505 -0.4516  1.5826
15527TIP3    H268073   4.310   6.200   1.509  1.2623  1.3828 -0.7614
15528TIP3   OH268074   3.938   6.696   2.876 -0.1448 -0.7042  0.2441
15528TIP3    H168075   3.983   6.722   2.795 -1.5935  1.1664  0.0037
15528TIP3    H268076   4.004   6.704   2.944  0.3466  0.4225 -0.3496
15529TIP3   OH268077   0.598   1.665   5.055  0.4013  0.1178 -1.0258
15529TIP3    H168078   0.660   1.726   5.094 -0.6642  0.4652  0.1445
15529TIP3    H268079   0.521   1.719   5.034 -1.1909 -1.0645  1.5040
15530TIP3   OH268080   4.468   6.079   3.218  0.9365 -0.1898  0.4532
15530TIP3    H168081   4.517   6.036   3.148 -1.1586  0.7062 -1.6259
15530TIP3    H268082   4.534   6.100   3.284  3.0872 -0.3918 -1.5618
15531TIP3   OH268083   4.382   5.141  14.384  0.3229 -0.0955 -0.7135
15531TIP3    H168084   4.426   5.214  14.426 -0.8531 -0.0893  0.5236
15531TIP3    H268085   4.365   5.171  14.294 -0.9243  1.4734  0.0311
15532TIP3   OH268086   1.960   2.789  11.745 -0.2529  0.1252  0.5314
15532TIP3    H168087   1.880   2.839  11.760  0.0104  1.1385 -1.2748
15532TIP3    H268088   1.934   2.698  11.760 -1.9005  0.3906 -0.4979
15533TIP3   OH268089   4.563   0.300  10.586  0.4455 -0.4412  0.0242
15533TIP3    H168090   4.607   0.379  10.554  0.5583 -1.5247 -2.5799
15533TIP3    H268091   4.470   0.324  10.587  0.5979  0.1584  0.5953
15534TIP3   OH268092   0.102   3.994   2.515  0.1682  0.6817 -0.1489
15534TIP3    H168093   0.093   3.997   2.420 -1.5352  1.5810  0.0248
15534TIP3    H268094   0.046   4.064   2.547  1.0064  0.6211  1.5142
15535TIP3   OH268095   0.050   1.186   0.368 -0.3125 -0.4430 -0.2820
15535TIP3    H168096   0.048   1.091   0.378 -2.2583 -0.6769 -2.3860
15535TIP3    H268097   0.036   1.220   0.457 -2.2218 -2.1607  0.1292
15536TIP3   OH268098   4.876   6.436   0.429 -0.5046 -0.2470 -0.4020
15536TIP3    H168099   4.929   6.459   0.505  1.2976  0.0251 -1.6918
15536TIP3    H268100   4.838   6.351   0.451  1.4394 -1.0298  0.1058
15537TIP3   OH268101   4.240   4.955  17.117 -0.0575  0.6607  0.4239
15537TIP3    H168102   4.219   5.042  17.083  0.6427  0.2922 -0.9971
15537TIP3    H268103   4.185   4.896  17.067 -0.3402  0.2624  1.2026
15538TIP3   OH268104   5.339   1.324   3.553 -0.0836 -0.1930 -0.1798
15538TIP3    H168105   5.412   1.372   3.592  0.2207 -0.1763 -0.7567
15538TIP3    H268106   5.364   1.231   3.561 -1.2893 -0.3448  2.1569
15539TIP3   OH268107   6.381   5.474  13.947 -0.2680 -0.1189  0.3748
15539TIP3    H168108   6.430   5.553  13.924 -1.0643  0.9205  2.1668
15539TIP3    H268109   6.298   5.483  13.900 -0.4056  0.1685  0.6736
15540TIP3   OH268110   0.355   3.734   5.068  0.3628  0.3864  0.0324
15540TIP3    H168111   0.407   3.786   5.130  0.4729 -0.0846  0.3338
15540TIP3    H268112   0.265   3.764   5.081  0.5060  0.9575 -0.2471
15541TIP3   OH268113   5.264   1.316  16.031 -0.3348  0.3701 -0.3816
15541TIP3    H168114   5.192   1.375  16.053 -1.5668 -0.2665 -2.5637
15541TIP3    H268115   5.262   1.310  15.935  1.2304 -1.3915 -0.3325
15542TIP3   OH268116   0.359   6.335   1.610 -0.2702 -0.3335 -0.2247
15542TIP3    H168117   0.391   6.378   1.689 -2.3939  1.1397 -0.1334
15542TIP3    H268118   0.397   6.386   1.538  0.1438 -0.5439 -0.1604
15543TIP3   OH268119   3.289   5.573   4.313  0.5664 -0.4908 -0.2808
15543TIP3    H168120   3.194   5.578   4.301  0.5663 -2.9719 -1.6056
15543TIP3    H268121   3.322   5.656   4.279 -0.8213 -1.1648 -3.4468
15544TIP3   OH268122   0.987   3.831   4.135  0.5377  0.2231  0.5191
15544TIP3    H168123   0.940   3.911   4.111  0.9749  0.5780  0.8526
15544TIP3    H268124   1.066   3.832   4.081  1.3863  0.8820  1.7572
15545TIP3   OH268125   0.453   5.741  13.136  0.2695  0.0248 -0.2614
15545TIP3    H168126   0.521   5.682  13.167 -0.2418  0.1311  1.1462
15545TIP3    H268127   0.385   5.684  13.102 -0.0928 -0.2146  0.8241
15546TIP3   OH268128   0.344   3.794  12.810  0.0724  0.1948 -0.3367
15546TIP3    H168129   0.277   3.788  12.878  0.2320  1.5637 -0.0516
15546TIP3    H268130   0.388   3.709  12.812 -1.9004 -0.8698 -0.8032
15547TIP3   OH268131   2.091   1.579  14.377  0.0324  0.3371  1.0600
15547TIP3    H168132   2.038   1.509  14.416  0.0203 -0.7959 -0.9167
15547TIP3    H268133   2.026   1.641  14.343 -0.0224 -0.1618  0.2295
15548TIP3   OH268134   5.673   5.103   5.495  0.3258  0.3388 -0.1926
15548TIP3    H168135   5.601   5.045   5.472  0.7102  1.2661 -4.1946
15548TIP3    H268136   5.631   5.183   5.526 -0.2730 -0.4161  0.9603
15549TIP3   OH268137   0.543   3.814   1.294 -0.3589  0.8139  0.5547
15549TIP3    H168138   0.575   3.758   1.365  0.9569 -1.0659 -1.4935
15549TIP3    H268139   0.452   3.789   1.283  0.6746 -2.2214 -1.5147
15550TIP3   OH268140   6.410   5.597   4.218  0.4873 -0.7038  0.1298
15550TIP3    H168141   6.360   5.669   4.180  2.2236  0.7016  0.4025
15550TIP3    H268142   6.429   5.538   4.145 -1.3911 -1.1742 -0.0010
15551TIP3   OH268143   1.789   6.687  11.948 -0.2338 -0.2612 -0.0082
15551TIP3    H168144   1.810   6.662  11.857  0.6027  0.0026  0.1135
15551TIP3    H268145   1.862   6.653  11.999  0.9306  2.3949  0.1771
15552TIP3   OH268146   2.385   6.470  14.331 -0.2109  0.3200 -0.0800
15552TIP3    H168147   2.377   6.492  14.424 -2.4272  0.8245 -0.3618
15552TIP3    H268148   2.295   6.458  14.301  0.4280  0.8643 -2.3347
15553TIP3   OH268149   3.107   0.684  14.395  0.3853  0.0044 -0.3093
15553TIP3    H168150   3.146   0.738  14.464  0.8992  0.1077 -0.6708
15553TIP3    H268151   3.168   0.611  14.384  0.0756 -0.2508 -0.3441
15554TIP3   OH268152   4.087   2.879  12.686  0.0431 -0.1748  0.2758
15554TIP3    H168153   4.115   2.911  12.600  1.5545 -1.1614  0.3630
15554TIP3    H268154   4.061   2.788  12.671 -3.7063  0.8486  0.1221
15555TIP3   OH268155   4.674   3.597   3.209 -0.5920 -0.0109 -0.0904
15555TIP3    H168156   4.608   3.595   3.279  0.0181 -0.4881  0.4633
15555TIP3    H268157   4.622   3.593   3.128 -1.3361  1.1548  0.3070
15556TIP3   OH268158   2.941   4.020   4.283 -0.1166  0.2680  0.2158
15556TIP3    H168159   2.887   3.943   4.295  1.2182 -1.0369 -1.7342
15556TIP3    H268160   2.880   4.089   4.259 -1.2868 -0.2638  1.6546
15557TIP3   OH268161   1.200   4.956  14.097  0.1888  0.2004  0.3307
15557TIP3    H168162   1.210   4.867  14.065 -1.7629  0.3985 -0.8857
15557TIP3    H268163   1.280   5.001  14.067  0.1700 -0.5926 -0.9690
15558TIP3   OH268164   1.646   0.114   2.985 -0.7439  0.2517  0.1485
15558TIP3    H168165   1.590   0.191   2.996 -0.2620  0.4880  0.9688
15558TIP3    H268166   1.721   0.146   2.934 -0.4371  0.3777  0.6782
15559TIP3   OH268167   2.706   1.361  13.375  0.3159 -0.2600 -0.5186
15559TIP3    H168168   2.688   1.446  13.334 -0.9542  1.1310  2.6871
15559TIP3    H268169   2.629   1.308  13.356 -1.1977  1.0652  1.6714
15560TIP3   OH268170   0.458   4.274   4.953  0.5325  0.4926 -0.2736
15560TIP3    H168171   0.463   4.367   4.974 -0.4521  0.4905  0.0250
15560TIP3    H268172   0.516   4.262   4.879  1.1671  1.2231  0.1085
15561TIP3   OH268173   1.327   4.563   2.392 -0.2039  0.2418  0.5991
15561TIP3    H168174   1.319   4.471   2.368  0.9914  0.0118  1.0443
15561TIP3    H268175   1.242   4.586   2.430  0.1148 -1.1977  2.2309
15562TIP3   OH268176   4.653   6.568   3.760 -0.3579 -0.0018  0.3765
15562TIP3    H168177   4.697   6.651   3.745  0.9910 -0.6902  0.4545
15562TIP3    H268178   4.711   6.503   3.721 -0.3298 -1.1282  2.2508
15563TIP3   OH268179   6.536   6.453   1.587  0.2475 -0.0680  0.5626
15563TIP3    H168180   6.508   6.395   1.515 -0.2375  0.3829  0.3842
15563TIP3    H268181   6.629   6.436   1.596  0.5024  0.5216 -0.7796
15564TIP3   OH268182   0.849   4.579  10.904 -0.4970 -0.0381  0.0544
15564TIP3    H168183   0.830   4.486  10.919  1.6761 -0.4186  0.5496
15564TIP3    H268184   0.894   4.607  10.984  2.0438  0.5383 -1.5608
15565TIP3   OH268185   3.608   4.121   0.129 -0.1420  0.3715  0.2260
15565TIP3    H168186   3.529   4.161   0.166 -0.4484  0.6643 -0.7341
15565TIP3    H268187   3.593   4.122   0.034  1.0866  0.5847  0.0309
15566TIP3   OH268188   0.134   4.945  15.198 -0.3299 -0.2075 -0.6402
15566TIP3    H168189   0.151   4.983  15.285 -1.2135 -1.2367 -0.0084
15566TIP3    H268190   0.045   4.910  15.205  0.4811 -2.4043 -1.2186
15567TIP3   OH268191   1.507   4.099  16.796 -0.4449 -0.1364  1.0128
15567TIP3    H168192   1.425   4.141  16.822 -0.7493 -0.2612  0.2607
15567TIP3    H268193   1.548   4.162  16.736  1.2792  1.1232  3.4221
15568TIP3   OH268194   4.484   5.480   5.121  0.0408 -0.3668  0.1569
15568TIP3    H168195   4.423   5.468   5.194 -0.9102 -2.1085 -0.9259
15568TIP3    H268196   4.566   5.439   5.151 -0.6692 -2.0481 -0.1560
15569TIP3   OH268197   0.900   1.920  11.698 -0.0960 -0.3279 -0.0764
15569TIP3    H168198   0.926   1.941  11.787  0.4006 -1.6923  0.1166
15569TIP3    H268199   0.957   1.972  11.642 -0.4215  0.5440  0.4034
15570TIP3   OH268200   3.156   6.192   4.670 -1.0523  0.2776 -0.4149
15570TIP3    H168201   3.219   6.132   4.709  1.0403  2.7199  0.0950
15570TIP3    H268202   3.183   6.200   4.579 -0.4357  1.4965 -0.1426
15571TIP3   OH268203   4.662   6.549  10.468 -0.7159  0.3322  0.7642
15571TIP3    H168204   4.626   6.630  10.432 -0.1393  0.6788  0.9506
15571TIP3    H268205   4.677   6.569  10.560 -0.0716  0.1936  0.6950
15572TIP3   OH268206   4.584   6.268  14.638 -0.0438 -0.1937  0.3218
15572TIP3    H168207   4.497   6.234  14.655 -0.6369 -0.1508 -2.3284
15572TIP3    H268208   4.631   6.195  14.598  0.3381  0.5060 -0.5277
15573TIP3   OH268209   1.542   5.673  13.081 -0.1150 -0.0254  0.3787
15573TIP3    H168210   1.568   5.602  13.021 -0.2015  0.4418 -0.2160
15573TIP3    H268211   1.454   5.698  13.052 -0.3468 -0.1088  0.9996
15574TIP3   OH268212   4.888   0.370   5.907 -0.2168  0.8747 -0.6296
15574TIP3    H168213   4.941   0.293   5.928 -0.4147  0.9616  0.1919
15574TIP3    H268214   4.904   0.431   5.979 -0.0240  1.6261 -1.3011
15575TIP3   OH268215   3.306   4.457  15.080 -0.4606 -0.2867  0.2204
15575TIP3    H168216   3.235   4.514  15.108 -0.7542 -0.7282  0.3901
15575TIP3    H268217   3.371   4.464  15.150 -0.5968 -0.3321  0.3540
15576TIP3   OH268218   5.729   0.741  15.174 -0.7098 -0.2310 -0.0899
15576TIP3    H168219   5.691   0.821  15.210  0.8156 -0.4773  2.1744
15576TIP3    H268220   5.824   0.752  15.185 -0.3504 -1.3995 -1.8024
15577TIP3   OH268221   2.313   2.159   3.509  0.0959  0.0687  0.0064
15577TIP3    H168222   2.246   2.214   3.468  1.1898  1.1258 -0.4034
15577TIP3    H268223   2.336   2.095   3.441 -1.4113 -1.1088  0.5969
15578TIP3   OH268224   1.672   4.620   4.693  0.0074  0.3855 -0.5550
15578TIP3    H168225   1.588   4.625   4.739  0.2977  1.3685 -0.1331
15578TIP3    H268226   1.720   4.697   4.722  1.7073 -1.0317  0.4618
15579TIP3   OH268227   3.781   0.458   4.396 -0.0020 -0.0254  0.6355
15579TIP3    H168228   3.736   0.526   4.346 -0.9336  0.5427  2.2181
15579TIP3    H268229   3.839   0.505   4.456  0.7906 -0.6902  0.4179
15580TIP3   OH268230   0.827   5.904  15.548 -0.1037 -0.2020  0.0295
15580TIP3    H168231   0.765   5.966  15.588  1.0549  0.2096  1.1917
15580TIP3    H268232   0.791   5.818  15.569 -0.1394  0.0291  0.9460
15581TIP3   OH268233   4.255   4.163  12.274  0.0951 -0.0303 -0.1089
15581TIP3    H168234   4.231   4.236  12.217  2.7360 -0.0006 -1.2720
15581TIP3    H268235   4.258   4.087  12.216 -0.3036 -0.6095  0.6188
15582TIP3   OH268236   1.651   3.078   4.879  0.7284  0.0265 -0.0210
15582TIP3    H168237   1.597   3.012   4.922 -1.7351  4.0027  3.3256
15582TIP3    H268238   1.718   3.100   4.943  1.3203  1.0282 -0.9571
15583TIP3   OH268239   4.792   1.041   0.891 -0.0647 -0.8446 -0.0594
15583TIP3    H168240   4.804   1.030   0.985 -0.4774  0.9004  0.2194
15583TIP3    H268241   4.737   1.119   0.883  0.3978 -0.6710 -1.7524
15584TIP3   OH268242   0.303   6.241  12.823  0.5138  0.7357 -0.1351
15584TIP3    H168243   0.373   6.305  12.828  1.6907 -0.5240 -0.1462
15584TIP3    H268244   0.266   6.253  12.735 -0.4851  2.6018  0.5091
15585TIP3   OH268245   4.913   0.511   6.164  0.0596 -0.1443 -0.1723
15585TIP3    H168246   4.828   0.470   6.151  0.1205 -0.4239  0.2903
15585TIP3    H268247   4.895   0.603   6.178 -0.2966 -0.4711  1.5883
15586TIP3   OH268248   2.545   6.693  15.463  0.6289  0.0397 -0.0813
15586TIP3    H168249   2.591   6.677  15.381  0.0735 -1.4913 -0.1118
15586TIP3    H268250   2.611   6.680  15.531  0.8369  0.2598 -0.2449
15587TIP3   OH268251   6.540   3.049  13.440 -0.5993  0.2077  0.3188
15587TIP3    H168252   6.626   3.053  13.482 -0.9142  1.8044  0.8268
15587TIP3    H268253   6.559   3.039  13.347  0.1122 -1.2656  0.6021
15588TIP3   OH268254   3.617   6.304   4.834 -0.3547 -0.1352  0.2203
15588TIP3    H168255   3.672   6.228   4.813 -0.0130  0.7612 -2.2837
15588TIP3    H268256   3.664   6.350   4.903  0.3829 -1.1596  0.4077
15589TIP3   OH268257   1.399   1.165   4.202 -0.3745  0.2615 -0.3274
15589TIP3    H168258   1.479   1.209   4.173  0.9832 -0.7183  1.7953
15589TIP3    H268259   1.354   1.231   4.255 -0.1020  0.2509 -0.0803
15590TIP3   OH268260   6.260   3.028  16.315 -0.1814  0.0614  0.1162
15590TIP3    H168261   6.300   3.115  16.324 -0.9509  0.4473 -0.1577
15590TIP3    H268262   6.303   2.975  16.382  0.3568  0.6295  0.2282
15591TIP3   OH268263   4.004   4.921  12.372  0.4436  0.1967 -0.2422
15591TIP3    H168264   3.938   4.856  12.397  0.7565 -0.2879 -0.6640
15591TIP3    H268265   4.040   4.887  12.290 -1.7994  2.6169 -2.3211
15592TIP3   OH268266   5.404   5.380  11.365  0.3483  0.3976 -0.3570
15592TIP3    H168267   5.335   5.390  11.300  0.7196  2.7239 -0.4434
15592TIP3    H268268   5.377   5.435  11.438  0.5492 -1.2174  0.9544
15593TIP3   OH268269   5.828   0.967   5.629 -0.3441  0.1989  0.3123
15593TIP3    H168270   5.876   0.926   5.702 -1.4396  0.4561  1.1880
15593TIP3    H268271   5.755   0.908   5.612  0.4306 -0.3537 -1.2401
15594TIP3   OH268272   5.809   6.376   0.355  0.0522  0.2868  0.5409
15594TIP3    H168273   5.736   6.340   0.405 -1.4880  1.8614 -0.5312
15594TIP3    H268274   5.833   6.306   0.294 -0.0884 -0.4937  1.3679
15595TIP3   OH268275   6.533   5.928   2.775  0.2696  0.3553  1.0296
15595TIP3    H168276   6.533   6.004   2.717 -0.9270 -0.7252 -0.4169
15595TIP3    H268277   6.615   5.882   2.754  0.8238  1.0475  1.6594
15596TIP3   OH268278   6.516   0.824  12.869 -0.5420  0.6204 -0.3602
15596TIP3    H168279   6.437   0.832  12.922 -0.7863 -0.0800 -0.6191
15596TIP3    H268280   6.544   0.734  12.881  1.2880  1.3648  1.2324
15597TIP3   OH268281   4.535   5.110   2.181  0.1125 -0.1612  0.4620
15597TIP3    H168282   4.589   5.056   2.123  1.8197  1.0595  0.8721
15597TIP3    H268283   4.462   5.054   2.204  1.6158 -2.1600  0.5335
15598TIP3   OH268284   3.527   5.947  16.745  0.0571 -0.5122 -0.2583
15598TIP3    H168285   3.487   5.984  16.824  0.1938 -1.1307  0.1105
15598TIP3    H268286   3.583   5.877  16.778 -0.7318 -1.5001 -0.9867
15599TIP3   OH268287   4.619   0.424  15.449  0.6568 -0.3658  0.3537
15599TIP3    H168288   4.691   0.392  15.394 -0.5701  0.2042 -1.6515
15599TIP3    H268289   4.661   0.476  15.517  2.4783 -3.7816  1.9637
15600TIP3   OH268290   0.802   1.612   2.202 -0.0123 -0.4220 -0.2563
15600TIP3    H168291   0.737   1.635   2.135 -0.3356 -0.1853  0.1388
15600TIP3    H268292   0.750   1.590   2.279  0.3126 -2.0806 -0.5024
15601TIP3   OH268293   0.862   5.642   1.174  0.1560  0.4302  0.0409
15601TIP3    H168294   0.844   5.735   1.189 -0.0172  0.6122 -1.2240
15601TIP3    H268295   0.923   5.641   1.100 -0.5826 -0.4973 -0.5661
15602TIP3   OH268296   6.694   3.079   0.554  0.5667 -0.2770  0.5799
15602TIP3    H168297   6.765   3.016   0.565  0.6495 -0.2524  0.2134
15602TIP3    H268298   6.654   3.054   0.471 -0.1138 -0.5458  0.9878
15603TIP3   OH268299   4.331   1.168  13.091 -0.0915 -0.1055 -0.1312
15603TIP3    H168300   4.267   1.222  13.138  0.4116  1.4951 -1.2324
15603TIP3    H268301   4.298   1.164  13.002  0.9733  0.1477 -0.5488
15604TIP3   OH268302   1.013   4.361  11.744 -0.5820  0.4574  0.8086
15604TIP3    H168303   1.045   4.445  11.710  0.7389 -0.7029 -0.8992
15604TIP3    H268304   1.092   4.308  11.756 -1.5679 -1.2650 -0.1098
15605TIP3   OH268305   1.947   4.093  16.308  0.1741  0.1240  0.2595
15605TIP3    H168306   1.936   4.148  16.230 -1.3152  0.2603  0.5566
15605TIP3    H268307   1.858   4.075  16.338  0.7054 -0.8734  1.2774
15606TIP3   OH268308   5.216   3.628   0.813 -0.1043  0.8949 -0.4794
15606TIP3    H168309   5.166   3.659   0.889 -0.4620 -0.4643 -0.1570
15606TIP3    H268310   5.149   3.592   0.754  0.3412  0.5519 -0.7693
15607TIP3   OH268311   2.069   0.520   3.662 -0.8731  0.3590 -0.1499
15607TIP3    H168312   2.143   0.519   3.601 -1.2095 -0.2110 -0.5581
15607TIP3    H268313   2.108   0.496   3.746 -0.4769  0.7292 -0.2248
15608TIP3   OH268314   0.237   3.534   4.419  0.6113  0.3627  0.2277
15608TIP3    H168315   0.253   3.442   4.443 -0.7038  0.3608  1.1350
15608TIP3    H268316   0.230   3.580   4.503  0.8742  1.2355 -0.2244
15609TIP3   OH268317   1.088   2.253  13.271  0.1643 -0.5510  0.4557
15609TIP3    H168318   1.115   2.251  13.363 -1.9280  0.9152  1.1372
15609TIP3    H268319   1.019   2.320  13.267 -1.8055 -2.5906 -1.6138
15610TIP3   OH268320   3.858   2.335   3.855  0.0177 -0.1486 -0.3443
15610TIP3    H168321   3.927   2.288   3.901  1.9574  3.5318  0.7091
15610TIP3    H268322   3.779   2.319   3.908  1.5403  1.2607  2.4688
15611TIP3   OH268323   6.376   0.628   5.894  0.1998 -0.4997 -0.1269
15611TIP3    H168324   6.349   0.717   5.915  1.0646 -0.1607 -0.4477
15611TIP3    H268325   6.447   0.608   5.954  1.2245 -0.3078 -1.2509
15612TIP3   OH268326   5.254   2.677   4.160  0.6270 -0.7097  0.2370
15612TIP3    H168327   5.281   2.606   4.102  1.6696 -0.8599  0.9077
15612TIP3    H268328   5.335   2.722   4.183  0.0327  0.3809  0.2424
15613TIP3   OH268329   3.350   6.461  12.582  0.4527 -0.2882 -0.3096
15613TIP3    H168330   3.307   6.376  12.585  0.6521 -0.3950 -0.4436
15613TIP3    H268331   3.301   6.516  12.643  0.2199 -0.4511 -0.3511
15614TIP3   OH268332   1.325   4.462  11.578 -0.5793 -0.3427 -0.1580
15614TIP3    H168333   1.248   4.517  11.567  0.6235  1.6696  1.1194
15614TIP3    H268334   1.384   4.489  11.507 -1.5968 -2.9767 -2.1095
15615TIP3   OH268335   0.033   4.690   5.536 -0.2651  0.1282 -0.0538
15615TIP3    H168336   0.067   4.780   5.525 -3.8346  1.3539 -1.8491
15615TIP3    H268337   0.010   4.684   5.628 -0.1887  1.1651  0.0468
15616TIP3   OH268338   2.438   2.290   2.691 -0.0500 -0.0677 -0.0804
15616TIP3    H168339   2.441   2.308   2.785 -1.0528  1.1857 -0.2735
15616TIP3    H268340   2.387   2.209   2.684 -0.3653  0.0832  0.4317
15617TIP3   OH268341   0.185   6.183  15.040 -0.4661 -0.7233  0.2851
15617TIP3    H168342   0.216   6.239  15.111 -0.9302 -1.6649  1.2289
15617TIP3    H268343   0.223   6.097  15.059  0.3626 -0.7076 -1.2384
15618TIP3   OH268344   5.283   6.768   4.648 -0.2486  0.2526 -0.5891
15618TIP3    H168345   5.334   6.700   4.602  2.1587  0.6342  1.4194
15618TIP3    H268346   5.301   6.753   4.740 -4.6252 -0.1637  0.2981
15619TIP3   OH268347   2.779   3.307   3.663 -0.1490  0.2228  0.3509
15619TIP3    H168348   2.746   3.321   3.574  0.1632 -0.4246  0.1344
15619TIP3    H268349   2.859   3.256   3.652 -1.0628 -1.4164  1.1017
15620TIP3   OH268350   6.011   6.144  16.334  0.0542 -0.1424 -0.0231
15620TIP3    H168351   5.925   6.114  16.365  1.1391 -1.3434  1.9273
15620TIP3    H268352   6.055   6.064  16.305  0.9175  0.3266 -0.0070
15621TIP3   OH268353   1.628   4.348   4.867 -0.4440 -0.2720  0.1415
15621TIP3    H168354   1.534   4.364   4.878 -0.3094  0.6043  0.0874
15621TIP3    H268355   1.638   4.330   4.773 -0.4685  0.2856  0.0307
15622TIP3   OH268356   0.661   1.065   2.078 -0.3705 -0.9050  0.0692
15622TIP3    H168357   0.633   1.010   2.004  0.3877 -2.8051  1.1542
15622TIP3    H268358   0.755   1.051   2.084 -0.3315 -0.2592  1.0031
15623TIP3   OH268359   0.477   0.671   2.043  0.1216  0.0591 -0.1628
15623TIP3    H168360   0.509   0.582   2.028 -1.4199 -0.2090 -1.9696
15623TIP3    H268361   0.542   0.709   2.103  1.1989 -2.0192  0.0599
15624TIP3   OH268362   0.579   0.698   6.017  0.2267  0.1683 -0.0190
15624TIP3    H168363   0.605   0.686   6.108  1.3627  0.9295 -0.2316
15624TIP3    H268364   0.645   0.651   5.966 -1.2146 -1.4998 -0.4130
15625TIP3   OH268365   6.093   2.391   4.193  0.1859  0.7700  0.2498
15625TIP3    H168366   6.143   2.436   4.262  1.3296 -0.3089  0.1295
15625TIP3    H268367   6.053   2.317   4.237 -1.1638  1.5214  0.2981
15626TIP3   OH268368   6.650   3.417  16.930 -0.0906 -0.3250 -0.1657
15626TIP3    H168369   6.686   3.398  16.843 -1.3782 -0.3106 -0.7146
15626TIP3    H268370   6.634   3.331  16.968  0.0201 -0.3339 -0.1386
15627TIP3   OH268371   1.395   2.238   5.593 -0.0957 -0.1968  0.3898
15627TIP3    H168372   1.333   2.207   5.526 -0.8029  0.9247  0.5166
15627TIP3    H268373   1.371   2.189   5.672 -2.3465  1.8705  1.0451
15628TIP3   OH268374   3.269   0.097   3.679  0.2824 -0.4267 -0.0456
15628TIP3    H168375   3.244   0.180   3.719  0.1703 -0.1764 -0.6174
15628TIP3    H268376   3.197   0.078   3.619  0.3494 -0.8955  0.0224
15629TIP3   OH268377   3.224   4.489  11.037  0.3264  0.1738  0.0351
15629TIP3    H168378   3.257   4.407  10.999 -0.4292 -0.4998  0.8350
15629TIP3    H268379   3.211   4.546  10.961 -0.2841 -0.8554 -0.6555
15630TIP3   OH268380   3.013   4.949   2.925 -0.1422  0.4839  0.8163
15630TIP3    H168381   2.953   4.876   2.916  1.5880 -0.7708 -0.9510
15630TIP3    H268382   2.980   5.015   2.864  0.5266 -0.4084 -0.5421
15631TIP3   OH268383   5.930   3.208  12.885  0.3984 -0.0670 -0.2437
15631TIP3    H168384   5.846   3.168  12.907 -0.0374  0.3418 -1.1824
15631TIP3    H268385   5.917   3.302  12.900  0.7230 -0.0123 -0.2951
15632TIP3   OH268386   3.817   2.553   1.919  1.1738 -0.2495  0.1239
15632TIP3    H168387   3.744   2.606   1.953  0.7362 -0.8496  0.1246
15632TIP3    H268388   3.853   2.605   1.847  0.4023 -0.1945 -0.2280
15633TIP3   OH268389   2.233   2.454   3.706 -0.2015 -0.1060  0.1998
15633TIP3    H168390   2.298   2.395   3.744  1.2755  1.6146  0.3890
15633TIP3    H268391   2.197   2.405   3.632  1.1322 -1.1689  0.2416
15634TIP3   OH268392   4.393   3.581  16.262 -0.4116 -0.0383  0.1976
15634TIP3    H168393   4.334   3.580  16.186 -0.4305 -2.3579  0.2232
15634TIP3    H268394   4.365   3.507  16.315  0.5285  0.7156  1.7837
15635TIP3   OH268395   5.875   3.834  10.920 -0.5728  0.3169 -0.0440
15635TIP3    H168396   5.850   3.794  11.002  0.0755  3.0400  1.5544
15635TIP3    H268397   5.955   3.788  10.894 -1.3816 -1.2862  0.2531
15636TIP3   OH268398   2.659   5.583  11.418 -0.3848  0.1112 -0.1749
15636TIP3    H168399   2.692   5.665  11.457  1.1246  1.2652 -3.6726
15636TIP3    H268400   2.567   5.601  11.401 -0.9357 -0.2182  2.2809
15637TIP3   OH268401   2.078   2.958  14.293 -0.1673  0.0056  0.3179
15637TIP3    H168402   2.148   2.933  14.233 -2.0142  0.7072 -2.2225
15637TIP3    H268403   2.064   2.880  14.347  0.7114 -1.0765 -0.9767
15638TIP3   OH268404   2.995   4.172  12.714 -0.6033  0.0185 -0.0425
15638TIP3    H168405   2.985   4.134  12.626 -0.7697  1.7653 -0.7883
15638TIP3    H268406   2.907   4.171  12.750 -0.5352 -0.7023  0.1269
15639TIP3   OH268407   2.041   3.485   0.136 -0.3158  0.1401  0.4508
15639TIP3    H168408   2.007   3.395   0.140  1.5258 -0.5274  1.5237
15639TIP3    H268409   2.125   3.477   0.092 -0.7492  1.5374 -0.6329
15640TIP3   OH268410   5.052   0.179  11.625 -0.6877 -0.5146 -0.3716
15640TIP3    H168411   5.095   0.152  11.706 -0.3506  0.5744 -0.1667
15640TIP3    H268412   4.976   0.230  11.655 -0.0754  0.6205 -0.7301
15641TIP3   OH268413   1.227   4.906   1.322  0.6362 -0.1890 -0.3125
15641TIP3    H168414   1.226   4.861   1.237  1.4405 -0.6690 -0.0790
15641TIP3    H268415   1.145   4.880   1.364  0.0927  0.2947 -1.0638
15642TIP3   OH268416   4.225   4.584   2.333  0.3972  0.0751  0.2060
15642TIP3    H168417   4.316   4.587   2.362  0.4731  0.1527 -0.0400
15642TIP3    H268418   4.190   4.670   2.356 -0.2734 -0.7724  2.4434
15643TIP3   OH268419   0.461   5.198  13.154 -0.2792 -0.7056 -0.5697
15643TIP3    H168420   0.557   5.196  13.149 -0.3753 -2.7901 -2.2696
15643TIP3    H268421   0.438   5.111  13.186 -1.6710 -0.7062 -1.5602
15644TIP3   OH268422   1.655   6.113   6.734  0.0436 -0.1306 -0.6014
15644TIP3    H168423   1.707   6.167   6.675  2.4112 -1.0927  0.5321
15644TIP3    H268424   1.611   6.050   6.677  3.6149 -2.1525 -1.3067
15645TIP3   OH268425   5.799   1.735   5.631  0.4541 -0.5293 -0.4539
15645TIP3    H168426   5.782   1.682   5.709 -0.6035  0.7987  0.2261
15645TIP3    H268427   5.797   1.671   5.559  0.7749 -1.6564  0.5201
15646TIP3   OH268428   0.221   3.200  16.671  0.6906  0.0795  0.0730
15646TIP3    H168429   0.188   3.247  16.747 -0.6933  0.0637 -0.5160
15646TIP3    H268430   0.277   3.131  16.708  0.5300  0.4626  1.0358
15647TIP3   OH268431   6.254   6.174   0.269  0.3173  0.0099 -0.4435
15647TIP3    H168432   6.200   6.177   0.348 -0.4239 -1.4179 -0.8599
15647TIP3    H268433   6.218   6.242   0.212 -0.5508 -0.3992 -0.3985
15648TIP3   OH268434   2.847   2.171  16.489  0.1730  0.0816  0.2597
15648TIP3    H168435   2.796   2.180  16.569  1.6823 -0.1546  1.2469
15648TIP3    H268436   2.928   2.128  16.516  1.0916  0.8508 -1.2311
15649TIP3   OH268437   4.334   6.625  15.851 -0.4077 -0.2602  0.1479
15649TIP3    H168438   4.319   6.592  15.940 -0.0329 -1.7523 -0.3229
15649TIP3    H268439   4.369   6.713  15.864 -0.2032 -0.5179  1.4823
15650TIP3   OH268440   2.360   1.920  15.982 -0.4438  0.1928 -0.1486
15650TIP3    H168441   2.437   1.868  15.958 -0.9458  0.0527 -1.4986
15650TIP3    H268442   2.340   1.971  15.903 -1.0727  1.0602  0.5598
15651TIP3   OH268443   5.620   3.379  17.100  0.1241  0.0694  0.4198
15651TIP3    H168444   5.547   3.328  17.065  0.3530 -1.9642  2.7304
15651TIP3    H268445   5.580   3.441  17.161  0.2511 -0.6746  1.2751
15652TIP3   OH268446   6.505   4.788   2.807 -0.5034 -0.6449 -0.2181
15652TIP3    H168447   6.487   4.715   2.866  0.7235 -0.5866  0.2547
15652TIP3    H268448   6.600   4.792   2.803 -0.4161  3.0994  2.5687
15653TIP3   OH268449   6.522   6.189  13.453 -0.0983  0.1572 -0.6256
15653TIP3    H168450   6.599   6.138  13.427 -0.7190 -0.6509 -0.9284
15653TIP3    H268451   6.451   6.124  13.455 -0.4308  0.5627  1.3340
15654TIP3   OH268452   2.748   1.475   2.534  0.8959  0.7115  0.6582
15654TIP3    H168453   2.817   1.414   2.511  0.3086 -0.3954  1.7967
15654TIP3    H268454   2.680   1.422   2.576 -0.4593  1.8406 -0.0243
15655TIP3   OH268455   0.162   3.125   2.142  0.1689 -0.0169  0.4746
15655TIP3    H168456   0.120   3.101   2.059  1.0383  1.3178 -0.3792
15655TIP3    H268457   0.090   3.149   2.200 -0.5077 -1.7517  0.3799
15656TIP3   OH268458   6.446   0.107   0.698  0.4016 -0.4032  0.0659
15656TIP3    H168459   6.415   0.018   0.685  0.7245 -0.5109  0.0499
15656TIP3    H268460   6.520   0.098   0.758  0.6802 -0.1827 -0.2466
15657TIP3   OH268461   4.671   5.389  16.680  0.1019  0.2369 -0.5552
15657TIP3    H168462   4.662   5.479  16.709 -3.2950  0.1974 -1.2658
15657TIP3    H268463   4.729   5.393  16.604  1.5935  1.5239  0.6273
15658TIP3   OH268464   1.488   2.178  11.919 -0.2892 -0.4327 -0.3385
15658TIP3    H168465   1.535   2.261  11.913 -0.1040 -0.4485  0.6787
15658TIP3    H268466   1.403   2.195  11.878 -0.0979  0.1384 -0.5050
15659TIP3   OH268467   4.486   1.686   0.066 -0.1638  0.2710  0.0284
15659TIP3    H168468   4.572   1.690   0.108  0.4358  0.2670 -1.1755
15659TIP3    H268469   4.424   1.711   0.135  0.7871  0.1268  0.9435
15660TIP3   OH268470   3.596   1.457  14.236  0.4254  0.1658 -0.0434
15660TIP3    H168471   3.674   1.402  14.235  0.9526  0.8841  1.0950
15660TIP3    H268472   3.590   1.489  14.326 -1.7573 -0.7106  0.1578
15661TIP3   OH268473   4.040   4.694   0.523 -0.3712  0.3785  0.1554
15661TIP3    H168474   4.032   4.706   0.617 -0.7862  0.6532  0.0879
15661TIP3    H268475   4.043   4.783   0.488 -1.7358  0.2929 -0.2113
15662TIP3   OH268476   6.724   1.481   5.845 -0.2033  0.2541  0.0070
15662TIP3    H168477   6.698   1.523   5.927  0.0781  0.2894  0.0793
15662TIP3    H268478   6.691   1.539   5.777  0.7669  0.9470  0.1131
15663TIP3   OH268479   0.116   2.639   0.517  0.6773  0.0257 -0.6395
15663TIP3    H168480   0.143   2.592   0.596  0.5271 -1.3197 -1.3779
15663TIP3    H268481   0.113   2.731   0.544  2.1558 -0.2387  0.5074
15664TIP3   OH268482   1.603   6.698  13.557 -0.1482 -0.1748  0.2139
15664TIP3    H168483   1.515   6.670  13.584 -0.0377 -1.1626 -0.4431
15664TIP3    H268484   1.596   6.711  13.463  0.1198  0.8637  0.3315
15665TIP3   OH268485   1.029   4.889  16.470  1.3883  0.6073  0.7581
15665TIP3    H168486   0.958   4.902  16.406  1.6871 -2.2629 -0.2272
15665TIP3    H268487   0.984   4.873  16.553  0.9444  1.3493  0.6662
15666TIP3   OH268488   1.405   2.694  14.025 -0.2519 -0.2258  0.2243
15666TIP3    H168489   1.425   2.765  13.964 -1.9349  1.0116  1.1043
15666TIP3    H268490   1.344   2.638  13.977  0.4734 -0.6852 -0.1801
15667TIP3   OH268491   6.023   0.240  12.635  0.0610  0.5999  0.2349
15667TIP3    H168492   5.983   0.302  12.696 -1.8794 -1.6066  1.2910
15667TIP3    H268493   5.996   0.154  12.667  0.1952 -0.6817 -2.9116
15668TIP3   OH268494   2.851   0.027  16.916  0.2285  0.2939 -0.3209
15668TIP3    H168495   2.939  -0.005  16.895 -0.0301 -1.7879  1.6235
15668TIP3    H268496   2.822  -0.027  16.989 -3.1426  0.1280 -1.6612
15669TIP3   OH268497   6.148   3.488   3.816 -0.4926 -0.2307  0.5999
15669TIP3    H168498   6.076   3.446   3.864 -1.0006  0.5535  0.5229
15669TIP3    H268499   6.107   3.561   3.770  0.3823  0.3185  0.6830
15670TIP3   OH268500   6.670   6.297   6.109  0.3907  0.4034  0.2313
15670TIP3    H168501   6.582   6.260   6.115  0.1079  0.5171 -2.6499
15670TIP3    H268502   6.694   6.315   6.200 -2.1769 -0.4872  1.1418
15671TIP3   OH268503   4.003   4.230  16.493  0.4032 -0.3451 -0.0660
15671TIP3    H168504   4.052   4.269  16.565  1.1631 -0.4552 -0.5125
15671TIP3    H268505   4.054   4.251  16.415 -0.6877  0.2203 -0.6365
15672TIP3   OH268506   6.589   2.610  17.147 -0.4320 -0.0633  0.5380
15672TIP3    H168507   6.656   2.615  17.080 -1.0931  3.7850  0.0098
15672TIP3    H268508   6.515   2.567  17.104 -0.4851  1.4314 -0.9118
15673TIP3   OH268509   5.501   2.679   1.901 -0.3183  0.1057 -0.2724
15673TIP3    H168510   5.593   2.670   1.874 -0.5386 -0.1361 -0.9581
15673TIP3    H268511   5.504   2.675   1.997  0.4859  0.9988 -0.2528
15674TIP3   OH268512   6.640   2.577   2.424 -0.0163 -0.2239 -0.8470
15674TIP3    H168513   6.559   2.526   2.418 -0.6724  0.7380 -0.3472
15674TIP3    H268514   6.704   2.525   2.377 -0.6760 -1.5053 -0.3680
15675TIP3   OH268515   6.226   4.276  16.543 -0.5245  0.2844  0.9638
15675TIP3    H168516   6.150   4.250  16.490  0.1826  0.9835 -0.4259
15675TIP3    H268517   6.270   4.343  16.490  0.6755  0.3885  2.0759
15676TIP3   OH268518   4.651   2.952  16.350  0.4032 -0.0897  0.1185
15676TIP3    H168519   4.631   3.037  16.390  1.3744  0.1962  0.0153
15676TIP3    H268520   4.739   2.963  16.313  0.5641 -1.1608  0.1624
15677TIP3   OH268521   0.432   0.386   6.348 -0.1790  0.0037  0.1293
15677TIP3    H168522   0.514   0.431   6.331 -0.3541  0.9361  1.6387
15677TIP3    H268523   0.400   0.360   6.262 -0.5520  3.6182 -0.9086
15678TIP3   OH268524   0.509   2.537  15.438 -0.3929 -0.0641  0.6750
15678TIP3    H168525   0.519   2.542  15.533  3.0610  0.0799  0.3684
15678TIP3    H268526   0.546   2.452  15.414  0.6557  0.7554 -0.7254
15679TIP3   OH268527   5.507   5.508   1.643  0.0094 -0.2254 -0.2335
15679TIP3    H168528   5.541   5.451   1.712  1.5030 -1.0082 -1.5706
15679TIP3    H268529   5.422   5.471   1.620  1.6248 -2.8641 -2.1401
15680TIP3   OH268530   1.840   4.744   1.040  0.3273  0.2192 -0.3710
15680TIP3    H168531   1.828   4.657   1.003 -0.0214 -0.0842  0.4286
15680TIP3    H268532   1.831   4.804   0.966 -2.0696 -0.2530 -0.5184
15681TIP3   OH268533   0.397   3.880   0.675  0.0020  0.4741 -0.5641
15681TIP3    H168534   0.368   3.935   0.602 -0.2860 -0.0251 -0.8283
15681TIP3    H268535   0.429   3.800   0.634 -0.0812  0.2246 -0.1476
15682TIP3   OH268536   1.462   0.712  14.507  0.0387  0.2257 -0.2946
15682TIP3    H168537   1.508   0.653  14.448 -0.4167 -0.6284  0.1841
15682TIP3    H268538   1.453   0.662  14.589 -1.7039  0.3621 -0.3736
15683TIP3   OH268539   4.508   4.759   0.034 -0.6283 -0.4108  0.0134
15683TIP3    H168540   4.486   4.692   0.098 -1.3583 -1.3501 -1.1971
15683TIP3    H268541   4.470   4.727  -0.048  1.4574  0.1040 -1.1828
15684TIP3   OH268542   1.567   6.803  12.552  0.3848 -0.3525 -0.1544
15684TIP3    H168543   1.494   6.842  12.600  0.0520 -0.6865 -0.3859
15684TIP3    H268544   1.580   6.718  12.595  1.4890  0.2617  0.7291
15685TIP3   OH268545   2.223   3.658  14.004  0.9618 -0.3690 -0.3362
15685TIP3    H168546   2.301   3.627  14.051  1.1545  1.8279  0.8497
15685TIP3    H268547   2.186   3.726  14.060 -0.8809 -0.2195 -1.6843
15686TIP3   OH268548   1.995   2.164  16.955 -0.0170  0.1338  0.1444
15686TIP3    H168549   1.953   2.085  16.989 -1.1771  0.5273 -0.3412
15686TIP3    H268550   2.070   2.178  17.013  0.2093 -1.3168  0.2334
15687TIP3   OH268551   5.731   1.017   2.864 -0.5316  0.7658 -0.4245
15687TIP3    H168552   5.678   1.065   2.928 -1.2084 -0.8843  0.2918
15687TIP3    H268553   5.669   0.958   2.821  0.1944  0.8541 -1.6172
15688TIP3   OH268554   6.437   2.277   2.893 -0.4427  0.0765 -0.0776
15688TIP3    H168555   6.510   2.328   2.856 -0.7143  1.2808  1.0216
15688TIP3    H268556   6.395   2.238   2.816 -0.9106  2.4389 -1.0857
15689TIP3   OH268557   6.651   6.763   1.462  0.5599  0.0425  0.1902
15689TIP3    H168558   6.611   6.684   1.425 -0.3225  0.4568  0.2476
15689TIP3    H268559   6.641   6.752   1.557  2.4142 -0.8084  0.3100
15690TIP3   OH268560   5.174   4.270  10.833  0.1660 -0.3003 -0.1240
15690TIP3    H168561   5.173   4.315  10.917  2.0823 -2.1598  0.9359
15690TIP3    H268562   5.121   4.192  10.847 -1.9152  0.7886 -1.5317
15691TIP3   OH268563   0.170   3.248  16.999 -0.3813 -0.1506 -0.7979
15691TIP3    H168564   0.107   3.227  17.068 -1.8539  1.2032 -1.6835
15691TIP3    H268565   0.254   3.221  17.034 -1.2400 -0.4500  1.1069
15692TIP3   OH268566   4.105   0.332   2.198 -0.2591 -0.1471 -0.1139
15692TIP3    H168567   4.191   0.339   2.156 -0.4052 -0.0990 -0.4061
15692TIP3    H268568   4.062   0.414   2.176  0.2606  0.5692  1.4735
15693TIP3   OH268569   6.351   5.514   3.805  0.1300 -0.3887 -0.5220
15693TIP3    H168570   6.441   5.516   3.772 -0.6061 -0.2376 -2.5844
15693TIP3    H268571   6.322   5.605   3.801  0.2469 -0.2546  1.2339
15694TIP3   OH268572   1.338   0.735  15.405 -0.1325  0.3061 -0.3223
15694TIP3    H168573   1.259   0.682  15.404 -0.6766  1.0700  0.6765
15694TIP3    H268574   1.337   0.783  15.322  0.9182 -2.0197 -1.7140
15695TIP3   OH268575   1.424   4.079   2.527  0.2701  0.1706 -0.4409
15695TIP3    H168576   1.429   4.067   2.622  1.3451 -1.9521 -0.7460
15695TIP3    H268577   1.357   4.018   2.498  2.3840 -1.7728 -1.4272
15696TIP3   OH268578   5.181   2.522   0.506 -0.0366  0.7306 -0.0835
15696TIP3    H168579   5.169   2.430   0.484 -0.8608  0.6542  0.6694
15696TIP3    H268580   5.259   2.523   0.562 -1.7015  0.1124  2.3040
15697TIP3   OH268581   1.030   1.118  14.881 -0.5460  0.1572  0.1794
15697TIP3    H168582   1.051   1.134  14.973  1.1343  1.1056 -0.3454
15697TIP3    H268583   1.006   1.025  14.878  0.2934 -0.1225  1.4153
15698TIP3   OH268584   1.628   5.422  15.881 -0.7662 -0.1754 -0.0634
15698TIP3    H168585   1.722   5.425  15.898 -1.3037 -0.8130  3.3957
15698TIP3    H268586   1.615   5.344  15.828  0.6941  0.1404 -0.9012
15699TIP3   OH268587   5.929   5.932  12.446 -0.1513 -0.0856  0.0363
15699TIP3    H168588   5.887   5.874  12.382  1.5067  0.1232 -1.2797
15699TIP3    H268589   5.925   6.019  12.406  0.8485  0.0564  0.2241
15700TIP3   OH268590   6.035   4.024   5.556 -0.1029  0.0427 -0.2139
15700TIP3    H168591   6.117   4.056   5.518 -0.7762  3.5177  1.0965
15700TIP3    H268592   5.968   4.050   5.493 -0.4654 -0.6192 -0.1054
15701TIP3   OH268593   0.859   4.260  12.873  0.4092 -0.0079 -0.1206
15701TIP3    H168594   0.955   4.252  12.879  0.1842 -3.3218 -0.1233
15701TIP3    H268595   0.828   4.170  12.867 -2.8177  0.9894  0.9495
15702TIP3   OH268596   6.026   4.375   0.029 -0.3892 -0.1031  0.2548
15702TIP3    H168597   5.995   4.289   0.002 -0.0675 -0.0619 -0.2406
15702TIP3    H268598   5.949   4.418   0.066 -0.8800 -0.0649 -0.8042
15703TIP3   OH268599   0.229   4.995   1.132  0.3591  0.3771  0.0120
15703TIP3    H168600   0.178   4.930   1.084  1.4770 -0.4475 -0.0642
15703TIP3    H268601   0.212   5.077   1.087  1.8473 -0.4710 -2.1698
15704TIP3   OH268602   6.011   1.714   3.767  0.1453 -0.2937  0.0315
15704TIP3    H168603   6.043   1.672   3.847  0.2849 -0.5893 -0.1821
15704TIP3    H268604   6.089   1.750   3.725  0.0120  0.3261  0.2919
15705TIP3   OH268605   5.567   2.795   0.657 -0.6520  0.4754  0.0308
15705TIP3    H168606   5.659   2.776   0.673 -0.4285  0.9559 -0.6550
15705TIP3    H268607   5.563   2.820   0.565 -1.5488 -0.0259 -0.0758
15706TIP3   OH268608   0.879   2.315   1.965 -0.6452  0.2553 -0.7334
15706TIP3    H168609   0.870   2.373   2.041  0.4677  1.3344 -1.4132
15706TIP3    H268610   0.819   2.352   1.900 -3.9491 -2.4472  0.6329
15707TIP3   OH268611   1.695   6.491  14.378 -0.2042  0.1689 -0.2948
15707TIP3    H168612   1.631   6.496  14.307 -0.8379 -1.8432  0.1181
15707TIP3    H268613   1.643   6.486  14.457  0.4919  0.8395  0.2101
15708TIP3   OH268614   0.753   4.026   5.875 -0.3198 -0.7230  0.3560
15708TIP3    H168615   0.822   4.016   5.940 -0.4129  0.0888  0.5787
15708TIP3    H268616   0.736   3.936   5.845 -1.4669 -1.3151  2.6654
15709TIP3   OH268617   4.418   2.550  16.679 -0.3082 -0.4146 -0.2548
15709TIP3    H168618   4.510   2.575  16.668 -0.2939 -0.4220 -0.1508
15709TIP3    H268619   4.403   2.484  16.610 -0.4482  0.1406 -0.7565
15710TIP3   OH268620   5.845   1.751   0.678 -0.1267 -0.7432 -0.9792
15710TIP3    H168621   5.788   1.758   0.755  0.3934  0.5395 -0.6987
15710TIP3    H268622   5.796   1.695   0.617  0.6430 -4.0357  1.3147
15711TIP3   OH268623   6.676   0.636  13.843  0.1941  0.2589 -0.3377
15711TIP3    H168624   6.666   0.676  13.757 -0.4949 -0.6349 -0.6753
15711TIP3    H268625   6.770   0.636  13.859  0.6287 -2.5413 -2.5269
15712TIP3   OH268626   0.378   5.377  11.470 -0.2604 -0.5804  0.3581
15712TIP3    H168627   0.389   5.369  11.564 -0.5124 -1.9003  0.2867
15712TIP3    H268628   0.429   5.305  11.433  1.7053  1.2810 -0.6386
15713TIP3   OH268629   1.149   1.797  16.826 -1.1205 -0.4271  0.4382
15713TIP3    H168630   1.177   1.830  16.740 -1.7130 -0.7933  0.0995
15713TIP3    H268631   1.062   1.761  16.810 -1.2843 -0.3792  1.2260
15714TIP3   OH268632   3.220   6.705  12.808  0.3555  0.0941  0.2744
15714TIP3    H168633   3.230   6.657  12.891 -0.4648 -0.8523 -0.1681
15714TIP3    H268634   3.151   6.769  12.826  1.0634  0.7431  0.6987
15715TIP3   OH268635   1.571   4.951   0.992  0.4330 -0.3956  0.6244
15715TIP3    H168636   1.657   4.956   0.950 -0.6893  0.4709 -1.6073
15715TIP3    H268637   1.551   4.858   0.996  1.6279 -0.6261  1.4979
15716TIP3   OH268638   3.459   1.498   1.330  0.8176 -0.0059  0.6322
15716TIP3    H168639   3.416   1.562   1.273 -1.6726  0.1745  2.6453
15716TIP3    H268640   3.395   1.428   1.341  2.3252 -1.3448  1.0072
15717TIP3   OH268641   1.355   2.675   1.289  0.3243  0.5369  0.2620
15717TIP3    H168642   1.385   2.641   1.205  0.3091  0.2310  0.3810
15717TIP3    H268643   1.283   2.617   1.315  0.1204  0.8174  0.3374
15718TIP3   OH268644   4.332   1.177  11.844  0.0790 -0.9597  0.3361
15718TIP3    H168645   4.360   1.087  11.827 -0.5648 -0.8207 -1.6851
15718TIP3    H268646   4.240   1.170  11.868  0.0384 -0.8439  0.2162
15719TIP3   OH268647   2.819   2.499  14.256  0.2388  0.1985 -0.6831
15719TIP3    H168648   2.901   2.453  14.239  0.3630 -0.0475  0.5658
15719TIP3    H268649   2.821   2.518  14.350 -1.3326 -0.2071 -0.5558
15720TIP3   OH268650   4.214   5.303  13.604  0.4143 -0.1396 -0.0626
15720TIP3    H168651   4.165   5.344  13.533  0.6455  2.2818  1.1323
15720TIP3    H268652   4.210   5.209  13.585 -2.2363  0.2333 -1.5299
15721TIP3   OH268653   0.100   6.358   2.761 -0.4570 -0.0137 -0.0965
15721TIP3    H168654   0.129   6.272   2.791 -0.0991 -0.4933 -1.7943
15721TIP3    H268655   0.060   6.398   2.839  0.8701 -1.0432  1.1449
15722TIP3   OH268656   1.964   0.161   1.016 -0.4097  0.3757  0.5353
15722TIP3    H168657   2.035   0.104   1.044 -0.7091 -0.9797 -1.4032
15722TIP3    H268658   1.891   0.138   1.074  0.2251  0.6117  1.4428
15723TIP3   OH268659   4.318   3.637  14.030  0.1549  0.6942  0.0004
15723TIP3    H168660   4.368   3.632  14.111 -0.5109 -1.1877  0.3082
15723TIP3    H268661   4.280   3.550  14.019  1.2976  0.5021 -3.0350
15724TIP3   OH268662   0.392   2.081   5.176  0.0641 -0.4434  0.1356
15724TIP3    H168663   0.314   2.137   5.180 -0.1843 -0.7390 -0.4613
15724TIP3    H268664   0.457   2.133   5.128 -0.2212 -0.7245 -0.5635
15725TIP3   OH268665   6.220   1.120  16.700 -0.2521 -0.0389 -0.5788
15725TIP3    H168666   6.283   1.078  16.759 -0.8264  0.0928  0.1382
15725TIP3    H268667   6.168   1.048  16.666 -0.2925 -0.0586 -0.4741
15726TIP3   OH268668   6.694   2.595  11.461  0.2429  1.0892  0.3212
15726TIP3    H168669   6.612   2.594  11.412 -0.7732  0.3778  2.0229
15726TIP3    H268670   6.747   2.662  11.417 -0.7615  0.6772 -1.5573
15727TIP3   OH268671   5.110   6.297   1.366  0.1709 -0.0788 -0.1812
15727TIP3    H168672   5.152   6.366   1.316 -1.6141  0.6730 -0.6603
15727TIP3    H268673   5.150   6.302   1.453  1.9428 -0.1904 -0.9808
15728TIP3   OH268674   2.543   2.021   4.058  0.2954  0.8518  0.3798
15728TIP3    H168675   2.530   1.981   3.972  0.9652 -0.7494  1.0006
15728TIP3    H268676   2.456   2.053   4.082 -0.7650 -2.0730  0.7288
15729TIP3   OH268677   0.866   5.807   0.675  0.0148  0.1091  0.1476
15729TIP3    H168678   0.931   5.863   0.719  0.2807 -1.4646  1.8222
15729TIP3    H268679   0.784   5.828   0.718 -0.2208  0.5841 -0.5324
15730TIP3   OH268680   5.865   4.466   2.376  0.3065 -0.0659  0.1857
15730TIP3    H168681   5.862   4.411   2.297  0.9630  0.8698 -0.4984
15730TIP3    H268682   5.946   4.516   2.367 -0.3229  1.0682  0.7695
15731TIP3   OH268683   5.327   5.198  15.419  0.2514 -0.4250 -0.1569
15731TIP3    H168684   5.413   5.155  15.420  0.3914 -0.1245  0.9165
15731TIP3    H268685   5.266   5.131  15.452 -0.2200 -1.2242 -2.5613
15732TIP3   OH268686   2.483   0.889  15.516  0.3942 -0.1346 -0.3555
15732TIP3    H168687   2.429   0.891  15.437 -0.7734 -0.9342  0.4155
15732TIP3    H268688   2.544   0.963  15.504  0.2907 -0.2898 -2.0234
15733TIP3   OH268689   2.069   2.162  13.059  0.2702  0.0054  0.5457
15733TIP3    H168690   2.144   2.222  13.067  1.0307 -1.0095  1.0976
15733TIP3    H268691   2.082   2.119  12.974 -0.8380  1.3672 -0.3286
15734TIP3   OH268692   5.998   3.751   2.818 -0.9641  0.0364 -0.2965
15734TIP3    H168693   5.925   3.780   2.874 -1.2484  0.2704 -0.7893
15734TIP3    H268694   5.956   3.708   2.744 -0.6593  1.7620 -1.4873
15735TIP3   OH268695   0.199   6.635   2.380  0.1351 -0.2262 -0.1861
15735TIP3    H168696   0.177   6.726   2.400  1.8920  0.5657 -1.7337
15735TIP3    H268697   0.220   6.597   2.466 -1.2088  0.6410  0.5436
15736TIP3   OH268698   1.450   5.379  12.820 -0.2734 -0.2122  0.1592
15736TIP3    H168699   1.364   5.383  12.861 -0.8473 -1.5432 -0.9018
15736TIP3    H268700   1.451   5.452  12.758 -1.0884 -0.9486 -0.7141
15737TIP3   OH268701   2.319   1.625   5.674 -0.5262 -0.3693 -0.2397
15737TIP3    H168702   2.396   1.569   5.663 -0.2860 -0.4053  1.5008
15737TIP3    H268703   2.335   1.700   5.618  0.0865 -1.0841 -1.0259
15738TIP3   OH268704   6.316   5.042   4.061  0.4640 -0.0071 -0.2789
15738TIP3    H168705   6.225   5.065   4.080 -0.0305  0.1070 -2.6593
15738TIP3    H268706   6.364   5.124   4.072 -0.1533  0.5468 -1.6315
15739TIP3   OH268707   2.387   3.448   4.021 -0.3814  0.1672 -0.1813
15739TIP3    H168708   2.331   3.441   4.098 -1.5513 -0.3363 -1.0574
15739TIP3    H268709   2.352   3.383   3.960  0.3982  0.7053 -1.2211
15740TIP3   OH268710   5.120   1.080   2.659  0.1980  0.1029 -0.8296
15740TIP3    H168711   5.043   1.112   2.706  1.2515  1.2969  0.1349
15740TIP3    H268712   5.093   1.078   2.567 -1.1283  0.0483 -0.4535
15741TIP3   OH268713   0.125   0.519   4.760 -0.2806  0.1331 -0.5140
15741TIP3    H168714   0.210   0.491   4.727  1.3308  3.2096  0.8224
15741TIP3    H268715   0.083   0.561   4.685  0.7748  1.5465 -0.3293
15742TIP3   OH268716   3.540   4.192  16.551 -0.7498  0.1351  0.4992
15742TIP3    H168717   3.464   4.188  16.492  0.0198  0.7817 -0.5604
15742TIP3    H268718   3.601   4.251  16.507 -0.1642  0.6479  1.9718
15743TIP3   OH268719   0.484   6.685  12.406  0.0421  0.7366  0.3115
15743TIP3    H168720   0.505   6.664  12.496  0.4815  0.2938  0.1051
15743TIP3    H268721   0.562   6.728  12.371 -1.0417  3.3240  0.9016
15744TIP3   OH268722   4.912   4.479  10.793 -0.2391  0.2167  0.9155
15744TIP3    H168723   4.917   4.388  10.820 -1.1619 -0.6360 -1.6607
15744TIP3    H268724   4.823   4.506  10.818 -0.9765 -0.4708 -0.9151
15745TIP3   OH268725   0.400   5.612  17.205 -0.1633 -0.1519  0.5836
15745TIP3    H168726   0.340   5.630  17.278  0.7821  0.6477  1.1863
15745TIP3    H268727   0.471   5.675  17.216  1.4283 -1.8735  0.6221
15746TIP3   OH268728   5.772   2.105   2.325 -0.7707  0.2078  0.4218
15746TIP3    H168729   5.717   2.123   2.249 -2.5320  1.7755  2.0143
15746TIP3    H268730   5.861   2.123   2.295 -1.6119  2.6145 -0.7490
15747TIP3   OH268731   0.853   3.372  16.378  0.2772  0.2936 -0.1421
15747TIP3    H168732   0.911   3.326  16.317 -1.1052  0.1361 -1.3582
15747TIP3    H268733   0.878   3.465  16.368 -0.1526  0.3008 -1.1774
15748TIP3   OH268734   3.689   3.658   2.193  0.2110  0.2957  0.6303
15748TIP3    H168735   3.610   3.707   2.169 -2.0800 -4.5457 -2.5676
15748TIP3    H268736   3.663   3.607   2.269 -0.4529 -2.5621 -1.4121
15749TIP3   OH268737   5.509   0.171  11.878  0.1006 -0.1515 -0.0701
15749TIP3    H168738   5.516   0.201  11.968 -1.6877  0.0796  0.0029
15749TIP3    H268739   5.478   0.248  11.830 -1.0230 -0.8707 -0.5097
15750TIP3   OH268740   4.231   5.185  14.804 -0.5214 -0.3876 -0.3772
15750TIP3    H168741   4.304   5.243  14.780 -0.0234 -0.4228  0.9863
15750TIP3    H268742   4.202   5.218  14.889 -0.7261 -1.6811  0.0649
15751TIP3   OH268743   2.257   4.849   2.444 -0.1339 -0.5374 -0.0105
15751TIP3    H168744   2.201   4.838   2.521  0.1724 -1.2585  0.1163
15751TIP3    H268745   2.196   4.865   2.372 -0.4740 -0.8053  0.2155
15752TIP3   OH268746   6.434   1.532  14.579 -0.0653 -0.3124 -0.7332
15752TIP3    H168747   6.438   1.596  14.507 -1.7761  1.6441  0.8569
15752TIP3    H268748   6.488   1.571  14.648 -0.9555 -0.6872  0.1816
15753TIP3   OH268749   2.781   0.022   1.510  0.4424 -0.0298 -0.1057
15753TIP3    H168750   2.849   0.081   1.543 -0.9756  1.1012  0.8479
15753TIP3    H268751   2.821  -0.065   1.512  0.9303  0.2193  3.1213
15754TIP3   OH268752   5.069   0.864   6.420 -0.1763 -0.3105 -0.1985
15754TIP3    H168753   5.020   0.786   6.447 -1.1851  0.7684  1.1691
15754TIP3    H268754   5.152   0.858   6.466 -0.5571 -0.2072  0.5189
15755TIP3   OH268755   2.189   6.734   5.822 -0.5980  0.0991 -0.0855
15755TIP3    H168756   2.121   6.772   5.878 -0.7984  0.5857 -0.6572
15755TIP3    H268757   2.186   6.785   5.742 -0.0653 -0.3671 -0.4089
15756TIP3   OH268758   2.691   4.538   4.381  0.7304 -0.1056 -0.1355
15756TIP3    H168759   2.725   4.559   4.295  1.0189  1.5854  0.3762
15756TIP3    H268760   2.605   4.499   4.364  0.5574  0.7045 -1.1732
15757TIP3   OH268761   1.103   2.693  12.368  0.0408  0.2109 -0.1231
15757TIP3    H168762   1.134   2.758  12.305 -1.2232  4.1109  3.0600
15757TIP3    H268763   1.007   2.700  12.365 -0.1107 -1.5313  0.2476
15758TIP3   OH268764   1.531   4.466   1.573 -0.6113 -0.5344  0.2471
15758TIP3    H168765   1.593   4.496   1.639  0.6006  0.8962 -1.4865
15758TIP3    H268766   1.484   4.545   1.546 -1.1398 -1.1044 -0.5455
15759TIP3   OH268767   0.773   5.692   3.975 -0.1113  0.2375  0.3592
15759TIP3    H168768   0.786   5.771   3.922  0.1266 -0.1908 -0.2241
15759TIP3    H268769   0.736   5.628   3.914 -1.2648  0.2013  1.0645
15760TIP3   OH268770   2.482   1.248  13.069  0.2578  0.2611  0.5102
15760TIP3    H168771   2.564   1.259  13.021  0.3257 -1.3124  0.2303
15760TIP3    H268772   2.420   1.306  13.026  0.7366  0.0302 -0.4943
15761TIP3   OH268773   6.781   1.817  13.232  0.2332 -0.3301 -0.4877
15761TIP3    H168774   6.740   1.743  13.275  0.2766 -0.4605 -0.6710
15761TIP3    H268775   6.712   1.883  13.225  0.3626 -0.1172  0.2444
15762TIP3   OH268776   2.606   3.340  14.368 -0.5368 -0.0957  0.3698
15762TIP3    H168777   2.632   3.375  14.283  0.9742 -0.7915  0.5238
15762TIP3    H268778   2.653   3.393  14.432  0.0592 -0.9780  0.6786
15763TIP3   OH268779   0.355   0.266   1.451 -0.1043  0.1161 -0.1971
15763TIP3    H168780   0.286   0.284   1.515  0.3145  1.2244 -0.0551
15763TIP3    H268781   0.383   0.176   1.471 -0.8540  0.0036  0.3516
15764TIP3   OH268782   4.720   6.654  16.023 -0.0847 -0.5502  0.3275
15764TIP3    H168783   4.701   6.638  16.115  1.1363 -0.3988  0.6176
15764TIP3    H268784   4.723   6.750  16.015 -0.7830 -0.5532  0.0045
15765TIP3   OH268785   1.389   5.502  12.018  0.1271 -0.1907 -0.6182
15765TIP3    H168786   1.364   5.436  11.953  1.4868 -1.7186  0.3586
15765TIP3    H268787   1.445   5.563  11.970 -0.5977 -0.0951 -1.3687
15766TIP3   OH268788   6.749   0.023   1.993  0.4295  0.5335 -0.5015
15766TIP3    H168789   6.702  -0.041   2.046  1.4078  0.2907  0.1066
15766TIP3    H268790   6.701   0.105   2.006 -0.3751  0.0924 -0.6643
15767TIP3   OH268791   3.407   3.869  14.402 -0.1249  0.1380  0.0813
15767TIP3    H168792   3.436   3.798  14.459  0.1714  0.2868  0.1168
15767TIP3    H268793   3.317   3.887  14.429 -1.0122 -1.7839 -1.4559
15768TIP3   OH268794   4.592   6.403   3.971 -0.3080  0.3054  0.6611
15768TIP3    H168795   4.639   6.461   4.032  1.2490 -0.8617  0.5999
15768TIP3    H268796   4.587   6.452   3.890  2.6387 -0.3051  0.0471
15769TIP3   OH268797   0.492   1.918  12.246 -0.3393  0.2360 -0.4263
15769TIP3    H168798   0.533   1.833  12.260 -0.4727  0.2229 -0.1135
15769TIP3    H268799   0.518   1.942  12.157  0.7219  0.4506 -0.0632
15770TIP3   OH268800   3.360   1.108   2.601 -0.2076 -0.6908  0.1877
15770TIP3    H168801   3.351   1.117   2.696  0.2464 -0.9065  0.2515
15770TIP3    H268802   3.390   1.194   2.572 -1.5308 -0.2441  0.0828
15771TIP3   OH268803   1.252   6.262   3.546  0.4255 -0.4729 -0.2208
15771TIP3    H168804   1.198   6.185   3.527  0.4882  0.2261 -3.5502
15771TIP3    H268805   1.340   6.227   3.556  0.0873 -1.0946  0.6806
15772TIP3   OH268806   3.636   3.782  15.216  0.1679  0.0824  0.4360
15772TIP3    H168807   3.551   3.746  15.242  0.8811 -0.3662  2.1904
15772TIP3    H268808   3.626   3.801  15.122 -2.1815  0.9746  0.8390
15773TIP3   OH268809   3.757   4.716  16.725  0.1224  0.0842 -0.0503
15773TIP3    H168810   3.667   4.749  16.737  0.2877  0.4494  0.2215
15773TIP3    H268811   3.810   4.795  16.718  0.1899 -0.1268 -2.1161
15774TIP3   OH268812   4.942   0.810  11.547 -0.1055 -0.6408  0.4195
15774TIP3    H168813   4.886   0.774  11.479 -1.4525 -0.0403  1.1855
15774TIP3    H268814   4.884   0.818  11.623  1.3435 -1.1934  1.5978
15775TIP3   OH268815   4.564   1.849   2.636 -0.3464  0.5425  0.0108
15775TIP3    H168816   4.626   1.911   2.599 -2.0070  0.5939 -2.8546
15775TIP3    H268817   4.478   1.888   2.619 -1.2775 -0.7685  1.5257
15776TIP3   OH268818   5.555   5.884  15.421  0.3938  0.2519  0.2101
15776TIP3    H168819   5.530   5.791  15.418  1.4824 -0.0655  0.3797
15776TIP3    H268820   5.473   5.932  15.424 -0.1776 -0.7295  0.3858
15777TIP3   OH268821   6.161   6.771  11.335 -0.6913 -0.0334 -0.2649
15777TIP3    H168822   6.217   6.778  11.412 -1.5319  2.8060  0.1414
15777TIP3    H268823   6.221   6.777  11.261 -0.1068 -0.4656  0.1719
15778TIP3   OH268824   1.810   2.982   4.285 -0.0093 -0.0942 -0.4223
15778TIP3    H168825   1.754   2.995   4.362 -0.2638 -1.8038 -0.2975
15778TIP3    H268826   1.814   2.887   4.274  1.1645  0.0855 -1.6960
15779TIP3   OH268827   6.623   4.202  14.535  0.6812  0.0825 -0.2623
15779TIP3    H168828   6.709   4.205  14.576  0.6068 -1.1669  0.0158
15779TIP3    H268829   6.612   4.110  14.509  0.5003  0.7582 -2.6139
15780TIP3   OH268830   2.170   4.196  16.937  0.5335  0.3142  0.3933
15780TIP3    H168831   2.112   4.271  16.921  1.8742  1.2291 -0.2883
15780TIP3    H268832   2.110   4.122  16.944 -0.6692  1.0056 -1.7511
15781TIP3   OH268833   0.551   0.708   2.414  0.3437  0.1364  0.1056
15781TIP3    H168834   0.591   0.647   2.476 -0.5873 -1.0333 -0.4545
15781TIP3    H268835   0.622   0.769   2.393  1.4421 -1.0884  0.2025
15782TIP3   OH268836   6.745   1.945  16.182 -0.2915 -0.1875 -0.3727
15782TIP3    H168837   6.810   2.002  16.222 -1.2872  1.1204 -0.6023
15782TIP3    H268838   6.752   1.863  16.231  1.0096  0.1849  0.0813
15783TIP3   OH268839   2.476   3.872  11.894 -0.7657 -0.0695 -0.1692
15783TIP3    H168840   2.403   3.824  11.855 -1.5149 -0.7451  2.0084
15783TIP3    H268841   2.446   3.962  11.901 -0.2698  0.2495 -2.0063
15784TIP3   OH268842   4.723   0.390   3.088 -0.3438  0.3302  0.4612
15784TIP3    H168843   4.751   0.305   3.055 -1.0424 -0.0210  0.7586
15784TIP3    H268844   4.720   0.446   3.011 -0.7474 -0.1543  0.1223
15785TIP3   OH268845   1.975   1.480  12.484 -0.8888  0.2355 -0.0299
15785TIP3    H168846   1.974   1.575  12.487  1.8632  0.3570 -1.4013
15785TIP3    H268847   1.929   1.458  12.403 -0.4324  0.4767 -0.3602
15786TIP3   OH268848   1.068   5.384   1.934  0.5765  0.6970 -0.3085
15786TIP3    H168849   1.163   5.387   1.933  0.5169  3.5224 -1.1250
15786TIP3    H268850   1.043   5.435   2.011 -0.2937  0.2893 -0.3146
15787TIP3   OH268851   5.548   4.550  11.215 -0.5953  0.0496  0.5604
15787TIP3    H168852   5.615   4.574  11.279 -1.3730  0.0799  1.3734
15787TIP3    H268853   5.587   4.479  11.164 -0.1039 -0.2179  1.3041
15788TIP3   OH268854   0.536   2.109   4.335  0.1819  0.5016  0.2920
15788TIP3    H168855   0.450   2.138   4.365  0.9012 -0.1487  3.1509
15788TIP3    H268856   0.597   2.139   4.403  1.8043 -1.8213 -0.0474
15789TIP3   OH268857   5.706   1.351   5.441 -0.6224  0.1949 -0.3224
15789TIP3    H168858   5.631   1.330   5.496  1.1644 -0.4300  1.9718
15789TIP3    H268859   5.740   1.266   5.412  0.1342  0.3916 -0.0375
15790TIP3   OH268860   3.755   6.371   6.499  0.4566 -0.2571 -0.1526
15790TIP3    H168861   3.715   6.430   6.563 -1.8235 -1.1114 -0.7690
15790TIP3    H268862   3.797   6.430   6.436 -2.8322  0.8103 -1.4522
15791TIP3   OH268863   2.575   0.119  17.014  0.2758 -0.7483  0.3777
15791TIP3    H168864   2.509   0.168  17.062 -0.8458 -0.9512 -0.9421
15791TIP3    H268865   2.654   0.173  17.019 -0.5645  0.5061  0.1510
15792TIP3   OH268866   6.745   6.481  12.738 -0.5871  0.2167  0.4361
15792TIP3    H168867   6.718   6.391  12.756 -0.8441  0.4332  1.1330
15792TIP3    H268868   6.691   6.508  12.664 -0.2668 -0.3163  0.0003
15793TIP3   OH268869   6.008   1.626  16.582 -0.1055 -0.1220 -0.2235
15793TIP3    H168870   5.913   1.626  16.597 -0.1559  2.5820 -0.3229
15793TIP3    H268871   6.043   1.677  16.655  1.0903  0.6476 -1.3322
15794TIP3   OH268872   6.585   5.271  13.492  0.5712  0.2258  0.2893
15794TIP3    H168873   6.577   5.325  13.413 -1.1893 -0.2685  0.1074
15794TIP3    H268874   6.525   5.312  13.555  1.1283 -0.0435  1.0106
15795TIP3   OH268875   5.092   4.270   4.678  0.6084  0.1071  0.0271
15795TIP3    H168876   5.035   4.197   4.700  0.0839  0.8576  1.1931
15795TIP3    H268877   5.036   4.333   4.633  0.7499  0.4046  0.2643
15796TIP3   OH268878   5.832   4.518   5.687 -0.4976 -0.4210  0.2202
15796TIP3    H168879   5.820   4.612   5.701 -0.9356 -0.5894  0.9813
15796TIP3    H268880   5.864   4.512   5.597 -1.2274  0.4055 -0.1106
15797TIP3   OH268881   3.223   4.655  11.838 -0.4041 -0.7317  0.7069
15797TIP3    H168882   3.153   4.595  11.814 -0.3315 -0.6081  0.1765
15797TIP3    H268883   3.204   4.679  11.928 -0.7870 -1.0580  0.7152
15798TIP3   OH268884   1.735   5.907  16.923  0.3728 -0.8384  0.0731
15798TIP3    H168885   1.675   5.932  16.852 -1.2990 -2.1682  0.9788
15798TIP3    H268886   1.815   5.880  16.878  0.5315  1.4859 -1.1318
15799TIP3   OH268887   5.580   5.772  11.405 -0.3601  0.0335  0.1557
15799TIP3    H168888   5.582   5.735  11.493  0.8227  1.0356  0.5844
15799TIP3    H268889   5.544   5.860  11.417  2.0255  1.0906  0.0626
15800TIP3   OH268890   3.745   0.625   0.282 -0.2537 -0.0105  0.2903
15800TIP3    H168891   3.835   0.591   0.281  0.3354  1.4931  1.0867
15800TIP3    H268892   3.691   0.551   0.252  1.3293 -0.6469 -1.0523
15801TIP3   OH268893   1.404   3.208   0.832 -0.0077  0.1954  0.2309
15801TIP3    H168894   1.316   3.174   0.817 -0.5102  1.5150  0.1333
15801TIP3    H268895   1.395   3.264   0.910  0.6334  0.6924 -0.0503
15802TIP3   OH268896   0.817   3.544  11.119  0.0234 -0.6877  0.4311
15802TIP3    H168897   0.831   3.452  11.139 -0.2610 -0.8838 -0.2558
15802TIP3    H268898   0.897   3.571  11.074  0.7130 -0.2158  1.9292
15803TIP3   OH268899   4.817   3.443  10.869  0.4288 -0.1413  0.9192
15803TIP3    H168900   4.781   3.391  10.942  0.2850 -0.4925  0.6011
15803TIP3    H268901   4.751   3.435  10.800  1.6677 -1.7828 -0.0998
15804TIP3   OH268902   1.692   4.908   5.944  0.4599 -0.1950  0.3281
15804TIP3    H168903   1.748   4.836   5.914 -2.3177 -2.6354  0.7261
15804TIP3    H268904   1.701   4.907   6.039  0.7611  0.2644  0.3034
15805TIP3   OH268905   6.506   2.866   0.476 -0.2053  0.7323 -0.2556
15805TIP3    H168906   6.548   2.827   0.399  1.3067  1.7886  0.0031
15805TIP3    H268907   6.415   2.837   0.471  0.4593 -1.2864 -1.0572
15806TIP3   OH268908   1.557   5.921  13.812  0.7299 -0.0531  0.5710
15806TIP3    H168909   1.555   5.883  13.724 -0.5442  3.3151 -0.9236
15806TIP3    H268910   1.582   6.012  13.799 -3.5099  1.6342  3.1784
15807TIP3   OH268911   4.375   0.280  15.367  0.0806 -0.2837  0.0888
15807TIP3    H168912   4.321   0.353  15.336 -0.1770 -0.4455  0.1536
15807TIP3    H268913   4.464   0.314  15.365  0.0416 -0.2053 -0.5759
15808TIP3   OH268914   0.728   3.042   5.185  0.4060  0.5393 -0.2783
15808TIP3    H168915   0.637   3.012   5.180  0.2477  1.1981 -1.4359
15808TIP3    H268916   0.735   3.085   5.271  0.1261 -1.1086  0.5900
15809TIP3   OH268917   3.873   4.558  11.535  0.8010 -0.2869 -0.3590
15809TIP3    H168918   3.901   4.467  11.546 -1.4144 -0.9791 -0.3215
15809TIP3    H268919   3.840   4.584  11.621 -1.7502 -0.5800 -1.1990
15810TIP3   OH268920   6.538   1.664   4.662  0.6456  0.9336 -0.5149
15810TIP3    H168921   6.546   1.735   4.598  0.7423  1.1807 -0.2273
15810TIP3    H268922   6.532   1.585   4.608  0.9563  1.1196 -0.8285
15811TIP3   OH268923   4.730   1.959  11.788 -0.1308  0.2917  0.2072
15811TIP3    H168924   4.642   1.968  11.823 -0.2939  1.2342 -0.4258
15811TIP3    H268925   4.720   1.967  11.693  0.6409  0.5400  0.1388
15812TIP3   OH268926   2.537   1.529   4.561 -0.0420  0.0428 -0.0452
15812TIP3    H168927   2.513   1.617   4.533 -0.2357 -0.0096 -0.0459
15812TIP3    H268928   2.628   1.537   4.591  0.0990  0.1406 -0.4932
15813TIP3   OH268929   6.041   1.378  12.340  0.6011 -0.3405  0.2538
15813TIP3    H168930   6.046   1.367  12.245  1.0220 -1.5698  0.4131
15813TIP3    H268931   6.119   1.429  12.363 -0.0870  0.9153 -0.1960
15814TIP3   OH268932   2.670   3.561   4.750  0.0298  0.0894  0.1109
15814TIP3    H168933   2.634   3.579   4.664  0.0020  2.8342  0.6438
15814TIP3    H268934   2.598   3.521   4.799 -0.0872 -1.0619 -0.9693
15815TIP3   OH268935   4.600   4.765   0.539  0.0773  0.4015  0.2930
15815TIP3    H168936   4.584   4.733   0.627  2.3709  1.1818  1.0200
15815TIP3    H268937   4.517   4.805   0.513 -0.7412 -0.1825  1.9279
15816TIP3   OH268938   2.927   2.198   3.752 -0.1540  0.1256  0.0176
15816TIP3    H168939   2.872   2.164   3.822  0.7193 -2.5141 -0.5018
15816TIP3    H268940   2.877   2.270   3.714 -0.4121  1.9390  3.6482
15817TIP3   OH268941   1.231   4.053  13.920  0.3546  0.1138 -0.3931
15817TIP3    H168942   1.275   4.129  13.958  0.7517 -0.3434  0.0598
15817TIP3    H268943   1.201   4.002  13.995 -0.4139  0.1095 -0.6958
15818TIP3   OH268944   5.383   6.631  16.144 -0.2880 -0.2295  0.3270
15818TIP3    H168945   5.471   6.609  16.176  0.5412  2.2713 -0.0876
15818TIP3    H268946   5.381   6.727  16.144 -2.3784 -0.2338 -1.3994
15819TIP3   OH268947   3.964   6.118  12.687 -0.4133 -0.4868 -1.0184
15819TIP3    H168948   3.915   6.162  12.617  1.3069 -1.0787 -2.6192
15819TIP3    H268949   3.946   6.025  12.675 -1.7406 -0.4741  0.6100
15820TIP3   OH268950   6.662   5.660  12.485 -0.6796 -0.0268  0.0837
15820TIP3    H168951   6.711   5.715  12.424 -0.4003 -0.8528 -0.4431
15820TIP3    H268952   6.672   5.704  12.570  0.2878  0.2592 -0.1705
15821TIP3   OH268953   1.132   1.491  16.773  0.0849 -0.1634 -0.0644
15821TIP3    H168954   1.173   1.485  16.860  1.6825 -2.1597 -0.9035
15821TIP3    H268955   1.175   1.565  16.732 -0.1446  0.3350  0.5823
15822TIP3   OH268956   1.679   5.227   6.768  0.4979 -0.2966 -0.2628
15822TIP3    H168957   1.711   5.286   6.837 -2.2630  0.5983  0.3298
15822TIP3    H268958   1.590   5.258   6.749  0.8203 -1.1293 -3.5604
15823TIP3   OH268959   4.218   1.389   2.878 -0.0749 -0.2436 -0.2217
15823TIP3    H168960   4.214   1.310   2.824  1.1560  1.0152 -2.2585
15823TIP3    H268961   4.312   1.406   2.889 -0.3193  0.7240  0.4999
15824TIP3   OH268962   0.568   4.639   2.240 -0.5226 -0.0427  0.0581
15824TIP3    H168963   0.636   4.622   2.175  0.0023  2.8386 -0.2083
15824TIP3    H268964   0.601   4.600   2.321  1.8737  2.0401  0.1324
15825TIP3   OH268965   6.360   2.115  15.547 -0.3429  0.5813 -0.0036
15825TIP3    H168966   6.301   2.130  15.621 -1.0568 -2.2855  0.0760
15825TIP3    H268967   6.441   2.082  15.586 -0.6181 -0.6531 -0.4385
15826TIP3   OH268968   5.379   3.522  16.891 -0.5991 -0.4191 -0.2102
15826TIP3    H168969   5.381   3.500  16.798  0.2451 -0.7085 -0.1311
15826TIP3    H268970   5.413   3.611  16.895  2.6659 -1.5993  0.1162
15827TIP3   OH268971   4.826   4.371   4.131  0.0742 -0.1163  0.0791
15827TIP3    H168972   4.853   4.354   4.221  1.5306  0.9956 -0.1348
15827TIP3    H268973   4.748   4.427   4.141  0.2868  0.0899  0.6435
15828TIP3   OH268974   1.775   4.357   1.429 -0.2972  0.4478 -0.4644
15828TIP3    H168975   1.777   4.409   1.349  2.4746  2.0387  0.5687
15828TIP3    H268976   1.709   4.400   1.484 -0.1550  1.0574 -0.7726
15829TIP3   OH268977   5.313   1.624   3.081  0.3904 -0.1793 -0.1451
15829TIP3    H168978   5.239   1.580   3.123 -0.4590 -0.3180 -1.7435
15829TIP3    H268979   5.290   1.625   2.988  3.0684 -1.5572 -0.8793
15830TIP3   OH268980   3.523   1.124  11.169  0.3511  0.2497 -0.4220
15830TIP3    H168981   3.532   1.136  11.075  1.2622  0.9831 -0.2523
15830TIP3    H268982   3.565   1.039  11.186  1.4470  0.7713 -0.4922
15831TIP3   OH268983   3.412   2.287   0.207 -0.3118 -0.0321 -0.7214
15831TIP3    H168984   3.318   2.267   0.207 -0.2886 -0.3421  1.9055
15831TIP3    H268985   3.454   2.201   0.203 -0.0998  0.1415 -2.8194
15832TIP3   OH268986   3.800   2.675  12.639  0.0202 -0.1054 -0.3659
15832TIP3    H168987   3.834   2.687  12.550 -2.1491  1.3736 -1.0501
15832TIP3    H268988   3.739   2.748  12.651  0.9929  0.2572  2.7118
15833TIP3   OH268989   4.396   4.326   3.699 -0.4559 -0.6009  0.0646
15833TIP3    H168990   4.422   4.311   3.608 -2.2497  2.1648 -0.9832
15833TIP3    H268991   4.300   4.326   3.696 -0.5309  0.0193  1.8661
15834TIP3   OH268992   3.955   5.475  16.511  0.2285  0.0300  0.0832
15834TIP3    H168993   3.962   5.380  16.519  0.8670  0.2196  1.9315
15834TIP3    H268994   3.908   5.489  16.429  2.9871 -1.7931 -1.8725
15835TIP3   OH268995   4.079   1.124   3.952  0.1492  0.0435  0.0463
15835TIP3    H168996   4.095   1.205   3.903  1.5450 -0.1834  0.0991
15835TIP3    H268997   4.066   1.153   4.042  0.0631  0.2563 -0.0341
15836TIP3   OH268998   0.586   4.307  15.694  0.0949 -0.0381 -0.6154
15836TIP3    H168999   0.600   4.214  15.713 -0.4550 -0.0342 -0.2093
15836TIP3    H269000   0.499   4.311  15.655  0.6481  0.1372 -1.8546
15837TIP3   OH269001   2.856   3.025   3.642  0.5534  0.4247  0.5452
15837TIP3    H169002   2.766   3.035   3.673  0.3373 -0.8575  0.3426
15837TIP3    H269003   2.864   2.933   3.619  1.4929  0.8180 -0.7962
15838TIP3   OH269004   6.611   3.094  16.615  0.1524  0.2107 -0.3675
15838TIP3    H169005   6.550   3.100  16.541  0.7488  0.6788 -0.8315
15838TIP3    H269006   6.692   3.133  16.582  0.3716  0.5768  0.5885
15839TIP3   OH269007   5.329   3.664  12.624 -0.0017 -0.3739  0.3082
15839TIP3    H169008   5.381   3.583  12.624 -0.1139 -0.4642  2.5263
15839TIP3    H269009   5.258   3.646  12.685 -0.9790  0.8127 -0.4788
15840TIP3   OH269010   4.142   5.293   3.689  0.2674 -0.0735 -0.6920
15840TIP3    H169011   4.215   5.235   3.713  0.2403 -0.4950 -1.5832
15840TIP3    H269012   4.112   5.329   3.772  1.4379  0.0412 -0.3040
15841TIP3   OH269013   1.342   1.861  16.081 -0.3777  0.2481  0.2570
15841TIP3    H169014   1.321   1.854  16.174 -2.8498 -0.0310 -0.2985
15841TIP3    H269015   1.365   1.953  16.068  1.9570 -0.1129  1.5007
15842TIP3   OH269016   4.401   4.541   0.707  0.2751  0.2880  0.1766
15842TIP3    H169017   4.426   4.524   0.798  1.1470 -0.0565 -0.1246
15842TIP3    H269018   4.398   4.637   0.700 -1.9601  0.3250  1.1458
15843TIP3   OH269019   3.011   4.992   0.656 -0.1828  0.1638 -0.3982
15843TIP3    H169020   2.945   4.937   0.614 -2.4922  2.2866  0.3745
15843TIP3    H269021   3.017   4.957   0.746  0.6334 -0.7734 -0.8064
15844TIP3   OH269022   1.052   3.240   2.729 -0.5421  0.1797 -0.3694
15844TIP3    H169023   1.122   3.305   2.735 -0.0390 -0.2191 -1.7496
15844TIP3    H269024   1.095   3.157   2.750 -0.5510 -0.0869 -1.3638
15845TIP3   OH269025   1.980   1.141  16.834 -0.9485  0.1583 -0.7493
15845TIP3    H169026   1.983   1.047  16.819 -1.2183  0.0592 -0.1954
15845TIP3    H269027   1.901   1.155  16.886 -1.0630  0.7267 -1.0673
15846TIP3   OH269028   1.110   1.420  12.178 -0.8220  0.7190 -0.7242
15846TIP3    H169029   1.174   1.474  12.132  0.7938 -0.8460 -0.3725
15846TIP3    H269030   1.130   1.433  12.271  0.0028 -0.9413 -0.6489
15847TIP3   OH269031   2.825   6.390   4.157  0.6626  0.7250 -0.4376
15847TIP3    H169032   2.856   6.302   4.136 -1.4770 -0.0625 -0.4851
15847TIP3    H269033   2.731   6.379   4.174  0.0725  3.1995 -1.7387
15848TIP3   OH269034   4.566   6.471  12.572  0.2763 -0.5251  0.1735
15848TIP3    H169035   4.550   6.559  12.538 -0.2421 -0.5706  0.2852
15848TIP3    H269036   4.657   6.452  12.550  1.0928  0.9213  2.0669
15849TIP3   OH269037   3.829   0.693   5.727  0.4186 -0.3763 -0.5820
15849TIP3    H169038   3.848   0.599   5.736 -1.4035 -0.6536  0.7336
15849TIP3    H269039   3.902   0.727   5.675  2.2943 -2.1027  0.8127
15850TIP3   OH269040   0.560   4.150   2.910 -0.3466  0.1135 -0.0333
15850TIP3    H169041   0.643   4.170   2.866 -0.7408  0.8052 -0.4763
15850TIP3    H269042   0.585   4.102   2.989  0.3985 -0.8643 -0.8463
15851TIP3   OH269043   5.031   0.425  16.148 -0.4318 -0.2744  0.0778
15851TIP3    H169044   5.089   0.496  16.176  0.3679 -1.0858  0.5176
15851TIP3    H269045   5.018   0.372  16.227 -2.6964  0.5200  0.2591
15852TIP3   OH269046   1.038   3.227   5.109 -0.8086 -0.0504 -0.1928
15852TIP3    H169047   1.064   3.231   5.201 -0.7329  2.1150 -0.2788
15852TIP3    H269048   1.106   3.275   5.063 -1.0095 -0.8589 -1.3586
15853TIP3   OH269049   6.508   0.870   0.637 -0.0176 -0.1654  0.7740
15853TIP3    H169050   6.441   0.912   0.691  0.2523  0.8404  0.3440
15853TIP3    H269051   6.460   0.832   0.563 -0.4384 -1.9459  1.9504
15854TIP3   OH269052   2.797   0.446  13.855 -0.4253 -0.5242 -0.0957
15854TIP3    H169053   2.755   0.529  13.830 -1.5009 -0.5890  1.3704
15854TIP3    H269054   2.772   0.385  13.786 -1.5922 -0.2015  0.0290
15855TIP3   OH269055   2.150   3.252  13.287  0.4435 -0.1045 -0.0798
15855TIP3    H169056   2.187   3.170  13.321  0.7783  0.4203  0.8218
15855TIP3    H269057   2.158   3.314  13.359 -0.1756  0.6212 -0.6289
15856TIP3   OH269058   6.060   4.604  16.499 -0.5333  0.1248 -0.4303
15856TIP3    H169059   6.014   4.523  16.477 -0.0055 -0.1717 -0.4477
15856TIP3    H269060   6.071   4.648  16.415 -1.0155  0.3129 -0.3925
15857TIP3   OH269061   0.615   3.001   3.560  0.1712 -0.2856 -0.3133
15857TIP3    H169062   0.553   3.023   3.491 -0.5416 -1.1365  0.0574
15857TIP3    H269063   0.576   3.039   3.640  1.0470  0.7990 -0.3785
15858TIP3   OH269064   4.895   1.357   5.830 -0.2669 -0.6151 -0.2064
15858TIP3    H169065   4.988   1.333   5.826 -0.9098 -3.4180  0.3955
15858TIP3    H269066   4.860   1.331   5.745 -0.8145 -0.9346  0.1197
15859TIP3   OH269067   1.556   4.489  15.805 -0.1064 -0.5252 -0.1229
15859TIP3    H169068   1.496   4.472  15.877 -0.7363  1.7205 -0.0716
15859TIP3    H269069   1.553   4.409  15.752 -1.9754 -1.0383  0.7025
15860TIP3   OH269070   6.803   5.630  16.141  0.5053  0.4351 -0.2840
15860TIP3    H169071   6.825   5.588  16.224 -1.6924  0.2885  0.2708
15860TIP3    H269072   6.822   5.565  16.074  1.1485  0.1130  0.2157
15861TIP3   OH269073   0.961   3.980   6.088 -0.3941  0.4837 -0.5417
15861TIP3    H169074   0.939   3.910   6.026 -0.8320  0.9316 -0.8887
15861TIP3    H269075   0.879   3.999   6.132 -0.2783  0.8046 -0.4680
15862TIP3   OH269076   3.367   0.240  17.243 -0.8063 -0.4614  0.2760
15862TIP3    H169077   3.279   0.275  17.246 -0.0748  1.4528  0.0432
15862TIP3    H269078   3.383   0.221  17.150 -0.3478  0.8505  0.0819
15863TIP3   OH269079   6.340   6.355   5.362  0.2609  0.1164 -0.3454
15863TIP3    H169080   6.433   6.364   5.338  0.1865 -0.2509 -0.7801
15863TIP3    H269081   6.342   6.329   5.454  0.5724  0.8050 -0.1532
15864TIP3   OH269082   1.219   3.861  16.075  0.2977  0.3432 -0.3513
15864TIP3    H169083   1.159   3.817  16.015  1.1684 -0.2124 -0.8344
15864TIP3    H269084   1.238   3.796  16.142  0.3756  0.5107 -0.2123
15865TIP3   OH269085   1.306   2.589  12.886 -0.3949 -0.1816 -0.5002
15865TIP3    H169086   1.313   2.573  12.980  1.3151 -0.9250 -0.7263
15865TIP3    H269087   1.247   2.521  12.854  0.0311 -0.7156 -0.1527
15866TIP3   OH269088   4.081   5.104   5.296  0.6456  0.3208 -0.5270
15866TIP3    H169089   4.112   5.056   5.373 -0.5996 -1.1107 -0.8947
15866TIP3    H269090   4.086   5.196   5.322 -1.2968 -0.1939  1.9324
15867TIP3   OH269091   4.568   5.867   0.256 -0.6041  0.2091  0.1692
15867TIP3    H169092   4.519   5.790   0.230 -0.1305  0.7856 -2.5640
15867TIP3    H269093   4.509   5.940   0.239 -0.2214  0.6263  0.6040
15868TIP3   OH269094   1.490   4.674  16.637  0.2970 -0.6173 -0.0061
15868TIP3    H169095   1.519   4.705  16.722  0.3345  2.6449 -1.1216
15868TIP3    H269096   1.429   4.741  16.607  0.0088 -1.8848 -2.3721
15869TIP3   OH269097   3.269   3.711  15.544 -0.4030 -0.3689  0.4384
15869TIP3    H169098   3.334   3.740  15.607  0.6911 -0.1320 -0.7701
15869TIP3    H269099   3.312   3.640  15.495 -0.4165  0.9275 -1.5031
15870TIP3   OH269100   3.509   2.011  13.989 -0.4138 -0.4306 -0.1612
15870TIP3    H169101   3.529   2.076  13.921 -1.8694  0.8859  0.6404
15870TIP3    H269102   3.511   1.927  13.943  3.2476 -0.0408 -0.8619
15871TIP3   OH269103   4.033   1.190  15.187 -0.0560  0.2759  0.5681
15871TIP3    H169104   4.046   1.280  15.218 -1.3085  0.7619 -0.3083
15871TIP3    H269105   4.061   1.191  15.096  0.9317 -0.4929  0.8467
15872TIP3   OH269106   4.922   1.251  12.446 -0.1707  0.3474  0.0659
15872TIP3    H169107   4.920   1.237  12.351 -1.1420  1.4910 -0.1000
15872TIP3    H269108   4.996   1.310  12.460  0.0933  0.0234  0.0472
15873TIP3   OH269109   5.609   1.666  14.788  0.3911 -0.2604 -0.0183
15873TIP3    H169110   5.530   1.613  14.778 -1.6115  2.3077  1.2702
15873TIP3    H269111   5.630   1.660  14.882  0.2277  1.0336  0.1170
15874TIP3   OH269112   0.968   0.136   4.897 -0.0518  0.2587  0.1829
15874TIP3    H169113   1.001   0.118   4.985  0.6647 -2.5313 -0.6074
15874TIP3    H269114   0.873   0.135   4.907  0.0296  0.1178  0.9607
15875TIP3   OH269115   5.495   0.990  12.363  0.2550 -0.5763 -0.2349
15875TIP3    H169116   5.533   0.917  12.413  0.1824 -1.1734 -1.0416
15875TIP3    H269117   5.550   0.997  12.285  0.0554  0.0160 -0.3266
15876TIP3   OH269118   3.919   2.682   1.688  0.2167  0.0595 -0.1577
15876TIP3    H169119   3.928   2.608   1.628 -0.0358 -0.3449  0.3035
15876TIP3    H269120   3.973   2.751   1.649  0.1924 -0.2591 -0.7584
15877TIP3   OH269121   1.784   5.050  13.518  0.0656  0.1382  0.4480
15877TIP3    H169122   1.851   5.110  13.487 -1.8849  2.1752  0.1073
15877TIP3    H269123   1.770   4.989  13.445  0.3833  0.6912 -0.0741
15878TIP3   OH269124   3.981   5.105   1.955 -0.0111  0.1027 -0.8298
15878TIP3    H169125   4.054   5.116   2.015 -0.9343  2.6232 -0.0942
15878TIP3    H269126   3.993   5.018   1.917  2.1484 -0.3729  0.8854
15879TIP3   OH269127   3.513   2.423   2.417  0.2339  0.1382 -0.5680
15879TIP3    H169128   3.542   2.493   2.358  2.1257  0.5139  0.7577
15879TIP3    H269129   3.464   2.362   2.360  1.6831  0.6754 -2.4434
15880TIP3   OH269130   1.103   6.177   1.649 -0.6473 -0.2871  0.0330
15880TIP3    H169131   1.095   6.084   1.670  0.4412 -0.3070  0.3780
15880TIP3    H269132   1.196   6.189   1.631 -0.8462  0.6644 -0.3675
15881TIP3   OH269133   6.731   5.425  10.691  0.1460 -0.2399  0.7053
15881TIP3    H169134   6.656   5.423  10.633  0.5661 -1.0401  0.1750
15881TIP3    H269135   6.721   5.505  10.742 -0.8163 -0.1156  0.3174
15882TIP3   OH269136   2.802   1.480  16.320  0.0415  0.0149  0.0758
15882TIP3    H169137   2.720   1.433  16.331  0.0891 -0.2753 -0.7334
15882TIP3    H269138   2.776   1.563  16.278  0.0798  0.2369  0.4879
15883TIP3   OH269139   0.257   5.421   5.747 -0.3160  0.5176  0.2237
15883TIP3    H169140   0.184   5.476   5.775 -0.7407  0.7400 -1.2550
15883TIP3    H269141   0.238   5.334   5.783 -1.7920  0.3560 -0.8907
15884TIP3   OH269142   0.172   1.681  16.706  0.1902  0.1974  0.1166
15884TIP3    H169143   0.186   1.646  16.617  0.4723 -1.9373  0.9668
15884TIP3    H269144   0.260   1.700  16.739  0.2385 -1.0364  0.7175
15885TIP3   OH269145   2.547   2.339   2.437  0.3092  0.2622 -0.7841
15885TIP3    H169146   2.540   2.348   2.532  0.2029  0.2733 -0.7935
15885TIP3    H269147   2.461   2.362   2.404  1.2125  3.3605 -1.1300
15886TIP3   OH269148   3.051   3.636  16.156  0.3523 -0.2810 -0.8115
15886TIP3    H169149   3.018   3.688  16.083 -1.9227 -0.7126 -0.1414
15886TIP3    H269150   3.086   3.699  16.218 -1.4621  0.3985 -0.4574
15887TIP3   OH269151   6.373   2.872  11.506  0.4533  0.0569  0.1579
15887TIP3    H169152   6.351   2.781  11.486 -0.5530  0.4674 -0.6586
15887TIP3    H269153   6.378   2.875  11.602 -1.7477 -0.3726  0.3215
15888TIP3   OH269154   1.976   4.938   2.372  0.1592  0.4608 -0.3277
15888TIP3    H169155   1.952   5.011   2.430 -1.4473  0.3946 -0.9059
15888TIP3    H269156   1.919   4.866   2.398 -0.8329  0.5388 -2.2085
15889TIP3   OH269157   2.703   2.242  11.942  0.9911  0.8671  0.3610
15889TIP3    H169158   2.718   2.148  11.931  1.7069  0.4397  4.1428
15889TIP3    H269159   2.650   2.248  12.022 -1.0948  3.5918 -1.1453
15890TIP3   OH269160   2.250   5.374   2.651  0.1314 -0.2615 -0.6640
15890TIP3    H169161   2.224   5.296   2.601 -0.4116  1.4411 -3.1200
15890TIP3    H269162   2.343   5.383   2.635 -0.4034  1.3896 -3.0148
15891TIP3   OH269163   4.695   5.640  14.027 -0.4216 -0.3555 -0.3112
15891TIP3    H169164   4.779   5.598  14.006 -0.9285 -0.8887 -1.2986
15891TIP3    H269165   4.647   5.639  13.945 -1.0671  0.7348  0.0516
15892TIP3   OH269166   2.975   2.518  11.579  0.8603 -0.2669 -0.3015
15892TIP3    H169167   2.881   2.536  11.566  1.5768  2.1550 -2.4397
15892TIP3    H269168   2.981   2.493  11.672 -1.8312  0.0055 -0.0052
15893TIP3   OH269169   4.237   0.438   0.988 -0.1700  0.7282 -0.4024
15893TIP3    H169170   4.284   0.473   0.912 -0.2037 -0.0807 -0.8022
15893TIP3    H269171   4.254   0.344   0.986 -0.0978  0.7112  0.6529
15894TIP3   OH269172   1.717   1.253   1.644  0.7536 -0.7020  0.0596
15894TIP3    H169173   1.675   1.337   1.632  0.5764 -0.8884 -0.6192
15894TIP3    H269174   1.697   1.204   1.565 -2.0049 -2.6241  1.8423
15895TIP3   OH269175   4.403   5.316  16.513  0.3965 -0.2031  0.2678
15895TIP3    H169176   4.317   5.339  16.477  0.0025  1.0332  1.9690
15895TIP3    H269177   4.425   5.233  16.470 -1.1945 -0.0302 -0.9246
15896TIP3   OH269178   3.125   5.698  11.000  0.5004 -0.1249 -0.0508
15896TIP3    H169179   3.209   5.652  10.995  0.2367 -0.8604  1.6824
15896TIP3    H269180   3.140   5.782  10.958  1.6585 -0.8862 -1.1744
15897TIP3   OH269181   0.918   1.842  14.086  0.1253 -0.7017 -0.1072
15897TIP3    H169182   0.922   1.904  14.013 -0.0491 -1.8016 -1.0627
15897TIP3    H269183   0.961   1.887  14.158  1.2260 -0.0005 -1.1790
15898TIP3   OH269184   2.286   0.604  12.104 -0.3113  0.1627 -0.0766
15898TIP3    H169185   2.293   0.534  12.039 -2.1198  1.5783 -1.8793
15898TIP3    H269186   2.270   0.683  12.052 -2.5432  1.2083  2.1134
15899TIP3   OH269187   5.296   4.178  16.331 -0.1546  0.0915 -0.4403
15899TIP3    H169188   5.238   4.210  16.262 -0.0937  0.2505 -0.4165
15899TIP3    H269189   5.385   4.193  16.297 -0.1020  1.5625  0.2913
15900TIP3   OH269190   0.926   0.035   3.369 -0.0623  0.3977  0.0885
15900TIP3    H169191   0.854   0.056   3.429  1.6116 -0.1603  2.3531
15900TIP3    H269192   0.990   0.104   3.384 -0.5049  1.4709 -2.6625
15901TIP3   OH269193   2.968   2.992   4.516  0.1957 -0.2055 -0.2104
15901TIP3    H169194   2.934   3.081   4.522 -0.9969 -0.6918  0.3645
15901TIP3    H269195   2.973   2.962   4.606  2.0946 -0.1762 -0.2970
15902TIP3   OH269196   2.764   0.569  16.869 -0.4238 -0.3079 -0.3359
15902TIP3    H169197   2.800   0.619  16.795 -0.8366 -0.3180 -0.5429
15902TIP3    H269198   2.814   0.487  16.868 -0.0525 -0.0836 -0.2697
15903TIP3   OH269199   3.491   1.009  11.908  1.0328 -0.3174  0.0692
15903TIP3    H169200   3.448   0.996  11.992 -0.9438  0.0555 -0.8648
15903TIP3    H269201   3.491   1.104  11.896 -0.8107 -0.4776 -1.4103
15904TIP3   OH269202   1.466   5.166  13.515  0.2755 -0.5393 -0.0595
15904TIP3    H169203   1.459   5.086  13.464 -0.6248 -1.2171  1.1099
15904TIP3    H269204   1.427   5.145  13.600  1.0593  0.7928  0.6563
15905TIP3   OH269205   1.011   3.554  17.178 -0.0607 -0.0048 -0.0655
15905TIP3    H169206   1.038   3.464  17.158 -0.3741 -0.0474 -0.3086
15905TIP3    H269207   1.091   3.597  17.208  0.5269  0.2016 -1.9173
15906TIP3   OH269208   5.056   0.925  15.157  0.2312  0.6380  0.1534
15906TIP3    H169209   4.981   0.941  15.215 -0.1381  2.2331 -0.7582
15906TIP3    H269210   5.124   0.892  15.216 -1.0327 -0.4362  1.0565
15907TIP3   OH269211   0.764   1.180  14.803  1.0391 -0.0602 -0.6597
15907TIP3    H169212   0.857   1.196  14.820  0.6675 -0.4762  2.0956
15907TIP3    H269213   0.760   1.088  14.776  1.5880  0.3767 -2.2383
15908TIP3   OH269214   1.823   0.119  13.286  0.2531  0.6469  0.0535
15908TIP3    H169215   1.872   0.067  13.350 -0.6453 -0.4515 -0.1292
15908TIP3    H269216   1.870   0.106  13.204 -1.6933 -2.4783 -0.6809
15909TIP3   OH269217   3.157   4.986   5.226  0.3099  0.6038 -0.4997
15909TIP3    H169218   3.095   5.047   5.187 -0.3294  0.0220 -0.4002
15909TIP3    H269219   3.234   4.991   5.169 -0.6631 -0.3268 -1.9145
15910TIP3   OH269220   4.111   6.543   0.613 -0.3629  0.0222 -0.0583
15910TIP3    H169221   4.062   6.553   0.695  1.7896  3.7646  0.8804
15910TIP3    H269222   4.052   6.575   0.546 -1.0172 -0.1308  0.4407
15911TIP3   OH269223   5.865   4.332   2.108  0.1819 -0.2962  0.4532
15911TIP3    H169224   5.833   4.247   2.139  3.3287 -1.5978  0.4045
15911TIP3    H269225   5.935   4.309   2.046 -0.5386  2.3406 -1.4262
15912TIP3   OH269226   0.658   5.446   5.509 -0.2117 -0.0057  0.4847
15912TIP3    H169227   0.626   5.424   5.597 -0.2037 -1.0326  0.2334
15912TIP3    H269228   0.586   5.495   5.469 -0.7375 -0.6884  0.5888
15913TIP3   OH269229   2.399   3.835  12.642  0.1247  0.1077 -0.5689
15913TIP3    H169230   2.368   3.926  12.635  0.4723  0.2224 -0.5972
15913TIP3    H269231   2.471   3.829  12.579 -0.8055 -0.5731 -1.6065
15914TIP3   OH269232   2.402   4.377   0.703 -0.1947  0.5722 -0.6491
15914TIP3    H169233   2.447   4.374   0.619 -0.0476 -0.0987 -0.5476
15914TIP3    H269234   2.332   4.311   0.696  1.1296 -0.9836  0.4984
15915TIP3   OH269235   4.256   3.578  14.976 -0.4722  0.2106  0.3984
15915TIP3    H169236   4.305   3.539  14.904 -0.5288  0.9754 -0.0647
15915TIP3    H269237   4.232   3.665  14.944 -1.5798  0.0881  0.8701
15916TIP3   OH269238   3.752   4.804  12.605 -0.0663 -0.5430  0.1424
15916TIP3    H169239   3.822   4.791  12.669  1.5085 -0.3504 -1.5096
15916TIP3    H269240   3.767   4.893  12.571 -0.6285 -0.8057 -0.8111
15917TIP3   OH269241   0.176   6.590  16.736 -0.1381  0.3254 -0.0218
15917TIP3    H169242   0.137   6.637  16.809 -1.5193 -1.1365  0.1901
15917TIP3    H269243   0.270   6.608  16.743 -0.6584  3.3914 -0.1919
15918TIP3   OH269244   5.110   3.694  11.744 -0.1350  0.2037 -0.1487
15918TIP3    H169245   5.036   3.654  11.698 -0.5641  0.0331  0.6760
15918TIP3    H269246   5.069   3.754  11.807  0.3566 -1.1629  1.5025
15919TIP3   OH269247   0.417   3.082  16.823  0.3240  0.2249 -0.1974
15919TIP3    H169248   0.505   3.045  16.830 -0.0039 -0.5619 -0.2094
15919TIP3    H269249   0.366   3.037  16.890 -0.4289 -0.3713 -1.1548
15920TIP3   OH269250   1.179   1.502  13.257  0.6110  0.0149 -0.0123
15920TIP3    H169251   1.145   1.556  13.185 -0.3473  0.8365  1.0253
15920TIP3    H269252   1.272   1.522  13.259  0.8174 -0.7529 -1.6441
15921TIP3   OH269253   4.693   0.923   6.001 -0.1531 -0.7543 -0.2380
15921TIP3    H169254   4.639   0.943   5.925  1.5023  3.0434 -0.5388
15921TIP3    H269255   4.783   0.932   5.969  0.5781 -0.5151  1.8212
15922TIP3   OH269256   0.224   5.885  16.457 -0.1221 -0.2506 -0.1470
15922TIP3    H169257   0.258   5.882  16.546 -3.0851  2.8513  1.1896
15922TIP3    H269258   0.258   5.965  16.420 -3.2038  1.2824  0.1453
15923TIP3   OH269259   4.504   1.407   2.255  0.5292  0.2995 -0.1566
15923TIP3    H169260   4.546   1.490   2.280  3.2690 -1.2117  0.4507
15923TIP3    H269261   4.428   1.400   2.313  0.5418  2.1599  0.1100
15924TIP3   OH269262   2.550   1.434  14.033  0.2852  0.3185 -0.1855
15924TIP3    H169263   2.502   1.422  14.115  0.7348 -0.2129  0.0099
15924TIP3    H269264   2.509   1.509  13.991 -2.0604 -1.3824 -0.9902
15925TIP3   OH269265   1.106   4.061  15.401 -0.0627  0.4325 -0.5941
15925TIP3    H169266   1.191   4.027  15.371 -0.9741 -1.1605 -1.4361
15925TIP3    H269267   1.049   4.052  15.325 -2.2185 -2.9225  1.3337
15926TIP3   OH269268   4.847   5.631  12.904 -0.9976  0.4477 -0.0098
15926TIP3    H169269   4.756   5.603  12.911 -1.0702  0.7976  0.4667
15926TIP3    H269270   4.872   5.609  12.814 -1.5485  0.3411 -0.1363
15927TIP3   OH269271   0.986   5.849  16.280 -0.2627 -0.7116  0.0399
15927TIP3    H169272   0.937   5.796  16.342 -1.8869  0.7201  0.0095
15927TIP3    H269273   1.063   5.796  16.259 -0.8820 -2.2186  1.4490
15928TIP3   OH269274   2.393   3.408   4.764 -0.1089 -0.3639 -0.0795
15928TIP3    H169275   2.386   3.502   4.751  3.2870 -0.0469 -0.1891
15928TIP3    H269276   2.370   3.370   4.679 -0.9438  0.3890 -0.1960
15929TIP3   OH269277   5.718   4.253   2.775 -0.0182  0.0797  0.1355
15929TIP3    H169278   5.657   4.198   2.824  0.4245  0.4246  1.0877
15929TIP3    H269279   5.803   4.234   2.813  0.5921 -0.9902 -1.7289
15930TIP3   OH269280   4.503   2.555   5.301 -0.2732  0.3075 -0.0935
15930TIP3    H169281   4.526   2.648   5.291 -0.3729  0.5013  1.2972
15930TIP3    H269282   4.428   2.543   5.244  1.1400  0.5172 -2.0444
15931TIP3   OH269283   1.307   5.308   3.044  0.4181 -0.1107  0.0605
15931TIP3    H169284   1.273   5.257   3.118  0.0417 -0.6049 -0.4589
15931TIP3    H269285   1.229   5.331   2.993  0.9005 -1.5727 -1.3425
15932TIP3   OH269286   6.556   3.510   2.679  0.0104 -0.0024  0.7263
15932TIP3    H169287   6.638   3.466   2.701  0.0028 -1.0033 -1.1477
15932TIP3    H269288   6.516   3.530   2.764  2.7212  1.5715  1.7057
15933TIP3   OH269289   3.740   1.515  12.646  0.6744  0.2506  0.1900
15933TIP3    H169290   3.682   1.449  12.608  2.1888 -0.2623 -1.2840
15933TIP3    H269291   3.756   1.577  12.575  2.8196 -0.2249  0.2110
15934TIP3   OH269292   1.352   4.901  11.378 -0.3525 -0.0842 -0.5767
15934TIP3    H169293   1.299   4.848  11.319 -0.4645  0.7437 -1.2315
15934TIP3    H269294   1.435   4.854  11.384 -0.7870 -0.8398 -0.3703
15935TIP3   OH269295   4.389   2.289   4.027 -0.1806  0.4888  0.2596
15935TIP3    H169296   4.440   2.210   4.009  0.1990  0.6807  0.4736
15935TIP3    H269297   4.338   2.303   3.947  1.0187  0.9703 -0.4407
15936TIP3   OH269298   1.360   1.290  15.849  0.0334 -0.4611  0.8508
15936TIP3    H169299   1.325   1.233  15.780  0.1296 -1.5126  1.6637
15936TIP3    H269300   1.429   1.341  15.805 -1.6480  0.7674 -0.4696
15937TIP3   OH269301   1.057   0.094  11.407  0.0397  0.6417 -0.0773
15937TIP3    H169302   1.098   0.145  11.337  2.3124 -1.1803 -0.1223
15937TIP3    H269303   0.991   0.153  11.443  2.8827  3.8566  0.1998
15938TIP3   OH269304   1.992   4.432  11.767 -0.0648  0.4518  0.2101
15938TIP3    H169305   1.922   4.454  11.705 -0.5096  2.0657  1.2717
15938TIP3    H269306   1.949   4.379  11.834 -0.5496  2.3994  1.4756
15939TIP3   OH269307   0.051   5.585   3.957  0.0785  0.1350  0.5003
15939TIP3    H169308   0.004   5.641   4.018 -1.9064  1.2242 -1.9158
15939TIP3    H269309   0.096   5.646   3.899 -0.2231 -0.7921 -0.7296
15940TIP3   OH269310   0.862   6.269  16.615  0.0739  0.0830  0.0255
15940TIP3    H169311   0.933   6.332  16.616  0.0778  0.1759 -2.5949
15940TIP3    H269312   0.789   6.314  16.659  0.0565  1.9556 -1.8509
15941TIP3   OH269313   0.247   3.685   4.638 -0.2512  0.7551  0.0478
15941TIP3    H169314   0.318   3.734   4.681  0.3106 -0.7757  0.9280
15941TIP3    H269315   0.178   3.682   4.704  0.1399 -0.5493  0.4168
15942TIP3   OH269316   2.451   6.338  12.437  0.6187 -0.2943  0.3825
15942TIP3    H169317   2.390   6.396  12.482  1.3764 -0.3365  1.4962
15942TIP3    H269318   2.513   6.396  12.394  0.8865 -0.2544  0.8113
15943TIP3   OH269319   1.166   6.364  13.523 -0.0009 -0.2032  0.0079
15943TIP3    H169320   1.154   6.407  13.608 -1.3755 -1.2384  0.3595
15943TIP3    H269321   1.136   6.429  13.459 -1.8209 -0.5138  0.5180
15944TIP3   OH269322   1.838   4.394   5.078 -0.2858  0.4855  0.3690
15944TIP3    H169323   1.886   4.338   5.138 -0.4732  1.1309  1.1403
15944TIP3    H269324   1.778   4.335   5.033 -0.1862 -0.0028  0.8615
15945TIP3   OH269325   4.399   1.745  15.845  0.5162  0.1725  0.1792
15945TIP3    H169326   4.416   1.663  15.891 -0.6140 -0.3643 -0.3602
15945TIP3    H269327   4.426   1.813  15.908  0.5074 -0.5791  1.0121
15946TIP3   OH269328   1.093   0.945  15.321 -0.2403  0.1311 -0.2546
15946TIP3    H169329   1.168   0.952  15.380 -1.2068 -0.4231  1.0723
15946TIP3    H269330   1.076   0.850  15.316 -1.1587  0.2848 -0.1315
15947TIP3   OH269331   3.794   1.192   4.086 -0.1262 -0.3135 -0.9537
15947TIP3    H169332   3.842   1.183   4.168 -0.8971 -0.8738 -0.5594
15947TIP3    H269333   3.830   1.272   4.046  1.4558 -0.9718 -0.8947
15948TIP3   OH269334   5.546   0.023   1.799 -0.3018  0.3278 -0.5797
15948TIP3    H169335   5.578  -0.061   1.832 -1.2685  0.2319  0.1457
15948TIP3    H269336   5.536   0.009   1.705  0.4267 -0.0777 -0.6005
15949TIP3   OH269337   1.298   6.339  11.985  0.4485  0.3504 -0.3127
15949TIP3    H169338   1.223   6.279  11.985  2.7837 -2.6919 -0.9235
15949TIP3    H269339   1.279   6.401  11.915 -0.9855 -1.0729 -1.2183
15950TIP3   OH269340   2.699   5.773   4.427 -0.3018  0.0577 -0.1755
15950TIP3    H169341   2.747   5.836   4.480 -1.1687  0.4181  0.1945
15950TIP3    H269342   2.748   5.768   4.345 -0.7094  1.9078 -0.5637
15951TIP3   OH269343   2.274   4.398  14.618  0.0229 -0.1948  0.3599
15951TIP3    H169344   2.185   4.391  14.583  0.4714  1.1637 -1.1107
15951TIP3    H269345   2.267   4.464  14.687  0.4072  2.1444 -1.7352
15952TIP3   OH269346   0.704   2.127   2.146  0.6359 -0.2561 -0.1699
15952TIP3    H169347   0.726   2.207   2.194 -1.2366 -0.2462  0.6891
15952TIP3    H269348   0.728   2.147   2.055  0.7014  1.0783  0.1296
15953TIP3   OH269349   5.608   4.946  14.505  0.7060 -0.6878 -0.5343
15953TIP3    H169350   5.517   4.977  14.507  0.1765 -2.2869  1.9490
15953TIP3    H269351   5.620   4.917  14.414 -0.9957  0.2611 -1.1106
15954TIP3   OH269352   0.202   5.637   5.522  0.0308  0.6025  0.5965
15954TIP3    H169353   0.126   5.669   5.474 -0.9390 -0.1054  1.6467
15954TIP3    H269354   0.172   5.557   5.564  2.4311 -1.8197 -2.0554
15955TIP3   OH269355   0.644   3.416   4.649  0.9234 -0.0432 -0.5374
15955TIP3    H169356   0.673   3.507   4.646  1.1122 -0.1711 -2.8840
15955TIP3    H269357   0.644   3.387   4.558 -0.6791 -1.9070  0.0165
15956TIP3   OH269358   3.123   1.408  15.182  0.6391 -0.0381 -0.2568
15956TIP3    H169359   3.196   1.450  15.136  0.9670 -0.6777 -0.3175
15956TIP3    H269360   3.143   1.315  15.180  0.1191 -0.1653  0.2514
15957TIP3   OH269361   5.599   3.174   2.501  0.2578  0.4418 -0.2253
15957TIP3    H169362   5.533   3.231   2.541 -0.3761 -1.8897  2.2031
15957TIP3    H269363   5.560   3.147   2.418 -0.6791  1.2144 -0.0424
15958TIP3   OH269364   1.682   0.157  13.613  0.2251 -0.0381 -0.0878
15958TIP3    H169365   1.649   0.068  13.600  1.0468 -0.0913 -1.9801
15958TIP3    H269366   1.717   0.182  13.527 -1.2463  2.6363  0.0450
15959TIP3   OH269367   0.432   2.998   3.786 -0.3239  0.2498 -0.3229
15959TIP3    H169368   0.452   2.908   3.760  3.0974  1.0909 -0.7417
15959TIP3    H269369   0.389   2.989   3.871  0.3136 -1.7465 -0.1944
15960TIP3   OH269370   6.395   6.791   1.883  0.2800 -0.2566  0.2176
15960TIP3    H169371   6.448   6.758   1.955 -0.1805  2.3100  1.7868
15960TIP3    H269372   6.455   6.792   1.808  1.2166 -1.4558  0.9454
15961TIP3   OH269373   1.869   5.301  11.808  0.2711 -0.4417  0.4028
15961TIP3    H169374   1.852   5.284  11.900 -0.4838 -0.1334  0.3283
15961TIP3    H269375   1.959   5.271  11.794  1.0255  1.1395  1.6563
15962TIP3   OH269376   0.661   0.602  12.579  0.0669  0.3441 -0.1857
15962TIP3    H169377   0.646   0.688  12.618  0.1865  0.2261  0.1230
15962TIP3    H269378   0.715   0.556  12.643  2.1958  0.9297 -1.5266
15963TIP3   OH269379   5.956   2.199  15.003 -0.8046  0.3181  0.0084
15963TIP3    H169380   6.010   2.135  14.956 -1.4787 -0.4871  0.3144
15963TIP3    H269381   5.904   2.241  14.935 -1.6715 -0.7410  0.0106
15964TIP3   OH269382   4.551   0.595  11.498  0.3897 -0.2690 -0.4578
15964TIP3    H169383   4.528   0.589  11.405  1.8347  0.7266 -0.9022
15964TIP3    H269384   4.534   0.508  11.533 -0.8351 -0.4513 -1.5023
15965TIP3   OH269385   1.820   0.732  10.485 -0.3547 -0.0785  0.2989
15965TIP3    H169386   1.798   0.640  10.471 -0.0893 -0.4697  2.2745
15965TIP3    H269387   1.915   0.732  10.496 -0.2753  0.5373 -0.3422
15966TIP3   OH269388   4.219   4.413  16.120  0.4469  0.6765 -0.1267
15966TIP3    H169389   4.175   4.488  16.160  0.8557  0.4701  0.7210
15966TIP3    H269390   4.212   4.428  16.025 -2.6545 -0.0379 -0.0662
15967TIP3   OH269391   3.439   3.916   1.254 -0.4890 -0.2231 -0.1389
15967TIP3    H169392   3.380   3.845   1.279  0.7175 -1.4055 -0.5832
15967TIP3    H269393   3.411   3.941   1.166 -1.0939  0.0637  0.1284
15968TIP3   OH269394   5.629   0.603  11.837  0.2933 -0.1193 -0.6542
15968TIP3    H169395   5.608   0.686  11.793  0.5305  0.1113 -0.3396
15968TIP3    H269396   5.548   0.577  11.880  0.9118  1.3766  1.5472
15969TIP3   OH269397   0.176   6.626  12.704 -0.0550  0.5342  0.1454
15969TIP3    H169398   0.095   6.579  12.722  0.8102 -1.3304 -0.6555
15969TIP3    H269399   0.187   6.618  12.609  1.2849  0.3579  0.3033
15970TIP3   OH269400   4.456   1.515   4.956  0.2140  0.4684  0.6137
15970TIP3    H169401   4.540   1.562   4.967  0.4841 -0.1911  1.4361
15970TIP3    H269402   4.435   1.484   5.044  0.5257 -1.8105 -0.1030
15971TIP3   OH269403   1.548   3.925  12.772  0.0120 -0.0776  0.2764
15971TIP3    H169404   1.485   3.925  12.843 -1.1341  1.4129 -0.7061
15971TIP3    H269405   1.499   3.898  12.695  0.1184  2.6661 -0.8240
15972TIP3   OH269406   1.896   0.839   1.478 -0.1661  0.1146 -0.9445
15972TIP3    H169407   1.919   0.789   1.556 -0.6841  0.7915 -0.3529
15972TIP3    H269408   1.969   0.824   1.418  0.2452 -0.3904 -0.3285
15973TIP3   OH269409   4.709   2.470   3.147  0.4885 -0.3086  0.1264
15973TIP3    H169410   4.752   2.405   3.203 -0.7502 -0.1524  1.2939
15973TIP3    H269411   4.623   2.431   3.127  0.5052  0.1098 -0.7906
15974TIP3   OH269412   6.036   5.659  11.345 -0.2558 -0.8933 -0.1518
15974TIP3    H169413   5.973   5.587  11.340  0.3216 -1.4039 -0.1182
15974TIP3    H269414   5.982   5.738  11.343 -1.0240 -1.3418  1.3898
15975TIP3   OH269415   0.041   3.909   6.291 -0.0773  0.1238  0.1497
15975TIP3    H169416   0.088   3.920   6.373  2.4274 -0.7065 -1.1180
15975TIP3    H269417  -0.014   3.832   6.305 -0.5614  0.6961  1.4345
15976TIP3   OH269418   5.445   6.162  14.397 -0.1618 -0.3814  0.1245
15976TIP3    H169419   5.417   6.158  14.305  1.4170  1.3069 -0.4589
15976TIP3    H269420   5.509   6.092  14.406 -0.9262 -1.0789  0.1601
15977TIP3   OH269421   3.950   0.909  11.223  0.1429  0.4305 -0.6083
15977TIP3    H169422   3.933   0.947  11.137 -0.0530 -1.8402 -1.6196
15977TIP3    H269423   3.889   0.836  11.229 -0.4142  1.0772  1.8222
15978TIP3   OH269424   1.925   4.477   0.949  0.2994  0.1070  0.3892
15978TIP3    H169425   1.919   4.384   0.971 -0.1572  0.1316  0.3799
15978TIP3    H269426   1.997   4.482   0.886 -0.3048 -0.3755 -0.3444
15979TIP3   OH269427   4.562   3.182  16.443 -0.1613 -0.1118  0.4271
15979TIP3    H169428   4.603   3.229  16.516 -1.0182 -1.8195  2.0619
15979TIP3    H269429   4.469   3.206  16.449 -0.0232  0.8566 -1.0069
15980TIP3   OH269430   2.590   3.641   5.719  0.4586 -0.1874  0.2669
15980TIP3    H169431   2.574   3.547   5.712  0.7548 -0.3131  1.2210
15980TIP3    H269432   2.649   3.661   5.646  0.5222 -0.7711  0.1598
15981TIP3   OH269433   5.855   5.473   3.705 -0.8424  0.6699 -0.0771
15981TIP3    H169434   5.900   5.425   3.774  0.9739  1.7984 -0.4641
15981TIP3    H269435   5.861   5.416   3.628 -0.1080  0.8038 -0.1184
15982TIP3   OH269436   2.475   0.542   6.403 -0.0124 -0.0086 -0.4951
15982TIP3    H169437   2.388   0.550   6.364  0.1364  0.9860 -0.6545
15982TIP3    H269438   2.527   0.610   6.359  0.8841 -0.6970 -0.5130
15983TIP3   OH269439   4.334   0.216   4.198  0.2530 -0.1958 -0.2918
15983TIP3    H169440   4.404   0.168   4.241 -0.1167 -0.8873 -0.4368
15983TIP3    H269441   4.293   0.266   4.268 -0.2277 -1.1688  0.1435
15984TIP3   OH269442   1.792   1.422  10.982  0.0861 -0.4681  0.2521
15984TIP3    H169443   1.794   1.448  10.890 -0.1775 -1.4027 -0.0239
15984TIP3    H269444   1.743   1.340  10.983  0.1630 -0.5125  1.2166
15985TIP3   OH269445   5.434   2.023   4.063 -0.1667 -0.1299  0.0935
15985TIP3    H169446   5.493   1.985   3.997  0.0099 -0.2525  0.3201
15985TIP3    H269447   5.492   2.055   4.132 -0.3648 -0.2392  0.3125
15986TIP3   OH269448   4.833   4.443   1.656 -0.2846 -0.2855  0.0071
15986TIP3    H169449   4.883   4.404   1.584 -0.9234  0.6587 -0.9493
15986TIP3    H269450   4.798   4.367   1.704 -1.5713 -0.9407 -1.8785
15987TIP3   OH269451   4.734   0.090  14.108  0.4645  0.4526  0.0457
15987TIP3    H169452   4.711   0.172  14.152 -0.5506 -0.7966  1.9437
15987TIP3    H269453   4.814   0.060  14.152 -1.2799 -1.4691  2.0526
15988TIP3   OH269454   3.750   5.663   0.671 -0.1101  0.8230  0.4188
15988TIP3    H169455   3.756   5.628   0.582 -0.9504  1.7217 -0.0031
15988TIP3    H269456   3.830   5.634   0.714 -0.1170 -0.3716 -0.3627
15989TIP3   OH269457   3.848   0.390  11.897  0.3935  0.1311  0.0827
15989TIP3    H169458   3.771   0.417  11.947  1.0736 -1.1667  1.8865
15989TIP3    H269459   3.867   0.464  11.840 -1.2833  1.0627  0.7102
15990TIP3   OH269460   1.612   3.333  11.292 -0.6600 -0.3622 -0.2108
15990TIP3    H169461   1.594   3.245  11.259  1.2725 -1.5732  1.8468
15990TIP3    H269462   1.563   3.338  11.375  0.7298 -0.2016  0.6123
15991TIP3   OH269463   0.008   2.701   4.798 -0.0418  0.0902 -0.2507
15991TIP3    H169464  -0.020   2.729   4.886 -0.0368  0.0417 -0.2336
15991TIP3    H269465  -0.059   2.638   4.771  0.6811 -0.9310  0.2790
15992TIP3   OH269466   6.650   4.888   3.892  0.2223  0.1496  0.3007
15992TIP3    H169467   6.656   4.956   3.825  3.2256 -0.7133 -0.3633
15992TIP3    H269468   6.640   4.807   3.843  1.4413 -0.3804  0.9037
15993TIP3   OH269469   4.426   0.590  12.654 -0.1729 -0.3001 -0.1309
15993TIP3    H169470   4.464   0.571  12.741  0.2724  0.0676 -0.2401
15993TIP3    H269471   4.336   0.615  12.672  0.4720  1.7191  0.4282
15994TIP3   OH269472   5.920   0.253  14.279 -0.7057  0.8638 -0.2815
15994TIP3    H169473   5.986   0.235  14.346  0.5329 -1.0853 -1.9543
15994TIP3    H269474   5.873   0.330  14.311  1.9439  1.8955  1.2795
15995TIP3   OH269475   5.611   2.254   1.873  0.1607  0.7374  0.4191
15995TIP3    H169476   5.700   2.281   1.899  0.4829  0.5430 -0.4739
15995TIP3    H269477   5.559   2.265   1.953  1.3791 -0.9082  1.4827
15996TIP3   OH269478   4.463   4.826   4.901 -0.4116 -0.0876  0.7144
15996TIP3    H169479   4.468   4.831   4.996  0.6929  0.3370  0.6436
15996TIP3    H269480   4.503   4.742   4.879 -1.0075 -0.3564  0.6448
15997TIP3   OH269481   6.625   6.183  16.567 -0.1612 -0.3606  0.5659
15997TIP3    H169482   6.716   6.212  16.572 -0.2228 -0.4854  3.0351
15997TIP3    H269483   6.625   6.116  16.499  1.9322 -1.5136  1.6488
15998TIP3   OH269484   6.622   1.849   4.945  0.1378 -0.0434 -0.6165
15998TIP3    H169485   6.546   1.802   4.912  0.5973 -0.4452 -1.1220
15998TIP3    H269486   6.606   1.859   5.038 -1.4523  1.6161 -1.0364
15999TIP3   OH269487   5.108   2.101  14.589  0.0813  0.4127  0.0769
15999TIP3    H169488   5.173   2.070  14.652 -0.5807  0.7683  0.9461
15999TIP3    H269489   5.119   2.043  14.514  0.6889 -0.2019  0.6217
16000TIP3   OH269490   4.444   5.640   1.206 -0.0347  0.1070  0.0379
16000TIP3    H169491   4.504   5.577   1.245 -0.2356 -1.1392 -1.6183
16000TIP3    H269492   4.492   5.679   1.134 -0.9420 -0.3747 -0.8471
16001TIP3   OH269493   1.221   2.386  16.704  0.2763 -0.1463 -0.5489
16001TIP3    H169494   1.279   2.409  16.776  0.8876 -0.0429 -1.0733
16001TIP3    H269495   1.255   2.302  16.672 -0.0508 -0.2400 -0.6538
16002TIP3   OH269496   6.035   3.817   2.217  0.3146  0.1095  0.0682
16002TIP3    H169497   5.974   3.749   2.246 -1.7758  0.9715 -2.1265
16002TIP3    H269498   6.121   3.779   2.230 -0.7896 -2.7092 -0.4164
16003TIP3   OH269499   0.410   2.412   3.286 -0.0100 -0.1167 -0.8566
16003TIP3    H169500   0.427   2.478   3.352 -1.8056 -0.1081 -0.3623
16003TIP3    H269501   0.437   2.329   3.326 -1.3656 -0.1507  0.0364
16004TIP3   OH269502   4.349   6.709  14.835 -0.1565 -0.1148  0.3667
16004TIP3    H169503   4.411   6.764  14.786 -0.4401  0.3163  0.4841
16004TIP3    H269504   4.396   6.627  14.850  0.3885  0.2117  0.4598
16005TIP3   OH269505   0.981   3.220  14.161 -0.3267 -0.0126  0.4498
16005TIP3    H169506   1.004   3.311  14.143  0.1153 -0.9416 -4.0089
16005TIP3    H269507   1.053   3.187  14.215  1.4773  1.2024 -1.1651
16006TIP3   OH269508   0.453   3.907   2.500 -0.2195  0.3474  1.1331
16006TIP3    H169509   0.549   3.904   2.499 -0.2450 -0.2287  0.6358
16006TIP3    H269510   0.430   3.966   2.429 -0.2418  0.4187  1.1990
16007TIP3   OH269511   1.145   3.696   5.591  0.3563  0.6450 -0.3121
16007TIP3    H169512   1.051   3.680   5.588  0.0103  2.3014  0.7247
16007TIP3    H269513   1.182   3.635   5.528 -1.5921  1.2275 -2.0765
16008TIP3   OH269514   5.222   1.969  14.290  0.3379 -0.1568 -0.4081
16008TIP3    H169515   5.161   1.993  14.221  0.4614 -0.9455 -0.7919
16008TIP3    H269516   5.172   1.910  14.347 -0.7106  2.7537  1.8249
16009TIP3   OH269517   1.567   1.321   3.834 -0.1801 -0.2466 -0.7436
16009TIP3    H169518   1.616   1.247   3.870 -0.3652  0.7911  1.7744
16009TIP3    H269519   1.564   1.305   3.740  1.7035 -2.2793 -0.4909
16010TIP3   OH269520   1.542   3.950  12.439 -0.0474 -0.5665 -0.5064
16010TIP3    H169521   1.492   3.878  12.403  1.0363 -1.4043 -0.3619
16010TIP3    H269522   1.634   3.928  12.421  0.4306 -0.2470  1.3529
16011TIP3   OH269523   0.792   1.855  17.004  0.0003 -0.0716 -0.2700
16011TIP3    H169524   0.740   1.833  17.081 -2.1919  0.7307 -1.4936
16011TIP3    H269525   0.769   1.788  16.940 -2.1314  2.1945 -1.9553
16012TIP3   OH269526   5.410   3.949   2.053 -0.0290 -0.6415 -0.1790
16012TIP3    H169527   5.458   4.028   2.077 -1.0409 -0.1091  0.1445
16012TIP3    H269528   5.476   3.889   2.020  1.2115 -0.8582  2.5902
16013TIP3   OH269529   3.267   2.162  12.548 -0.8588  0.1723  0.0031
16013TIP3    H169530   3.231   2.163  12.637  2.2903  2.6106  1.3266
16013TIP3    H269531   3.309   2.077  12.540 -0.5571  0.2156  1.0959
16014TIP3   OH269532   2.467   2.254  11.811  0.0308  0.6731 -0.2181
16014TIP3    H169533   2.557   2.267  11.841  0.2325  0.2364 -0.6146
16014TIP3    H269534   2.433   2.185  11.869  1.1442 -1.7683 -2.3654
16015TIP3   OH269535   4.577   3.185  12.569 -0.2082 -0.1163  0.1605
16015TIP3    H169536   4.661   3.148  12.541 -0.3848  0.7148 -1.5671
16015TIP3    H269537   4.599   3.239  12.645  1.0110  0.7907 -0.8014
16016TIP3   OH269538   2.474   2.300  13.535 -0.4443  0.0601 -0.1329
16016TIP3    H169539   2.461   2.210  13.566  1.4076 -0.2675 -0.2503
16016TIP3    H269540   2.533   2.291  13.460 -1.0779  1.2811 -0.7737
16017TIP3   OH269541   1.310   0.396  15.203 -0.2201 -0.2560  0.0444
16017TIP3    H169542   1.226   0.433  15.231  0.1035  0.9531 -0.5187
16017TIP3    H269543   1.307   0.305  15.230 -1.9286 -0.3526 -0.4140
16018TIP3   OH269544   2.091   4.777   1.937  0.0318 -0.3182  0.0305
16018TIP3    H169545   2.076   4.799   1.846  3.7843  0.5887 -0.4611
16018TIP3    H269546   2.068   4.684   1.943  3.5974 -1.5039 -2.8975
16019TIP3   OH269547   5.435   4.266   2.993 -0.4053  0.2998 -0.1865
16019TIP3    H169548   5.481   4.185   2.971 -0.4795  0.2664 -0.2184
16019TIP3    H269549   5.344   4.251   2.965 -0.3444  0.5200 -0.5090
16020TIP3   OH269550   5.523   3.100  10.753 -0.1658 -0.1778  0.1063
16020TIP3    H169551   5.517   3.007  10.776 -2.6127 -0.1245 -0.1655
16020TIP3    H269552   5.525   3.146  10.837  2.6629 -0.5041  0.2743
16021TIP3   OH269553   6.223   2.102   6.393 -0.2069 -0.2605 -0.5301
16021TIP3    H169554   6.244   2.149   6.312  2.9176  1.1221  0.9920
16021TIP3    H269555   6.189   2.169   6.451  1.2498 -0.4829  0.5932
16022TIP3   OH269556   2.774   1.435  10.978  0.1528 -0.2647  0.2509
16022TIP3    H169557   2.735   1.354  10.944  1.8291 -0.7951 -0.4942
16022TIP3    H269558   2.717   1.504  10.945 -0.4145 -1.0459 -0.4494
16023TIP3   OH269559   4.337   5.859   1.891  0.5522 -0.1878 -0.1331
16023TIP3    H169560   4.410   5.822   1.942  1.2220  1.8089  0.4151
16023TIP3    H269561   4.379   5.921   1.832 -0.8101  2.1148  1.2333
16024TIP3   OH269562   5.680   4.355  11.035  0.1091 -0.2380 -0.6521
16024TIP3    H169563   5.601   4.347  10.980 -0.2152  0.8076 -0.3502
16024TIP3    H269564   5.723   4.270  11.026 -0.5233 -0.4756 -1.6348
16025TIP3   OH269565   1.312   2.229   1.910 -0.2906  0.1843  0.1550
16025TIP3    H169566   1.389   2.177   1.936  0.2572  2.0051  2.2857
16025TIP3    H269567   1.238   2.181   1.946  0.1437  0.3409  1.2926
16026TIP3   OH269568   0.363   1.515   1.956  0.3134  0.2321 -0.7572
16026TIP3    H169569   0.301   1.451   1.923  0.1280  0.8710 -1.6799
16026TIP3    H269570   0.309   1.583   1.996  0.5664 -0.9690  1.7271
16027TIP3   OH269571   6.642   2.782  12.222  0.0910  0.1280  0.7136
16027TIP3    H169572   6.663   2.760  12.313 -1.8612  0.8167  1.3466
16027TIP3    H269573   6.548   2.801  12.223 -0.0707 -0.4743 -1.5766
16028TIP3   OH269574   0.516   1.282  16.395  0.6028  0.0480  0.6708
16028TIP3    H169575   0.589   1.223  16.412  2.1354  1.5280 -0.6621
16028TIP3    H269576   0.488   1.311  16.482  2.0866  0.0213  1.1692
16029TIP3   OH269577   4.103   3.245  16.882  0.2589  0.0138  0.0569
16029TIP3    H169578   4.161   3.315  16.852 -0.5497  0.2859 -0.9059
16029TIP3    H269579   4.021   3.290  16.902 -0.2824 -0.6590 -0.6210
16030TIP3   OH269580   0.629   6.562  12.616  0.1600 -0.4485  0.0013
16030TIP3    H169581   0.606   6.537  12.706  0.6234 -1.0911 -0.0484
16030TIP3    H269582   0.724   6.570  12.618 -0.0509  2.1993  0.2144
16031TIP3   OH269583   0.195   3.703   3.298  0.0530 -0.0213 -0.6021
16031TIP3    H169584   0.129   3.697   3.229 -0.8437 -1.1602  0.3264
16031TIP3    H269585   0.237   3.617   3.298 -0.4166 -0.2698  0.6945
16032TIP3   OH269586   4.655   3.386   1.432  0.4997 -0.1199  0.0505
16032TIP3    H169587   4.569   3.352   1.457 -0.5486  0.1132 -2.9927
16032TIP3    H269588   4.714   3.311   1.443  0.1045 -0.0337  3.0045
16033TIP3   OH269589   1.554   4.889  14.366  0.1437 -0.5514  0.0305
16033TIP3    H169590   1.512   4.937  14.294 -0.9977 -0.6452  0.6289
16033TIP3    H269591   1.571   4.955  14.432  2.7600 -0.1392 -0.9798
16034TIP3   OH269592   4.898   2.236  16.215  0.1771 -0.2305 -0.2049
16034TIP3    H169593   4.943   2.315  16.186  0.9458 -0.7317 -0.3679
16034TIP3    H269594   4.875   2.190  16.135 -0.9858  0.2155 -0.1440
16035TIP3   OH269595   2.086   5.891  14.672  0.3913  0.5861  0.0374
16035TIP3    H169596   2.174   5.922  14.695  0.3874  0.5167  0.1481
16035TIP3    H269597   2.032   5.969  14.674  0.2880  0.4989  0.7732
16036TIP3   OH269598   5.985   3.913  17.042 -0.0125 -0.3879  0.6485
16036TIP3    H169599   6.069   3.888  17.079  0.0015 -1.7672 -0.2857
16036TIP3    H269600   5.964   3.844  16.979 -1.2233  0.6173 -0.0886
16037TIP3   OH269601   1.953   6.152   1.939  0.4513  0.2147  0.1832
16037TIP3    H169602   1.973   6.059   1.937 -1.6127 -0.2368 -1.1075
16037TIP3    H269603   2.037   6.195   1.921  0.9666 -1.4701 -1.6177
16038TIP3   OH269604   4.757   6.517  16.881  0.0128  0.5867  0.1823
16038TIP3    H169605   4.727   6.606  16.863 -2.5963 -0.1408  0.7748
16038TIP3    H269606   4.777   6.516  16.975  0.8838  0.7603  0.0073
16039TIP3   OH269607   4.877   0.170   0.238  0.2168 -0.2716 -0.7462
16039TIP3    H169608   4.838   0.181   0.325  0.9486 -0.1493 -0.4288
16039TIP3    H269609   4.959   0.218   0.243  1.1880 -1.8999 -0.8819
16040TIP3   OH269610   5.196   2.272   3.514  0.2010  0.7275 -0.4394
16040TIP3    H169611   5.229   2.290   3.426 -0.0761  0.6929 -0.5514
16040TIP3    H269612   5.271   2.286   3.571  0.4009  0.6804 -0.6899
16041TIP3   OH269613   6.715   5.562  14.208 -0.4522 -0.0579 -0.3196
16041TIP3    H169614   6.732   5.477  14.168 -0.1556 -0.5856  0.8972
16041TIP3    H269615   6.796   5.611  14.195 -0.6058  0.0156 -0.9819
16042TIP3   OH269616   3.687   1.267   3.517 -0.4922  0.2772  0.4100
16042TIP3    H169617   3.776   1.265   3.484 -0.1999  0.4756  1.1754
16042TIP3    H269618   3.634   1.292   3.442  0.1325  0.4665  0.0315
16043TIP3   OH269619   5.242   0.268  10.265  0.2484 -0.7780 -0.2432
16043TIP3    H169620   5.164   0.324  10.268 -0.1726 -1.3424 -0.4043
16043TIP3    H269621   5.206   0.179  10.261  0.8728 -0.9775 -1.8260
16044TIP3   OH269622   1.646   2.766   5.688  0.1851  0.3920 -0.0443
16044TIP3    H169623   1.599   2.814   5.756  0.3867  0.9207 -0.2721
16044TIP3    H269624   1.578   2.732   5.631  0.0895  1.5612 -0.6434
16045TIP3   OH269625   1.576   0.783   1.489 -0.0346 -0.2402 -0.2768
16045TIP3    H169626   1.512   0.715   1.512 -1.1873  0.6903 -0.7156
16045TIP3    H269627   1.626   0.745   1.417  0.2818 -1.1848  0.4222
16046TIP3   OH269628   1.074   4.607  16.242  0.2685 -0.1196  0.0821
16046TIP3    H169629   1.028   4.653  16.312  2.5028 -0.6365  1.9737
16046TIP3    H269630   1.132   4.674  16.205  2.1186 -0.8402  1.5588
16047TIP3   OH269631   1.227   0.426  12.693 -0.6696  0.5862 -0.1050
16047TIP3    H169632   1.144   0.433  12.647  0.3023 -1.0782 -2.1881
16047TIP3    H269633   1.293   0.445  12.626  0.6775  0.9437  1.2891
16048TIP3   OH269634   1.504   0.043   5.004 -0.2366  0.0077 -0.4056
16048TIP3    H169635   1.470  -0.047   5.010  1.3556 -0.6686 -1.3184
16048TIP3    H269636   1.432   0.093   4.965 -0.9048 -0.9989 -0.4883
16049TIP3   OH269637   0.207   2.629  15.242 -0.2822  0.1614 -0.1739
16049TIP3    H169638   0.196   2.562  15.309  0.8170  0.1822  0.0380
16049TIP3    H269639   0.217   2.711  15.290  1.3533  0.0636 -0.3092
16050TIP3   OH269640   3.595   4.821   0.291 -0.5456 -0.0523  0.7048
16050TIP3    H169641   3.553   4.812   0.376  0.9380  0.4325  1.5051
16050TIP3    H269642   3.677   4.867   0.309 -0.5677  0.7284 -1.0901
16051TIP3   OH269643   1.355   5.326  11.817  0.1134 -0.0553 -0.0992
16051TIP3    H169644   1.393   5.243  11.786 -0.6271  0.2407 -1.8711
16051TIP3    H269645   1.293   5.351  11.748  2.0546  3.1928 -0.8006
16052TIP3   OH269646   5.012   6.226   4.516 -0.2582 -0.3834 -0.1554
16052TIP3    H169647   5.069   6.294   4.555  0.3391 -1.6322  1.2283
16052TIP3    H269648   5.065   6.189   4.446  0.0743 -0.5516  0.1801
16053TIP3   OH269649   2.612   3.539   5.336  0.0692 -0.3708  0.5149
16053TIP3    H169650   2.570   3.538   5.250  0.5736 -1.8338  0.2764
16053TIP3    H269651   2.698   3.576   5.321 -0.5035  1.0547  0.7096
16054TIP3   OH269652   5.458   2.145  14.265  0.2640 -0.3280  0.1130
16054TIP3    H169653   5.409   2.227  14.259 -0.5114 -0.6822  1.4917
16054TIP3    H269654   5.393   2.077  14.248  0.5453 -0.7344  0.6532
16055TIP3   OH269655   0.242   0.398  16.343  0.6300  0.3469 -0.0402
16055TIP3    H169656   0.191   0.328  16.385 -1.0294  2.1107  1.0171
16055TIP3    H269657   0.325   0.357  16.319  0.6688 -1.3631  2.7907
16056TIP3   OH269658   2.116   3.099   3.136  0.3614 -0.3680  0.0273
16056TIP3    H169659   2.169   3.126   3.212  0.0982  0.3092 -0.0276
16056TIP3    H269660   2.062   3.175   3.117  0.6711 -0.4175 -1.0614
16057TIP3   OH269661   6.616   1.792  17.262 -0.6083  0.6326 -0.7598
16057TIP3    H169662   6.568   1.714  17.234  0.5411 -0.2682 -0.2783
16057TIP3    H269663   6.706   1.775  17.235  0.0825  0.7688  1.3614
16058TIP3   OH269664   3.535   2.007   6.340 -0.4419 -0.1075 -0.2883
16058TIP3    H169665   3.474   2.007   6.266 -1.3319 -1.4773  0.4217
16058TIP3    H269666   3.585   1.926   6.329 -1.6491 -1.1171  1.4649
16059TIP3   OH269667   1.876   3.876  16.112  0.5901  0.2254  0.1013
16059TIP3    H169668   1.843   3.803  16.164 -0.5573  1.3590  0.9859
16059TIP3    H269669   1.935   3.922  16.170  1.7857 -0.3239 -0.6563
16060TIP3   OH269670   3.949   1.991  10.535  0.5437  0.2539 -0.1801
16060TIP3    H169671   3.875   1.932  10.521  0.7379 -0.2364  0.7753
16060TIP3    H269672   3.964   1.988  10.630  1.2882  0.9478 -0.2700
16061TIP3   OH269673   3.131   0.295  15.811 -0.1379  0.5230  0.8384
16061TIP3    H169674   3.096   0.303  15.900 -0.8731  0.0447  0.5944
16061TIP3    H269675   3.142   0.386  15.782 -0.3865  0.6795  1.2276
16062TIP3   OH269676   0.569   2.707   1.519  0.1962 -0.6459 -0.0234
16062TIP3    H169677   0.533   2.618   1.519 -3.2394  0.6681 -0.8768
16062TIP3    H269678   0.561   2.736   1.429  0.3519  0.9159  0.4508
16063TIP3   OH269679   5.080   3.112  14.347 -0.0475 -0.0145  0.2043
16063TIP3    H169680   5.100   3.197  14.307 -0.1339  0.0920  0.3887
16063TIP3    H269681   5.104   3.122  14.439 -1.1791  0.1932  0.4807
16064TIP3   OH269682   5.828   2.035  14.210 -0.0086 -0.1997  0.7514
16064TIP3    H169683   5.903   1.982  14.182 -0.8252 -1.2199  0.4968
16064TIP3    H269684   5.779   2.052  14.130 -0.9787 -0.9915  1.1634
16065TIP3   OH269685   1.429   3.597   3.697  0.2880 -0.0034  0.0011
16065TIP3    H169686   1.335   3.606   3.712  0.2722 -1.8504  1.0737
16065TIP3    H269687   1.469   3.637   3.774  0.3441 -1.3319  0.6629
16066TIP3   OH269688   4.212   0.515  11.024  0.0021  0.0361 -0.2431
16066TIP3    H169689   4.229   0.436  11.076  0.9859  0.2760 -0.1952
16066TIP3    H269690   4.117   0.528  11.031  0.1321  0.1909  1.6825
16067TIP3   OH269691   3.675   5.843  12.265  0.4241  0.1355 -0.4153
16067TIP3    H169692   3.751   5.893  12.235  0.3663  0.1689 -0.5050
16067TIP3    H269693   3.664   5.870  12.356  0.6839 -0.0701 -0.3208
16068TIP3   OH269694   2.990   3.112  11.222 -0.2894 -0.6033 -0.3038
16068TIP3    H169695   3.047   3.058  11.166  0.5504  0.8440 -0.8676
16068TIP3    H269696   3.039   3.121  11.304 -0.7543 -1.3060  0.0491
16069TIP3   OH269697   1.576   2.144   5.289 -0.0792 -0.2217 -0.1467
16069TIP3    H169698   1.579   2.168   5.197  0.2119  1.2548  0.2300
16069TIP3    H269699   1.665   2.157   5.321 -0.4703  0.6107  0.6526
16070TIP3   OH269700   3.746   4.133  12.286  0.0702  0.6535 -0.4793
16070TIP3    H169701   3.704   4.203  12.335  0.8407  1.3382 -0.7746
16070TIP3    H269702   3.832   4.122  12.327 -1.1065 -2.0835  1.3738
16071TIP3   OH269703   0.872   2.399  13.329  0.5971  0.1336  0.3456
16071TIP3    H169704   0.838   2.443  13.251 -2.4882 -3.4804 -0.5127
16071TIP3    H269705   0.837   2.448  13.403  0.6138  1.5004 -0.5540
16072TIP3   OH269706   6.190   0.666   6.408 -0.2436  0.1627  0.5482
16072TIP3    H169707   6.248   0.682   6.333 -1.4282 -1.1545 -0.6745
16072TIP3    H269708   6.214   0.577   6.437 -1.0575 -0.0439  0.5808
16073TIP3   OH269709   2.831   2.597   1.479 -0.1115  0.3693 -0.2512
16073TIP3    H169710   2.815   2.684   1.443 -1.1631  0.7675  1.1328
16073TIP3    H269711   2.833   2.539   1.402  0.3431  1.5683 -1.1524
16074TIP3   OH269712   5.322   3.733   3.174  0.1554  0.0502  0.1698
16074TIP3    H169713   5.346   3.747   3.082  0.6304 -0.7323  0.1667
16074TIP3    H269714   5.317   3.821   3.211 -1.1807  0.4423 -0.8861
16075TIP3   OH269715   3.758   2.946  11.019 -0.1364 -0.1232  0.3220
16075TIP3    H169716   3.721   2.913  10.937  0.3556  0.8081 -0.2818
16075TIP3    H269717   3.682   2.972  11.070 -0.5785 -2.5477  0.9950
16076TIP3   OH269718   6.216   4.885   4.415 -0.5129  0.6427 -0.3764
16076TIP3    H169719   6.303   4.921   4.431 -0.6279 -0.0698  2.0717
16076TIP3    H269720   6.231   4.806   4.364  0.5902 -1.3734  2.9676
16077TIP3   OH269721   3.417   6.692  11.904 -0.4711  0.0805  0.2452
16077TIP3    H169722   3.467   6.611  11.901 -1.1300 -0.3078 -0.3413
16077TIP3    H269723   3.455   6.746  11.834 -0.3419  0.0952  0.3264
16078TIP3   OH269724   6.005   3.742   4.634 -0.1098 -0.3582  0.2985
16078TIP3    H169725   5.910   3.742   4.651 -0.0808  1.5867  0.5285
16078TIP3    H269726   6.013   3.767   4.542  0.2089  0.1723  0.4710
16079TIP3   OH269727   1.779   4.917  13.915  0.5267  0.7209  0.2454
16079TIP3    H169728   1.723   4.915  13.837  1.1662 -0.2133 -0.2026
16079TIP3    H269729   1.733   4.862  13.979  1.0141 -0.1923 -0.1845
16080TIP3   OH269730   1.938   0.163  16.168  0.0268  0.1353 -0.3667
16080TIP3    H169731   1.897   0.084  16.132 -0.6321 -0.4081  1.5239
16080TIP3    H269732   1.994   0.195  16.097 -0.0843 -1.7416 -1.3400
16081TIP3   OH269733   3.422   2.295  15.207 -0.4069 -0.2605 -0.5842
16081TIP3    H169734   3.415   2.343  15.124  1.4041  1.5989  0.3067
16081TIP3    H269735   3.467   2.213  15.184  0.8520  0.6206 -1.2991
16082TIP3   OH269736   0.952   1.153   6.639 -0.0497 -0.4448  0.0435
16082TIP3    H169737   1.030   1.204   6.662  0.8894 -2.1399  0.7333
16082TIP3    H269738   0.986   1.076   6.594 -1.3711 -0.9697 -0.0819
16083TIP3   OH269739   6.344   0.828  15.169 -0.4485 -0.8502  0.4337
16083TIP3    H169740   6.249   0.820  15.156 -0.7701  0.4185  1.8085
16083TIP3    H269741   6.353   0.876  15.251  1.3891 -0.0583 -0.1888
16084TIP3   OH269742   1.455   5.351   4.838  0.4859  0.3812 -0.1485
16084TIP3    H169743   1.367   5.390   4.835  0.5784  0.5275 -1.0643
16084TIP3    H269744   1.460   5.310   4.925 -0.9327 -0.6395 -0.5229
16085TIP3   OH269745   0.525   6.004  13.088 -0.0507 -0.0175 -0.0987
16085TIP3    H169746   0.451   6.016  13.028  0.1284 -0.1909 -0.3554
16085TIP3    H269747   0.502   5.925  13.137  0.5645 -0.8197 -1.0812
16086TIP3   OH269748   6.432   3.167   0.366  0.0298  0.4507 -0.2567
16086TIP3    H169749   6.511   3.196   0.321 -0.8955  2.7985 -0.4583
16086TIP3    H269750   6.394   3.100   0.308  1.0513  0.4241 -0.8929
16087TIP3   OH269751   5.709   1.622  16.584  0.8128 -0.4233  0.4576
16087TIP3    H169752   5.670   1.693  16.532  0.8513  0.6711  1.8929
16087TIP3    H269753   5.643   1.553  16.584  1.2535 -0.8847 -1.9533
16088TIP3   OH269754   2.885   0.749   3.338 -0.1341  0.5985 -0.1391
16088TIP3    H169755   2.857   0.715   3.252 -1.0528 -0.2100  0.4578
16088TIP3    H269756   2.970   0.790   3.321  0.2513 -0.5844 -1.2212
16089TIP3   OH269757   4.130   0.513   5.414  0.1912  0.0216  0.6649
16089TIP3    H169758   4.146   0.421   5.435  0.0068 -0.0705  0.4051
16089TIP3    H269759   4.090   0.511   5.327  0.0317  0.3373  0.7318
16090TIP3   OH269760   2.010   6.189   3.058  0.5731 -0.2431 -0.2780
16090TIP3    H169761   1.950   6.132   3.010  0.2273  0.5280 -0.7806
16090TIP3    H269762   1.953   6.254   3.098  0.9044 -0.6242  0.8226
16091TIP3   OH269763   0.627   3.811  15.899 -0.3223  0.0611 -0.1257
16091TIP3    H169764   0.553   3.764  15.937  0.5400 -0.9446  0.3298
16091TIP3    H269765   0.678   3.743  15.855 -0.8797  1.0679 -2.4354
16092TIP3   OH269766   3.447   3.773   6.121  0.4623 -0.0719  0.2931
16092TIP3    H169767   3.439   3.682   6.093  1.0257 -0.7082  2.1350
16092TIP3    H269768   3.538   3.781   6.152  0.5476  1.2300 -0.2385
16093TIP3   OH269769   1.695   4.449   2.228 -0.3274 -0.0244  1.3916
16093TIP3    H169770   1.736   4.375   2.275 -1.1934 -1.1136  0.4518
16093TIP3    H269771   1.689   4.518   2.294  1.2957 -0.4837  2.0591
16094TIP3   OH269772   3.687   1.401  15.742 -0.6601 -0.2063 -0.1869
16094TIP3    H169773   3.675   1.310  15.716 -1.9032 -0.3015  0.6730
16094TIP3    H269774   3.614   1.419  15.801  0.8979  0.6525  1.5297
16095TIP3   OH269775   6.474   2.448  15.815  0.1094 -0.3683  0.4855
16095TIP3    H169776   6.385   2.461  15.781  0.2321  0.9297  0.6567
16095TIP3    H269777   6.487   2.353  15.809 -1.9808 -0.8151  2.1336
16096TIP3   OH269778   2.178   5.994  13.760 -0.4579 -0.0100  0.0475
16096TIP3    H169779   2.133   6.018  13.678 -0.0847  1.4955  0.2791
16096TIP3    H269780   2.115   6.015  13.828 -0.1217  0.2969  0.2598
16097TIP3   OH269781   4.471   1.910  11.874  0.0118 -0.8334  0.4123
16097TIP3    H169782   4.417   1.859  11.813 -0.2753  0.6167 -0.5691
16097TIP3    H269783   4.410   1.938  11.941 -0.5064  0.8787 -0.7444
16098TIP3   OH269784   1.764   3.318  12.596 -0.0373 -0.0024 -0.8576
16098TIP3    H169785   1.801   3.230  12.606  0.4126 -0.0403 -2.7382
16098TIP3    H269786   1.670   3.302  12.585 -0.2743 -0.0813  1.0364
16099TIP3   OH269787   2.668   2.707   3.857  0.5338 -0.1071  0.1015
16099TIP3    H169788   2.731   2.730   3.789  0.1744 -0.2393 -0.2714
16099TIP3    H269789   2.614   2.638   3.819  2.5579 -2.7094  1.7558
16100TIP3   OH269790   5.609   5.975   5.206  0.0306 -0.4277 -0.2934
16100TIP3    H169791   5.669   5.901   5.219  0.5316  0.2644  1.4041
16100TIP3    H269792   5.560   5.980   5.288  1.6049  2.5784  0.5213
16101TIP3   OH269793   6.453   3.274   5.441  1.2196  0.0331 -0.6469
16101TIP3    H169794   6.446   3.195   5.387 -0.0181  0.2552 -0.8235
16101TIP3    H269795   6.458   3.241   5.531  0.6672 -0.2578 -0.7164
16102TIP3   OH269796   1.765   3.951  11.403 -0.2119  0.2324 -0.5138
16102TIP3    H169797   1.729   3.863  11.389  0.9531 -0.3983  0.4289
16102TIP3    H269798   1.852   3.947  11.363  1.5412 -0.3521  3.1581
16103TIP3   OH269799   0.154   2.485  11.408  0.0672 -0.3467  0.3188
16103TIP3    H169800   0.141   2.499  11.314 -0.5769  2.1567  0.7717
16103TIP3    H269801   0.067   2.492  11.446  0.5047 -0.0791  1.2782
16104TIP3   OH269802   6.327   5.723  12.808 -0.3140  0.2600  0.0423
16104TIP3    H169803   6.374   5.800  12.839  0.8939  0.0434 -1.2088
16104TIP3    H269804   6.390   5.652  12.814 -1.0483 -0.4030  0.0290
16105TIP3   OH269805   3.832   0.062   1.195 -0.4068 -0.3686  0.3074
16105TIP3    H169806   3.755   0.007   1.204  0.3151 -1.3850  0.4015
16105TIP3    H269807   3.813   0.119   1.120 -0.8187 -1.3391 -0.3413
16106TIP3   OH269808   0.010   1.121   1.369 -0.1009 -0.1004 -0.1937
16106TIP3    H169809   0.007   1.079   1.282  2.5237  1.0769 -0.9075
16106TIP3    H269810   0.100   1.106   1.399 -0.1438  2.0363  1.0559
16107TIP3   OH269811   2.665   5.337  13.817 -0.2287 -0.1186  0.3008
16107TIP3    H169812   2.660   5.378  13.903 -1.4097 -0.6051  0.4655
16107TIP3    H269813   2.727   5.392  13.768 -0.0398  0.5240  1.2472
16108TIP3   OH269814   1.004   2.644  15.192 -0.1545 -0.2866 -0.0623
16108TIP3    H169815   1.071   2.580  15.214 -0.4086  0.0069  1.6602
16108TIP3    H269816   1.020   2.666  15.100  2.5267  0.3047  0.5049
16109TIP3   OH269817   2.258   4.999  16.677  0.5978  0.0978  0.2741
16109TIP3    H169818   2.171   5.028  16.702  0.2837  0.3912 -1.1490
16109TIP3    H269819   2.257   4.904  16.693  0.2508  0.2054  0.9072
16110TIP3   OH269820   4.112   6.017   5.635 -0.4647  0.3435 -0.1159
16110TIP3    H169821   4.056   5.952   5.594  0.0170  0.4703 -0.9842
16110TIP3    H269822   4.092   6.011   5.728 -1.4666 -0.0417 -0.3555
16111TIP3   OH269823   5.131   4.502   0.020  0.1454 -0.4805 -0.2459
16111TIP3    H169824   5.157   4.594   0.021 -0.8691 -0.1901  1.2916
16111TIP3    H269825   5.197   4.459  -0.035  1.0129  1.0382 -0.4238
16112TIP3   OH269826   4.894   3.375  12.826  0.1745  0.0195  0.6237
16112TIP3    H169827   4.813   3.324  12.833  0.2320  0.1588  2.7692
16112TIP3    H269828   4.867   3.458  12.786 -0.4488 -0.5714 -0.1820
16113TIP3   OH269829   6.598   0.470  12.664 -1.1715  0.4568 -0.2722
16113TIP3    H169830   6.653   0.407  12.709  0.9354  1.7175 -1.0046
16113TIP3    H269831   6.549   0.419  12.600  0.7502 -0.3881 -1.0858
16114TIP3   OH269832   6.481   4.750   4.370 -0.5386  0.6481  0.4189
16114TIP3    H169833   6.491   4.795   4.286  0.1133  1.0241  0.6936
16114TIP3    H269834   6.528   4.668   4.358  0.2756  1.0692  0.6898
16115TIP3   OH269835   0.222   2.826   1.128 -0.6634 -1.0851 -0.2454
16115TIP3    H169836   0.285   2.754   1.130  0.0025 -0.4597  1.5195
16115TIP3    H269837   0.245   2.881   1.203 -0.8881  1.2051 -1.7991
16116TIP3   OH269838   2.830   5.439   4.895 -0.6423 -0.0285 -0.1931
16116TIP3    H169839   2.877   5.430   4.978  1.0169  0.0930 -1.1036
16116TIP3    H269840   2.802   5.530   4.893 -2.6986 -0.5895  1.2683
16117TIP3   OH269841   0.442   4.915  13.713 -0.0142 -0.3077  0.3835
16117TIP3    H169842   0.520   4.969  13.724 -0.3586  0.0344  1.2649
16117TIP3    H269843   0.384   4.967  13.657  0.5654 -0.7565 -0.6379
16118TIP3   OH269844   1.850   3.377   2.341 -0.4075  0.4490 -0.1676
16118TIP3    H169845   1.846   3.467   2.310  0.8101  0.9441  1.0748
16118TIP3    H269846   1.937   3.347   2.315 -0.1160  0.2366  1.0337
16119TIP3   OH269847   5.683   1.492  14.451  0.1565 -0.0492 -0.3514
16119TIP3    H169848   5.768   1.450  14.467  0.0284 -0.5428 -0.9660
16119TIP3    H269849   5.622   1.445  14.509 -0.1681 -1.3489 -1.7302
16120TIP3   OH269850   5.366   1.438   2.472  0.2534  0.0042  0.3206
16120TIP3    H169851   5.368   1.498   2.546 -1.3311  0.1621  0.2660
16120TIP3    H269852   5.435   1.374   2.490  0.8358  0.8674  1.2037
16121TIP3   OH269853   1.464   0.384  16.924  0.6795 -0.0430 -0.7516
16121TIP3    H169854   1.530   0.315  16.930  0.0058 -0.8549 -2.4682
16121TIP3    H269855   1.389   0.342  16.882 -0.3553  1.2954 -0.2670
16122TIP3   OH269856   6.429   1.132   3.090  0.3892 -0.3839 -0.1363
16122TIP3    H169857   6.482   1.186   3.148  1.4344 -1.8942  0.3642
16122TIP3    H269858   6.425   1.047   3.133  1.3029 -1.5862 -2.2900
16123TIP3   OH269859   2.950   4.291  15.563  0.0291  0.1512  0.1671
16123TIP3    H169860   2.980   4.289  15.472  2.1293 -0.3968  0.8317
16123TIP3    H269861   2.915   4.204  15.579  0.4592 -0.0340  0.1199
16124TIP3   OH269862   0.703   3.818  15.034  0.8221 -0.1897 -0.1906
16124TIP3    H169863   0.694   3.831  15.129 -1.0738 -0.1293 -0.3565
16124TIP3    H269864   0.758   3.740  15.026  2.7186  0.9732  0.9237
16125TIP3   OH269865   3.330   6.336   5.880  0.4195 -0.3152  0.3994
16125TIP3    H169866   3.336   6.299   5.792  2.3020 -0.2422  0.4870
16125TIP3    H269867   3.415   6.318   5.920 -0.0284  0.6393  1.8194
16126TIP3   OH269868   1.149   0.401  14.431  0.2736  0.3633 -0.1642
16126TIP3    H169869   1.141   0.397  14.336 -1.0903 -0.9592  0.0008
16126TIP3    H269870   1.067   0.440  14.461 -0.0714 -0.9534  0.6067
16127TIP3   OH269871   4.610   1.996   5.412  0.6918  0.2559  0.6296
16127TIP3    H169872   4.521   1.968   5.432  0.4974 -0.0654 -0.6600
16127TIP3    H269873   4.602   2.090   5.397  0.6515  0.3062  0.9557
16128TIP3   OH269874   1.223   4.977  14.556 -0.1798  0.6973  0.3101
16128TIP3    H169875   1.223   4.893  14.508 -1.0453  0.9223 -0.0918
16128TIP3    H269876   1.209   5.043  14.488 -0.3771  1.1059  0.7479
16129TIP3   OH269877   5.830   2.710  14.354 -0.5015 -0.5467 -0.2522
16129TIP3    H169878   5.843   2.664  14.271  0.2750 -0.9740  0.0965
16129TIP3    H269879   5.747   2.755  14.344 -1.2934 -2.0423 -0.6090
16130TIP3   OH269880   2.564   0.106   1.087 -0.3185  0.5384 -0.0580
16130TIP3    H169881   2.486   0.131   1.037 -0.0443 -0.7371 -1.1637
16130TIP3    H269882   2.572   0.011   1.073  1.3754  0.6366  0.1110
16131TIP3   OH269883   4.872   1.501  13.359 -0.8811  0.9003  0.6921
16131TIP3    H169884   4.777   1.489  13.354 -0.8989  1.3158 -0.0857
16131TIP3    H269885   4.901   1.439  13.425 -1.5873  0.1533  0.3009
16132TIP3   OH269886   4.558   1.304   5.697 -0.3380 -0.6431 -0.4448
16132TIP3    H169887   4.503   1.353   5.635 -0.4607  1.1452  1.0145
16132TIP3    H269888   4.646   1.308   5.659 -0.5192 -0.0937 -0.8175
16133TIP3   OH269889   4.195   5.039  12.548  0.0099  0.4787  0.1940
16133TIP3    H169890   4.153   4.966  12.503  0.5637 -0.0149  0.4709
16133TIP3    H269891   4.122   5.091  12.583 -0.4190  0.9044 -1.3206
16134TIP3   OH269892   3.413   6.156  16.293  0.6927  0.4038 -0.2128
16134TIP3    H169893   3.437   6.244  16.324 -1.2807  1.0225 -0.3514
16134TIP3    H269894   3.386   6.109  16.372 -1.5685  1.0600 -0.5454
16135TIP3   OH269895   3.932   1.400  15.580 -0.3997  0.0587 -0.3038
16135TIP3    H169896   3.868   1.436  15.642  0.4276  0.1885  0.4937
16135TIP3    H269897   3.881   1.343  15.523 -1.0857 -0.5527  0.9083
16136TIP3   OH269898   0.099   0.280  16.921 -0.3836 -0.1153  0.1434
16136TIP3    H169899   0.168   0.293  16.856 -1.0113 -0.3067 -0.5653
16136TIP3    H269900   0.133   0.323  17.000  1.0821 -1.2902  0.1791
16137TIP3   OH269901   4.433   0.176  10.877 -0.0013 -0.1629 -0.5121
16137TIP3    H169902   4.528   0.163  10.883  0.1076  1.0490  0.4249
16137TIP3    H269903   4.421   0.222  10.794  0.2786  0.1324 -0.3896
16138TIP3   OH269904   2.648   5.980   2.950 -0.0628 -0.4646 -0.8123
16138TIP3    H169905   2.593   5.974   3.028  0.3379 -0.7319 -0.5482
16138TIP3    H269906   2.593   6.024   2.885  0.0583  1.0025  0.0391
16139TIP3   OH269907   2.862   0.569  13.598 -0.3048  0.2852  0.0193
16139TIP3    H169908   2.867   0.486  13.550 -1.2498  1.1494 -1.5930
16139TIP3    H269909   2.770   0.578  13.621 -0.2966  1.1951 -0.3159
16140TIP3   OH269910   2.260   1.011   1.256  0.5450 -0.0938 -0.0424
16140TIP3    H169911   2.236   1.065   1.332  1.2841  0.8419 -0.4630
16140TIP3    H269912   2.355   0.999   1.265  0.7847  0.7757 -1.2837
16141TIP3   OH269913   6.500   5.279  14.694 -0.2968  0.4232  0.1798
16141TIP3    H169914   6.554   5.203  14.718 -1.1095 -0.8023 -1.7862
16141TIP3    H269915   6.555   5.329  14.633 -1.3700 -0.8614 -1.8773
16142TIP3   OH269916   0.170   4.426  12.043 -0.5992  0.3164 -0.6000
16142TIP3    H169917   0.182   4.497  11.980 -0.3990  0.9556  0.1541
16142TIP3    H269918   0.075   4.416  12.050 -0.7353  2.7962  1.8081
16143TIP3   OH269919   6.178   3.480  12.153  0.6786  0.1331  0.0537
16143TIP3    H169920   6.252   3.491  12.213  1.7248 -0.5781 -1.0794
16143TIP3    H269921   6.112   3.542  12.185  1.7059  0.6777  1.1719
16144TIP3   OH269922   0.201   4.999  14.746 -0.3439 -0.2589  0.4422
16144TIP3    H169923   0.133   5.018  14.683 -0.9631 -2.0630  0.5334
16144TIP3    H269924   0.199   4.904  14.757  3.7898 -0.6895 -1.3895
16145TIP3   OH269925   1.361   1.598   2.670  0.3100 -0.4545 -0.1178
16145TIP3    H169926   1.334   1.654   2.597 -0.8719 -1.5007 -0.5130
16145TIP3    H269927   1.280   1.582   2.719  0.9895 -0.2465  1.0858
16146TIP3   OH269928   2.808   0.391   1.871 -0.3215 -0.1964 -0.3020
16146TIP3    H169929   2.849   0.411   1.787 -0.8080 -1.2776 -0.8029
16146TIP3    H269930   2.842   0.305   1.895 -1.9382 -0.9308 -0.5247
16147TIP3   OH269931   4.824   2.175  15.953  0.1878  0.0567  0.6115
16147TIP3    H169932   4.879   2.185  15.875  0.3148  0.2603  0.7265
16147TIP3    H269933   4.787   2.088  15.945 -1.4215  0.8449 -0.7311
16148TIP3   OH269934   5.182   5.535  15.752 -0.0889 -0.9246  0.1591
16148TIP3    H169935   5.231   5.611  15.720 -2.1238 -0.6503 -2.4981
16148TIP3    H269936   5.157   5.488  15.673  0.0474 -3.7090  1.7163
16149TIP3   OH269937   3.133   3.982  17.016 -0.0867  0.1822 -0.0123
16149TIP3    H169938   3.165   4.071  17.010 -1.9923  0.7987 -1.4699
16149TIP3    H269939   3.099   3.962  16.929 -0.6831 -1.5774  0.5961
16150TIP3   OH269940   3.500   2.660   0.188 -0.2635  0.8852  0.1323
16150TIP3    H169941   3.406   2.679   0.196 -0.1880  1.2184  0.2619
16150TIP3    H269942   3.539   2.745   0.167  0.2151  1.1057  1.8222
16151TIP3   OH269943   6.176   5.993   5.443  0.1960  0.0065  0.2830
16151TIP3    H169944   6.108   5.976   5.378  0.3673 -0.2680  0.1718
16151TIP3    H269945   6.168   6.086   5.463  0.8711  0.3486 -0.9720
16152TIP3   OH269946   0.407   6.423  14.586  0.3826 -0.0975  0.0889
16152TIP3    H169947   0.379   6.334  14.608 -0.0224 -0.4021 -1.6072
16152TIP3    H269948   0.358   6.479  14.646 -1.6126 -0.8342 -0.8119
16153TIP3   OH269949   5.043   2.534  13.500  0.1573  0.4549 -0.1620
16153TIP3    H169950   5.056   2.539  13.406 -0.1019  0.7826 -0.1808
16153TIP3    H269951   5.132   2.531  13.536  0.3240  2.7408 -0.3036
16154TIP3   OH269952   5.082   0.048  13.818 -0.2493  0.0186 -0.2175
16154TIP3    H169953   5.075   0.123  13.760  1.1071 -1.5280 -2.4289
16154TIP3    H269954   5.145   0.075  13.885  0.5491  0.7161 -1.2427
16155TIP3   OH269955   3.577   2.575  16.718  0.0819  0.1594 -0.3359
16155TIP3    H169956   3.587   2.666  16.693  0.6967 -0.1558 -1.2665
16155TIP3    H269957   3.656   2.554  16.767  0.7808 -0.3634 -1.6561
16156TIP3   OH269958   2.004   1.610   5.074  0.0386 -0.0541  0.3534
16156TIP3    H169959   1.938   1.616   5.005 -0.8102 -1.3094  1.0387
16156TIP3    H269960   2.057   1.533   5.051 -0.0376 -0.2795  0.9168
16157TIP3   OH269961   4.840   1.896  15.906 -0.0195 -0.0757 -0.3882
16157TIP3    H169962   4.778   1.904  15.834 -0.6408 -1.6154 -0.0257
16157TIP3    H269963   4.825   1.809  15.943  0.9660  0.3086  0.9845
16158TIP3   OH269964   3.601   2.691   2.006  0.2602 -0.7112 -0.0901
16158TIP3    H169965   3.567   2.734   1.928 -0.2774 -0.5168  0.2541
16158TIP3    H269966   3.529   2.694   2.068  1.4636  1.2994  1.2679
16159TIP3   OH269967   0.229   5.815  11.663  0.2404  0.2865 -0.3061
16159TIP3    H169968   0.149   5.802  11.612  1.1516  0.4022 -1.7984
16159TIP3    H269969   0.260   5.727  11.681  0.1000  0.2510 -0.2317
16160TIP3   OH269970   6.755   2.364   1.404 -0.1623 -0.4899  0.3440
16160TIP3    H169971   6.709   2.430   1.352  1.3864 -0.0655 -0.5136
16160TIP3    H269972   6.685   2.317   1.450 -1.5045 -0.3307 -1.4748
16161TIP3   OH269973   1.402   4.962   2.810 -0.4077 -0.4034 -0.0867
16161TIP3    H169974   1.402   4.941   2.904 -2.4258 -1.8446 -0.3879
16161TIP3    H269975   1.355   5.045   2.805  0.3558  0.0597  0.2370
16162TIP3   OH269976   5.364   3.545   0.444  0.2427 -0.4219  0.3680
16162TIP3    H169977   5.358   3.469   0.385  1.1007  0.9546 -1.5377
16162TIP3    H269978   5.444   3.531   0.494 -0.1292 -1.2672  0.7308
16163TIP3   OH269979   5.596   4.784  12.170  0.1476  0.2951  0.0375
16163TIP3    H169980   5.564   4.756  12.084  3.8089 -0.3886 -1.1931
16163TIP3    H269981   5.660   4.852  12.151  1.1865 -0.0344  2.2009
16164TIP3   OH269982   5.191   5.115  12.524  0.3869 -0.1270  0.0806
16164TIP3    H169983   5.269   5.064  12.547  0.3735 -0.5357 -0.7633
16164TIP3    H269984   5.129   5.095  12.594  0.5245 -0.9787 -0.0275
16165TIP3   OH269985   6.189   3.365  15.383  0.2997  0.2698  0.6547
16165TIP3    H169986   6.177   3.314  15.303 -1.3261 -0.1682  1.1626
16165TIP3    H269987   6.190   3.300  15.453 -2.0728  0.9037  1.3407
16166TIP3   OH269988   5.856   0.148   0.060  0.4426 -0.2677  0.4641
16166TIP3    H169989   5.826   0.068   0.104  0.6065 -0.0554  0.9638
16166TIP3    H269990   5.949   0.154   0.082 -0.0993  1.3514  2.4136
16167TIP3   OH269991   5.483   2.853   1.605 -0.0059 -0.1536  0.2085
16167TIP3    H169992   5.491   2.922   1.671  0.7942  0.7270 -0.7743
16167TIP3    H269993   5.390   2.831   1.604  0.2229 -1.3740  2.7949
16168TIP3   OH269994   5.227   4.190   4.943 -0.4139  0.2848 -0.0963
16168TIP3    H169995   5.308   4.242   4.935 -0.7395  0.4596 -2.4939
16168TIP3    H269996   5.167   4.230   4.881 -0.7921 -2.7847 -1.7542
16169TIP3   OH269997   5.649   6.280  13.232 -0.2671  0.4995  0.3414
16169TIP3    H169998   5.558   6.274  13.261 -0.1855  0.4651  0.5946
16169TIP3    H269999   5.700   6.276  13.313 -0.0706  1.1982  0.2548
16170TIP3   OH270000   0.832   5.925  12.452  0.0378 -0.3338 -0.1391
16170TIP3    H170001   0.928   5.926  12.450  0.0482  2.3191 -0.0061
16170TIP3    H270002   0.808   5.850  12.398  2.1848 -0.5599 -0.8310
16171TIP3   OH270003   0.920   6.378   3.157  0.0963 -0.0114 -0.3656
16171TIP3    H170004   1.015   6.382   3.151  0.1957  0.7454  1.5939
16171TIP3    H270005   0.898   6.425   3.237 -1.9020 -0.5423 -0.5662
16172TIP3   OH270006   1.996   6.306   5.393  0.5547 -0.3735  0.0851
16172TIP3    H170007   2.011   6.400   5.380  0.2109 -0.3292 -0.0044
16172TIP3    H270008   1.923   6.285   5.335 -1.5892  0.0227  2.5226
16173TIP3   OH270009   2.472   5.306   3.398  0.1943  0.2327  0.7646
16173TIP3    H170010   2.420   5.386   3.407  0.1321  0.4847 -1.4883
16173TIP3    H270011   2.418   5.249   3.344  1.3952 -0.2633  0.0705
16174TIP3   OH270012   1.419   1.503  12.344 -0.3730  0.8751 -0.4398
16174TIP3    H170013   1.416   1.447  12.421 -1.6057  0.3531 -0.8441
16174TIP3    H270014   1.465   1.451  12.278 -1.5199  0.3134 -0.8167
16175TIP3   OH270015   1.023   6.760   3.948 -0.1093 -0.5825  0.9012
16175TIP3    H170016   0.940   6.781   3.906  0.4573  1.2967  0.6487
16175TIP3    H270017   1.018   6.803   4.034 -0.3739 -2.5364  1.8864
16176TIP3   OH270018   5.569   6.757   5.000  0.2683  0.2306 -0.3792
16176TIP3    H170019   5.484   6.801   4.993 -0.1960 -0.6043 -0.0351
16176TIP3    H270020   5.616   6.782   4.920 -0.8290 -0.4296 -1.2439
16177TIP3   OH270021   6.400   3.083  12.157  0.1180 -0.4552 -0.4882
16177TIP3    H170022   6.494   3.065  12.160 -0.0968 -1.4360  1.0268
16177TIP3    H270023   6.373   3.055  12.069  1.1209 -0.7424 -0.7126
16178TIP3   OH270024   4.891   1.002   2.467  0.8067  0.4759  0.2699
16178TIP3    H170025   4.903   1.088   2.428 -2.2854  0.7165 -0.3077
16178TIP3    H270026   4.874   0.943   2.393 -0.2444  0.0126  0.8559
16179TIP3   OH270027   5.424   6.037  15.092 -0.3668 -0.4636 -0.2358
16179TIP3    H170028   5.401   6.112  15.037 -0.0952  0.2496  0.6022
16179TIP3    H270029   5.511   6.058  15.126 -1.3649  0.0687  2.0748
16180TIP3   OH270030   4.157   1.539  15.078  0.2696  0.5773 -0.2338
16180TIP3    H170031   4.169   1.566  14.987  0.0074  0.7097 -0.2305
16180TIP3    H270032   4.094   1.601  15.113 -0.3190 -0.0146 -0.2164
16181TIP3   OH270033   0.763   2.291   1.570  0.2988 -0.2189 -0.4195
16181TIP3    H170034   0.686   2.346   1.558  0.7665  0.6169  0.3369
16181TIP3    H270035   0.727   2.204   1.590 -0.4453  0.1133 -0.2761
16182TIP3   OH270036   2.991   5.645  16.974 -0.0532 -0.2999 -0.2443
16182TIP3    H170037   3.084   5.649  16.997  0.0178 -0.3908 -0.5192
16182TIP3    H270038   2.946   5.682  17.051  0.0486 -2.6164  0.9856
16183TIP3   OH270039   0.826   5.646  16.428  0.4934  0.7848 -0.2131
16183TIP3    H170040   0.812   5.553  16.412  1.3916  0.9581 -2.1962
16183TIP3    H270041   0.763   5.669  16.496 -1.4814 -0.7317 -1.4803
16184TIP3   OH270042   1.120   6.427  14.222 -0.1833 -0.2375  0.0220
16184TIP3    H170043   1.080   6.349  14.183 -1.1142  0.2284  0.0206
16184TIP3    H270044   1.087   6.429  14.311 -0.6733  0.5015 -0.1728
16185TIP3   OH270045   1.559   4.086   4.441  0.4870  0.2535 -0.2492
16185TIP3    H170046   1.468   4.056   4.452  0.8886 -0.9599 -0.1103
16185TIP3    H270047   1.570   4.092   4.346  0.6242 -0.7949 -0.3099
16186TIP3   OH270048   2.213   6.545  15.465 -0.0017  0.0129  0.3930
16186TIP3    H170049   2.155   6.621  15.472  1.5643  1.2627  0.1368
16186TIP3    H270050   2.240   6.527  15.555 -0.3165 -0.1871  0.4463
16187TIP3   OH270051   5.218   3.579  12.864  0.1560  0.2134 -0.0683
16187TIP3    H170052   5.174   3.504  12.825 -0.3508  0.3868  0.1680
16187TIP3    H270053   5.169   3.596  12.944  0.5220  0.5422  0.0863
16188TIP3   OH270054   2.762   6.479   2.893  0.3163  0.1919  0.3570
16188TIP3    H170055   2.840   6.428   2.871 -2.1341 -1.9850 -3.7255
16188TIP3    H270056   2.778   6.565   2.854  1.2998  0.2339  0.8384
16189TIP3   OH270057   5.177   5.230  12.094  0.0896  0.7388 -0.2486
16189TIP3    H170058   5.132   5.277  12.024 -0.2607  1.1412  0.2467
16189TIP3    H270059   5.124   5.151  12.106  0.8577  0.0445 -1.3020
16190TIP3   OH270060   3.847   1.122  12.244 -0.3413  0.4486  0.3150
16190TIP3    H170061   3.863   1.123  12.150 -0.4398 -0.6222  0.2884
16190TIP3    H270062   3.934   1.114  12.284 -0.4263 -0.6306  0.2815
16191TIP3   OH270063   5.219   1.281  12.541  0.0718  0.1538 -0.2348
16191TIP3    H170064   5.210   1.343  12.613 -0.8553 -0.4094  0.1442
16191TIP3    H270065   5.290   1.222  12.570 -0.9868 -0.6903  0.6865
16192TIP3   OH270066   6.626   2.208  14.950 -0.4485  0.1313 -0.1270
16192TIP3    H170067   6.549   2.257  14.978 -0.9033 -1.4520  1.4824
16192TIP3    H270068   6.622   2.126  14.999  2.4913  0.1984  0.3465
16193TIP3   OH270069   5.488   3.887   0.074 -0.6159  0.4414  0.1223
16193TIP3    H170070   5.563   3.860   0.021 -0.3182 -0.9491  1.2159
16193TIP3    H270071   5.430   3.811   0.073 -2.2684  1.7005 -1.1396
16194TIP3   OH270072   0.611   6.804   2.362  0.5048  0.1372 -0.0250
16194TIP3    H170073   0.662   6.842   2.434  0.5723  0.5207 -0.2731
16194TIP3    H270074   0.550   6.743   2.404  1.1926 -0.3493  0.2727
16195TIP3   OH270075   1.870   0.292  16.397  0.6145  0.2208  0.2314
16195TIP3    H170076   1.895   0.235  16.325 -0.4213 -0.2022  0.1956
16195TIP3    H270077   1.928   0.266  16.469  0.1364 -0.9009  0.2231
16196TIP3   OH270078   2.255   0.452  14.475 -0.3638  0.5149 -0.3042
16196TIP3    H170079   2.254   0.399  14.395 -1.7761 -0.5920  0.4280
16196TIP3    H270080   2.313   0.525  14.455  0.0829 -0.2940 -1.9973
16197TIP3   OH270081   2.026   2.225  14.981 -0.4303  0.1720  0.2806
16197TIP3    H170082   2.080   2.298  14.953  0.5807 -0.0231  1.6148
16197TIP3    H270083   2.056   2.151  14.928 -0.8356  0.5145 -0.4354
16198TIP3   OH270084   3.409   3.026  14.514  0.1569  0.1527  0.2433
16198TIP3    H170085   3.387   3.084  14.442  1.2806 -2.1190 -2.0189
16198TIP3    H270086   3.329   3.021  14.566 -0.6953  1.7855 -0.8709
16199TIP3   OH270087   2.785   1.575   4.680 -0.4733  0.4422  0.3531
16199TIP3    H170088   2.793   1.668   4.658  0.8629  0.4193  0.6576
16199TIP3    H270089   2.859   1.534   4.635 -0.9299 -0.4399  0.3989
16200TIP3   OH270090   3.217   0.734  14.640 -0.2612  0.0281  0.2492
16200TIP3    H170091   3.289   0.788  14.607  0.4497 -0.7555  0.5336
16200TIP3    H270092   3.257   0.651  14.663 -1.2739 -0.4427  0.3268
16201TIP3   OH270093   0.440   6.511   2.240  0.0454 -0.2984  0.1271
16201TIP3    H170094   0.372   6.566   2.280 -1.0974 -0.3121 -1.7439
16201TIP3    H270095   0.407   6.492   2.152  2.3591 -0.5186 -0.7259
16202TIP3   OH270096   3.921   3.795   2.319  0.2503 -0.2360 -0.3447
16202TIP3    H170097   3.860   3.760   2.254  1.5485 -0.7044 -1.3482
16202TIP3    H270098   3.962   3.871   2.276 -1.7963  1.9614  1.4330
16203TIP3   OH270099   2.469   0.612  14.445 -0.0186 -0.1262  0.3145
16203TIP3    H170100   2.423   0.659  14.375 -1.7342 -0.4053  1.2140
16203TIP3    H270101   2.502   0.533  14.402 -1.0125 -0.2737 -0.2165
16204TIP3   OH270102   3.926   6.200  16.356  0.2190  0.3908 -0.4097
16204TIP3    H170103   3.893   6.276  16.404  0.7649  1.1338 -1.1817
16204TIP3    H270104   3.960   6.142  16.423  0.9795  1.4112  0.1060
16205TIP3   OH270105   3.786   2.983  10.019 -0.3619  0.2205 -0.8699
16205TIP3    H170106   3.800   3.051  10.086 -0.6433 -0.2230 -0.3527
16205TIP3    H270107   3.707   2.938  10.048  1.0641 -1.7942  0.0444
16206TIP3   OH270108   0.689   1.299  12.720 -0.3034  0.2581  0.1223
16206TIP3    H170109   0.759   1.241  12.749  0.1203  1.5049  1.6403
16206TIP3    H270110   0.695   1.298  12.624  1.7762  0.3490  0.2356
16207TIP3   OH270111   3.257   4.220  10.957  0.0721 -0.0680 -0.2764
16207TIP3    H170112   3.183   4.163  10.976 -0.1615 -0.0922 -1.2084
16207TIP3    H270113   3.332   4.161  10.951  0.0188 -0.1457 -0.1809
16208TIP3   OH270114   4.503   5.685  10.507  0.5095  0.2546  0.3706
16208TIP3    H170115   4.412   5.662  10.525  1.0770 -0.9299  1.8601
16208TIP3    H270116   4.516   5.768  10.552 -0.0410  0.8208 -0.4990
16209TIP3   OH270117   2.975   4.331  16.323  0.2974 -0.2612 -0.0362
16209TIP3    H170118   3.048   4.341  16.262 -0.9398  2.4143 -1.1526
16209TIP3    H270119   2.970   4.414  16.370 -1.6770 -0.5884  0.4004
16210TIP3   OH270120   2.708   4.786  15.593 -0.1380  0.1494 -0.0887
16210TIP3    H170121   2.692   4.847  15.521  0.0239  1.1362  0.6934
16210TIP3    H270122   2.637   4.723  15.587 -0.7800  0.8954 -0.4229
16211TIP3   OH270123   1.241   3.959  17.087 -0.1811  0.0846  0.0745
16211TIP3    H170124   1.148   3.967  17.067 -0.0174 -2.4493 -2.0512
16211TIP3    H270125   1.244   3.914  17.171 -0.9343 -2.3802 -1.1605
16212TIP3   OH270126   3.452   1.339  16.776  0.3031  0.2209 -0.2622
16212TIP3    H170127   3.468   1.298  16.861 -1.3526 -0.7743 -0.4097
16212TIP3    H270128   3.387   1.407  16.794  2.2409  2.0963 -0.2127
16213TIP3   OH270129   2.223   2.551   0.174 -0.0104 -0.7319  0.0353
16213TIP3    H170130   2.267   2.471   0.145  0.4384 -0.9069  1.1757
16213TIP3    H270131   2.293   2.615   0.182 -0.1356 -0.6609  0.6252
16214TIP3   OH270132   3.056   1.531   1.133  0.2873 -0.4623 -0.0644
16214TIP3    H170133   3.123   1.468   1.105  0.3673  0.6087 -2.3660
16214TIP3    H270134   2.978   1.508   1.083 -0.3599 -0.1724  0.7987
16215TIP3   OH270135   5.533   0.052   1.490 -0.4104 -0.7031  0.3277
16215TIP3    H170136   5.566   0.018   1.407 -0.3620  0.5699 -0.1928
16215TIP3    H270137   5.470  -0.013   1.520  1.4370 -2.4119  0.5527
16216TIP3   OH270138   2.256   1.128   1.491 -1.2604  0.4256  0.5196
16216TIP3    H170139   2.276   1.081   1.572  1.1981  0.9463  0.2658
16216TIP3    H270140   2.221   1.213   1.520  1.4125  1.3759  1.1123
16217TIP3   OH270141   4.289   3.731  14.366  0.6799 -0.8342  0.1593
16217TIP3    H170142   4.360   3.667  14.371  1.7981  0.3177 -0.5955
16217TIP3    H270143   4.330   3.808  14.326 -0.4601  0.5965  1.6900
16218TIP3   OH270144   6.583   5.002   2.413 -0.3178  0.7564 -0.6040
16218TIP3    H170145   6.574   4.925   2.357  0.7073  0.6117 -0.5596
16218TIP3    H270146   6.578   5.076   2.351 -1.2864  0.6647 -0.6464
16219TIP3   OH270147   0.523   3.298  16.664  0.4830 -0.2997 -0.2089
16219TIP3    H170148   0.564   3.344  16.737 -0.0071 -0.2900  0.0609
16219TIP3    H270149   0.470   3.231  16.705 -1.8904  1.3902 -0.4346
16220TIP3   OH270150   3.907   6.445  12.663  0.2199  0.5198 -0.4547
16220TIP3    H170151   3.829   6.412  12.708  0.2350 -0.5443 -1.1886
16220TIP3    H270152   3.964   6.476  12.733  1.1128 -2.9298  0.4689
16221TIP3   OH270153   5.191   5.598  11.776 -0.1879  0.1501 -0.1181
16221TIP3    H170154   5.156   5.590  11.864  0.4375 -1.7637 -0.0172
16221TIP3    H270155   5.143   5.670  11.737 -1.4715  0.0794  1.3085
16222TIP3   OH270156   5.309   1.841   2.504  0.3366  0.7927 -0.0807
16222TIP3    H170157   5.217   1.818   2.497  0.9025 -1.2252 -1.2019
16222TIP3    H270158   5.311   1.936   2.491 -1.5808  0.8765  0.1133
16223TIP3   OH270159   1.921   4.118   2.409 -0.2101  0.4685  0.4220
16223TIP3    H170160   1.926   4.164   2.324 -1.9007 -0.3009 -0.1062
16223TIP3    H270161   2.011   4.121   2.442  1.1626 -1.8472 -2.8072
16224TIP3   OH270162   0.732   3.938   2.800  0.3258  0.2362 -0.7102
16224TIP3    H170163   0.703   3.847   2.793  1.9196 -0.2426 -1.2554
16224TIP3    H270164   0.679   3.974   2.870  1.1576 -1.7092  0.9621
16225TIP3   OH270165   5.992   0.511   1.038  0.1902  0.2280 -0.9838
16225TIP3    H170166   5.928   0.573   1.003 -1.0351 -0.6977 -0.4311
16225TIP3    H270167   6.004   0.448   0.967 -1.0825 -0.7456 -0.3649
16226TIP3   OH270168   4.332   4.516  11.115  0.0212 -0.4522  0.0422
16226TIP3    H170169   4.350   4.493  11.024 -0.0377  0.9101 -0.3330
16226TIP3    H270170   4.242   4.488  11.129 -0.4442  0.5912 -0.7629
16227TIP3   OH270171   3.515   5.026  16.603 -0.5551  0.1929 -0.3046
16227TIP3    H170172   3.558   4.963  16.661  1.5031  1.7124 -0.1284
16227TIP3    H270173   3.430   5.042  16.645  0.2193 -0.0159  1.4129
16228TIP3   OH270174   2.358   5.573  14.902 -0.0996 -0.3175  0.5328
16228TIP3    H170175   2.300   5.597  14.830  1.1605  2.0378  0.2502
16228TIP3    H270176   2.383   5.482  14.884 -1.2364 -0.3508 -0.9894
16229TIP3   OH270177   4.681   3.396   3.992  0.3551 -0.6154  0.5746
16229TIP3    H170178   4.711   3.321   4.043 -0.9227  0.0772  2.3675
16229TIP3    H270179   4.724   3.472   4.033 -0.3206 -0.0981  0.3257
16230TIP3   OH270180   1.329   2.185  11.594  0.4851  0.3258 -0.2529
16230TIP3    H170181   1.361   2.147  11.512 -0.0870  1.6172 -1.0789
16230TIP3    H270182   1.322   2.279  11.576 -0.2623  0.5323  1.0770
16231TIP3   OH270183   1.101   4.583   4.117 -0.6996  0.8709 -0.7339
16231TIP3    H170184   1.123   4.631   4.197 -1.1374  1.1901 -0.8083
16231TIP3    H270185   1.164   4.510   4.116 -1.6499  0.0012  0.6837
16232TIP3   OH270186   5.081   4.908  13.054  0.4955  0.2030  0.1742
16232TIP3    H170187   5.159   4.953  13.023 -1.8198  2.7188 -2.2558
16232TIP3    H270188   5.013   4.975  13.056 -1.6783 -1.9250  2.1738
16233TIP3   OH270189   3.603   5.776  13.397 -0.0044 -0.1591  0.2638
16233TIP3    H170190   3.667   5.718  13.437 -1.8398 -1.8584  0.8117
16233TIP3    H270191   3.572   5.728  13.320 -2.2157 -0.3425  1.2370
16234TIP3   OH270192   4.380   6.311  16.802 -0.3503  0.8684 -0.4514
16234TIP3    H170193   4.295   6.301  16.760 -1.1890  0.5087  1.2831
16234TIP3    H270194   4.390   6.405  16.815 -0.8400  0.8533  0.0457
16235TIP3   OH270195   4.844   3.187   5.845  0.5600  0.0146 -0.2495
16235TIP3    H170196   4.843   3.211   5.938  1.1814  1.5930 -0.6437
16235TIP3    H270197   4.760   3.143   5.831  0.0584  0.5910  0.8500
16236TIP3   OH270198   4.077   0.944   5.844 -0.0565  0.3183 -0.9466
16236TIP3    H170199   4.042   0.855   5.845  0.8691 -0.0486 -0.6389
16236TIP3    H270200   4.010   0.996   5.800 -2.0077  0.0616  1.6811
16237TIP3   OH270201   6.479   1.409  12.666 -0.7396 -0.0376 -0.4666
16237TIP3    H170202   6.465   1.338  12.604 -0.4446  0.7447 -1.4520
16237TIP3    H270203   6.571   1.401  12.691 -0.8283 -0.2855 -0.2286
16238TIP3   OH270204   4.265   5.489  10.810  0.2831  0.0148  0.0868
16238TIP3    H170205   4.300   5.486  10.721  3.1999 -1.8334  1.2153
16238TIP3    H270206   4.296   5.572  10.846 -0.4376  0.5098 -0.4147
16239TIP3   OH270207   0.457   1.846   1.287  0.5766  0.1190 -0.2431
16239TIP3    H170208   0.467   1.889   1.372 -0.1339  1.1542 -0.6688
16239TIP3    H270209   0.420   1.914   1.230  0.3544 -0.7806 -1.1895
16240TIP3   OH270210   2.856   6.303  14.938 -0.4989  0.4999  0.3137
16240TIP3    H170211   2.871   6.384  14.987 -2.9510  0.5105  1.1158
16240TIP3    H270212   2.765   6.281  14.956  0.2813 -2.7479  0.5284
16241TIP3   OH270213   3.368   3.420   4.181  0.4012 -0.0219  0.5863
16241TIP3    H170214   3.337   3.450   4.096  2.1084 -0.0461 -0.0611
16241TIP3    H270215   3.304   3.353   4.207 -0.2854  0.1755 -0.5434
16242TIP3   OH270216   1.815   1.468   5.696 -0.3486  0.1925  0.6833
16242TIP3    H170217   1.889   1.407   5.697 -0.8974 -0.6058 -2.4601
16242TIP3    H270218   1.742   1.417   5.662 -2.6113  0.7846  4.3830
16243TIP3   OH270219   3.842   1.678  16.401  0.4196 -0.1404  0.1451
16243TIP3    H170220   3.900   1.638  16.466  0.1536  0.0534  0.5034
16243TIP3    H270221   3.795   1.605  16.361 -1.2159 -0.0829  1.8911
16244TIP3   OH270222   1.997   6.390   0.590  0.1106  0.2983  0.0052
16244TIP3    H170223   1.994   6.475   0.547 -0.1906 -0.8796 -2.4134
16244TIP3    H270224   2.048   6.335   0.531  0.1725 -1.2498  1.4556
16245TIP3   OH270225   1.092   0.722   1.482  0.1383  0.4326  0.2143
16245TIP3    H170226   1.035   0.799   1.484 -1.3533 -0.5971 -0.6466
16245TIP3    H270227   1.037   0.654   1.444  1.0845 -1.3364  1.9145
16246TIP3   OH270228   6.713   5.277  11.601  0.1207 -0.0148 -0.3106
16246TIP3    H170229   6.792   5.228  11.624  0.7544  0.9744 -0.3372
16246TIP3    H270230   6.642   5.234  11.648  1.0049  0.3675  1.3836
16247TIP3   OH270231   1.627   5.594  13.868  0.1725 -0.0819 -0.2981
16247TIP3    H170232   1.670   5.664  13.918 -1.1260 -0.5812  1.5666
16247TIP3    H270233   1.549   5.636  13.832  0.8516  0.1483 -1.5020
16248TIP3   OH270234   5.060   6.086  12.435  0.1765  0.2633  0.3914
16248TIP3    H170235   5.048   6.158  12.498 -1.4596  0.0569  0.3148
16248TIP3    H270236   5.042   6.126  12.350 -1.0023 -0.3124  0.3749
16249TIP3   OH270237   6.406   6.254   1.004 -0.0503  0.4500 -0.4413
16249TIP3    H170238   6.445   6.272   0.919 -1.8293  0.4408 -1.2701
16249TIP3    H270239   6.385   6.161   1.002 -0.6845  0.5839 -0.2399
16250TIP3   OH270240   6.264   6.290  14.256  0.1284  0.4887  0.0220
16250TIP3    H170241   6.244   6.376  14.219 -0.4677  0.2771 -0.1519
16250TIP3    H270242   6.184   6.239  14.244 -1.0456  1.2108  4.0145
16251TIP3   OH270243   1.670   6.642   0.891  0.5942  0.1752 -0.5315
16251TIP3    H170244   1.760   6.617   0.910  0.3040 -0.5084 -0.0134
16251TIP3    H270245   1.677   6.713   0.827  1.4911  0.0256 -0.6022
16252TIP3   OH270246   0.733   6.366  11.896  0.0594 -0.1930 -0.4428
16252TIP3    H170247   0.695   6.278  11.904  0.3455 -0.2905 -0.0999
16252TIP3    H270248   0.667   6.417  11.851 -1.1087  0.0357  1.4741
16253TIP3   OH270249   0.866   2.571   1.388 -0.1574 -0.1151  0.2566
16253TIP3    H170250   0.931   2.627   1.346  0.0811  0.4368  1.3299
16253TIP3    H270251   0.784   2.594   1.346 -0.0594  1.0660  0.6833
16254TIP3   OH270252   4.233   0.073   2.538 -0.1534  0.2950 -0.1720
16254TIP3    H170253   4.257   0.064   2.446 -0.2452  1.1838 -0.2922
16254TIP3    H270254   4.212   0.166   2.548 -1.6593 -0.0874  0.3836
16255TIP3   OH270255   0.269   2.122   4.734 -0.4545  0.4350 -0.0057
16255TIP3    H170256   0.269   2.206   4.781  0.2688  0.0052  0.7814
16255TIP3    H270257   0.187   2.080   4.760 -0.1282  0.2672  0.7523
16256TIP3   OH270258   6.017   4.808   1.260 -0.0010  0.4612 -0.0253
16256TIP3    H170259   6.085   4.830   1.323  1.0376 -1.6714 -0.3662
16256TIP3    H270260   6.015   4.883   1.200  0.6292  1.4318  1.1499
16257TIP3   OH270261   6.472   2.131  15.806  0.0433 -0.3089 -0.3493
16257TIP3    H170262   6.472   2.035  15.804 -0.2891 -0.3704  1.5660
16257TIP3    H270263   6.454   2.153  15.898  0.2025  1.5859 -0.7539
16258TIP3   OH270264   1.557   6.496   1.491 -0.3786 -0.5301 -0.0822
16258TIP3    H170265   1.595   6.432   1.431 -2.6070 -0.3118 -1.8201
16258TIP3    H270266   1.477   6.525   1.447 -0.9820  1.2096  2.0638
16259TIP3   OH270267   0.482   5.292   4.941  0.2757 -0.2412  0.1756
16259TIP3    H170268   0.494   5.244   5.023  2.0540  1.3291  0.8731
16259TIP3    H270269   0.526   5.239   4.875 -0.4370 -1.0862  0.3702
16260TIP3   OH270270   2.097   0.463   4.808  0.0540 -0.0514 -0.2941
16260TIP3    H170271   2.152   0.385   4.803 -0.1459 -0.1972 -0.2314
16260TIP3    H270272   2.091   0.482   4.902 -0.0671 -0.0839 -0.2943
16261TIP3   OH270273   0.125   3.521  13.533 -0.3113  0.1527  0.3563
16261TIP3    H170274   0.035   3.487  13.528 -0.1088 -0.3657  0.1324
16261TIP3    H270275   0.120   3.608  13.494 -0.3089 -0.7162 -1.6720
16262TIP3   OH270276   3.025   2.951  13.183 -0.3387 -0.6048  0.5301
16262TIP3    H170277   3.082   2.997  13.245  1.9371  0.6025 -2.3394
16262TIP3    H270278   3.085   2.908  13.122 -2.4855  0.0725 -2.1596
16263TIP3   OH270279   3.581   5.279  16.684  0.3140 -0.2961 -0.4692
16263TIP3    H170280   3.564   5.270  16.778 -0.5009  1.0533 -0.4723
16263TIP3    H270281   3.610   5.192  16.656  0.4611 -0.7292  1.0120
16264TIP3   OH270282   2.626   4.023  12.528 -0.4402  0.0777  0.1619
16264TIP3    H170283   2.712   4.054  12.500 -0.1649 -0.3211  0.5524
16264TIP3    H270284   2.637   4.000  12.620 -1.3358  1.3645  0.6079
16265TIP3   OH270285   4.986   0.005   3.997 -0.5856 -0.5689  0.1632
16265TIP3    H170286   4.984   0.084   3.944 -1.8456 -0.9304 -0.3596
16265TIP3    H270287   5.055  -0.049   3.958 -0.3975 -0.1433 -0.0904
16266TIP3   OH270288   2.768   5.050   2.711  0.1949 -0.9060 -0.4373
16266TIP3    H170289   2.751   5.127   2.765  2.3594  0.0874 -1.0931
16266TIP3    H270290   2.706   5.056   2.639  0.0291 -0.0346 -0.2226
16267TIP3   OH270291   3.815   3.357  11.944  0.8263  0.0511  0.2715
16267TIP3    H170292   3.822   3.263  11.961  0.0370  0.1856  1.4542
16267TIP3    H270293   3.898   3.393  11.974  1.2133 -0.3008 -0.3803
16268TIP3   OH270294   0.863   4.961  12.546 -0.0219  0.4887 -0.1585
16268TIP3    H170295   0.930   5.024  12.519 -0.9075  1.5345  0.0849
16268TIP3    H270296   0.785   5.013  12.563 -1.1584 -0.8061 -1.2299
16269TIP3   OH270297   6.405   2.817   5.587 -0.4049 -0.1003 -0.8783
16269TIP3    H170298   6.400   2.875   5.511  2.0008  0.2516 -0.8086
16269TIP3    H270299   6.414   2.729   5.550 -1.4254 -0.1504 -0.9990
16270TIP3   OH270300   4.312   4.234  13.175 -0.2016  0.2398 -0.6986
16270TIP3    H170301   4.388   4.176  13.177 -0.0999  0.2967 -2.1579
16270TIP3    H270302   4.327   4.291  13.099  0.2019  2.9146  1.3206
16271TIP3   OH270303   4.342   4.751  12.832  0.2699  0.0615  0.1860
16271TIP3    H170304   4.320   4.703  12.912 -1.4369  0.5807  0.0637
16271TIP3    H270305   4.356   4.841  12.860  1.7472 -0.1553  0.1768
16272TIP3   OH270306   3.728   6.068  13.927 -0.0360 -0.3052  0.3935
16272TIP3    H170307   3.740   6.014  13.849  2.1084  0.7161 -0.0276
16272TIP3    H270308   3.756   6.155  13.900  2.8014 -0.3559  2.8454
16273TIP3   OH270309   3.156   0.431   0.958  0.5708 -0.1633  0.4243
16273TIP3    H170310   3.117   0.356   0.913 -1.4239  0.2159  1.4816
16273TIP3    H270311   3.244   0.438   0.920  1.0362 -3.3777  0.7270
16274TIP3   OH270312   6.319   2.306   1.969 -0.0447 -0.4566 -0.0812
16274TIP3    H170313   6.275   2.227   1.938  0.1641 -0.7640  0.3982
16274TIP3    H270314   6.413   2.288   1.955  0.0557 -0.6097  0.7199
16275TIP3   OH270315   2.606   3.058  15.882  0.4215 -0.2048 -0.1434
16275TIP3    H170316   2.550   3.014  15.818  1.3650 -1.4655 -0.0960
16275TIP3    H270317   2.575   3.026  15.967  1.5030 -1.2480 -0.1370
16276TIP3   OH270318   4.619   3.998   3.384  0.6036 -0.1038  0.3856
16276TIP3    H170319   4.618   3.952   3.300  0.7031 -0.4438  0.5695
16276TIP3    H270320   4.644   3.931   3.447  0.8609  0.2320  0.6401
16277TIP3   OH270321   0.196   5.041  11.916 -0.2789 -0.5647  0.3457
16277TIP3    H170322   0.266   5.103  11.897  0.0831 -1.1582 -0.3140
16277TIP3    H270323   0.136   5.088  11.973  0.3700  0.1404  0.4504
16278TIP3   OH270324   4.304   1.910   0.746  0.5328 -0.3186 -0.2332
16278TIP3    H170325   4.393   1.911   0.782 -0.0208 -2.0187  1.2612
16278TIP3    H270326   4.263   1.987   0.784  1.2104  0.2032 -0.5368
16279TIP3   OH270327   6.320   2.663   0.760  0.0467 -0.0595  1.0181
16279TIP3    H170328   6.295   2.718   0.834 -1.5087 -1.1841  1.3530
16279TIP3    H270329   6.333   2.576   0.798 -0.1942 -0.5198  0.0594
16280TIP3   OH270330   6.407   6.449  12.339 -0.3128  0.1680 -0.3447
16280TIP3    H170331   6.389   6.356  12.352 -1.2022  0.4322  0.2930
16280TIP3    H270332   6.341   6.478  12.276  0.0266  0.3569 -0.6217
16281TIP3   OH270333   2.223   1.074  13.433  0.0978 -1.2651 -0.5333
16281TIP3    H170334   2.184   1.113  13.354  0.4480  0.2351  0.0336
16281TIP3    H270335   2.317   1.080  13.419  0.2072  1.6302  1.2599
16282TIP3   OH270336   2.113   5.798  15.922 -0.1403 -0.1992 -0.3294
16282TIP3    H170337   2.076   5.757  16.000  0.1196 -0.5159 -0.3733
16282TIP3    H270338   2.044   5.859  15.892  0.4780  1.2988  1.2073
16283TIP3   OH270339   5.381   0.032   5.977 -0.1363 -0.3019 -0.1174
16283TIP3    H170340   5.333   0.095   6.029 -0.1505  0.0488 -0.5526
16283TIP3    H270341   5.431  -0.019   6.040 -0.4435 -0.1257  0.2650
16284TIP3   OH270342   4.883   5.209  11.625  0.2939 -0.2860 -0.5800
16284TIP3    H170343   4.894   5.247  11.538  0.8220 -1.6468 -1.1266
16284TIP3    H270344   4.823   5.136  11.612  1.6317 -1.4908 -0.1107
16285TIP3   OH270345   4.438   2.307   0.689 -0.3401 -0.3295  0.1507
16285TIP3    H170346   4.407   2.396   0.706  0.2677  0.5693 -3.0577
16285TIP3    H270347   4.363   2.263   0.649 -0.2567 -0.8680  0.5934
16286TIP3   OH270348   0.123   5.944   5.255  0.0992 -0.4619  0.5287
16286TIP3    H170349   0.047   5.984   5.297 -0.9652  2.5460 -3.8436
16286TIP3    H270350   0.197   5.998   5.283 -0.3935  0.6589 -0.2871
16287TIP3   OH270351   0.589   3.197  15.770 -0.4041  0.0083  0.6405
16287TIP3    H170352   0.574   3.289  15.793  0.3320 -0.2737  2.3095
16287TIP3    H270353   0.508   3.170  15.727 -0.7173  1.3748  0.3368
16288TIP3   OH270354   0.990   0.191   6.752  0.2752  0.2580 -0.0894
16288TIP3    H170355   1.010   0.249   6.678  0.1341  0.0168 -0.3158
16288TIP3    H270356   0.986   0.104   6.714 -1.1855  0.2976 -0.0383
16289TIP3   OH270357   3.294   0.083   4.747  0.1117  0.0296 -0.3314
16289TIP3    H170358   3.211   0.110   4.709 -0.0004 -0.6299 -0.5594
16289TIP3    H270359   3.273   0.060   4.838 -0.4633 -2.6031 -1.0775
16290TIP3   OH270360   1.842   4.653  15.602  0.1559  0.3904  0.3650
16290TIP3    H170361   1.881   4.591  15.663 -1.6960 -1.1915 -0.0416
16290TIP3    H270362   1.807   4.723  15.657 -0.9281 -0.7089  1.0986
16291TIP3   OH270363   1.565   6.743   4.382  0.1189  0.1729 -0.3287
16291TIP3    H170364   1.507   6.789   4.322 -0.1433 -0.8930 -0.9099
16291TIP3    H270365   1.642   6.800   4.391 -0.4600  0.9904 -0.5537
16292TIP3   OH270366   1.467   1.023   4.719 -0.3761 -0.3005 -0.7008
16292TIP3    H170367   1.543   1.078   4.738  0.4143 -1.1380 -1.3326
16292TIP3    H270368   1.455   1.031   4.624 -0.4617 -0.9407 -0.7490
16293TIP3   OH270369   1.179   3.344  13.414 -0.0605  0.6592  0.2749
16293TIP3    H170370   1.256   3.294  13.387 -0.5742  0.5265 -0.9617
16293TIP3    H270371   1.174   3.417  13.352 -1.1791  0.4188  0.0704
16294TIP3   OH270372   6.192   6.233   5.941  0.1392 -0.4082  0.6693
16294TIP3    H170373   6.258   6.290   5.901 -0.6384 -0.3507 -0.5649
16294TIP3    H270374   6.112   6.286   5.943  0.1540 -0.4183  2.3105
16295TIP3   OH270375   2.686   1.499   5.742  0.0955  0.6516 -0.0792
16295TIP3    H170376   2.734   1.467   5.818  0.7145 -0.0109 -0.7444
16295TIP3    H270377   2.603   1.453   5.745 -0.4341  1.6361  0.9484
16296TIP3   OH270378   6.777   1.740   1.979  0.2341 -0.3973 -0.0213
16296TIP3    H170379   6.715   1.693   1.923 -0.8028  1.2356 -0.2623
16296TIP3    H270380   6.822   1.800   1.919 -1.4821  1.9817  1.0166
16297TIP3   OH270381   2.235   2.008   5.537  0.4898  0.1109  0.7228
16297TIP3    H170382   2.302   1.944   5.512 -0.4728 -0.6643  0.1048
16297TIP3    H270383   2.176   2.011   5.462 -0.6073  0.1937  1.5870
16298TIP3   OH270384   2.461   0.515  11.909  0.2299  0.4217  0.6049
16298TIP3    H170385   2.510   0.589  11.874 -0.5111  1.4914  1.7718
16298TIP3    H270386   2.520   0.440  11.900  0.2615  0.7621 -2.3479
16299TIP3   OH270387   2.874   3.134  17.101  0.2259  0.0416 -0.0934
16299TIP3    H170388   2.807   3.129  17.033 -0.1417  0.4391  0.2377
16299TIP3    H270389   2.851   3.211  17.152  1.5038  0.7297 -0.5545
16300TIP3   OH270390   0.751   5.731   2.312  0.1915  0.3185 -0.2419
16300TIP3    H170391   0.743   5.790   2.387 -0.5324 -0.4816  0.3199
16300TIP3    H270392   0.843   5.705   2.312  0.4908  1.3178 -0.4093
16301TIP3   OH270393   3.932   0.284   0.705  0.3544  0.1704 -0.2044
16301TIP3    H170394   3.864   0.266   0.640  2.7595 -1.8704 -2.2685
16301TIP3    H270395   3.956   0.198   0.740 -0.0292  1.1232  2.5450
16302TIP3   OH270396   6.197   3.357   1.306  0.0389 -0.2374 -0.1263
16302TIP3    H170397   6.147   3.276   1.315 -1.6957  0.8844  0.5759
16302TIP3    H270398   6.249   3.344   1.226 -2.0333 -1.1061 -1.3924
16303TIP3   OH270399   0.878   5.714   5.064  0.1957 -0.5236 -0.2992
16303TIP3    H170400   0.856   5.643   5.124  1.4199 -0.4406  0.2628
16303TIP3    H270401   0.857   5.680   4.977 -0.3346 -1.1300  0.0668
16304TIP3   OH270402   0.350   1.458  13.518  0.4092  0.1775 -0.0652
16304TIP3    H170403   0.279   1.521  13.528  1.1525  0.9003  0.7601
16304TIP3    H270404   0.360   1.448  13.424 -2.1791 -1.5367 -0.2194
16305TIP3   OH270405   5.599   4.739   3.351  0.3532 -0.5154  0.1006
16305TIP3    H170406   5.628   4.769   3.437  0.2435  0.7057 -0.2662
16305TIP3    H270407   5.504   4.749   3.354  0.4098  0.1683 -0.3924
16306TIP3   OH270408   3.246   2.788   0.138  0.1752  0.2717  0.3340
16306TIP3    H170409   3.224   2.791   0.045  1.2064 -1.7011 -0.0159
16306TIP3    H270410   3.214   2.703   0.167  0.6491  0.5094  1.5685
16307TIP3   OH270411   4.421   3.504  15.382  0.1487  0.0806 -0.3441
16307TIP3    H170412   4.345   3.462  15.341 -0.6545  2.1911 -1.0964
16307TIP3    H270413   4.478   3.527  15.308 -0.2511  1.8661 -0.1273
16308TIP3   OH270414   1.046   4.426   3.493 -0.3724 -0.2731  0.2818
16308TIP3    H170415   0.977   4.373   3.452  0.1919 -1.9690  1.4740
16308TIP3    H270416   1.117   4.426   3.429 -0.8289  0.0671 -0.2331
16309TIP3   OH270417   5.126   3.090   4.786  0.0738 -0.1654  0.7002
16309TIP3    H170418   5.175   3.172   4.797  1.1495 -0.2530 -2.6355
16309TIP3    H270419   5.048   3.116   4.737 -0.2964 -0.8944  0.9041
16310TIP3   OH270420   5.509   6.654   0.916  0.1275 -0.1608 -0.5674
16310TIP3    H170421   5.446   6.651   0.845  0.7063  0.0008 -1.0883
16310TIP3    H270422   5.501   6.742   0.953 -0.6689 -0.4767  0.0204
16311TIP3   OH270423   5.425   5.438  15.579 -0.2192  0.1316  0.3882
16311TIP3    H170424   5.408   5.531  15.567  0.2144  0.4348  2.1193
16311TIP3    H270425   5.368   5.395  15.515 -0.4230  1.5729 -0.4106
16312TIP3   OH270426   1.705   0.354   2.631  0.5080  0.5696  0.6190
16312TIP3    H170427   1.697   0.433   2.684 -0.7966  0.3705  0.7408
16312TIP3    H270428   1.765   0.298   2.680  1.7771  1.6374  0.3251
16313TIP3   OH270429   3.357   0.639   2.985  0.2871  0.1393 -0.7891
16313TIP3    H170430   3.443   0.597   2.982 -0.1756 -1.5665  4.5805
16313TIP3    H270431   3.299   0.577   2.942  0.9160 -1.1683  0.1970
16314TIP3   OH270432   1.700   4.016  13.642 -0.3644  0.5331  0.2127
16314TIP3    H170433   1.641   4.074  13.594 -1.4892 -0.6516  0.1248
16314TIP3    H270434   1.752   3.973  13.574 -1.5862 -0.7442  0.0500
16315TIP3   OH270435   0.914   3.370  14.963 -0.0206 -0.3669  0.1367
16315TIP3    H170436   0.903   3.433  15.034  0.0757 -0.9250  0.6542
16315TIP3    H270437   0.825   3.342  14.941  0.0337 -1.3657  1.1187
16316TIP3   OH270438   0.041   0.597  16.908 -0.3868 -0.3789  0.3317
16316TIP3    H170439   0.017   0.576  16.998 -1.7360 -2.8940 -0.5730
16316TIP3    H270440  -0.041   0.623  16.867  0.3208  1.3238 -0.0597
16317TIP3   OH270441   3.226   2.197   4.781 -0.0542 -0.3520  0.0634
16317TIP3    H170442   3.287   2.149   4.725 -1.1663 -1.6023 -0.1066
16317TIP3    H270443   3.180   2.128   4.830  0.1887  0.6769  1.7701
16318TIP3   OH270444   0.284   2.110  16.999  0.9445  0.0461 -0.2587
16318TIP3    H170445   0.241   2.025  16.991  0.7492 -0.0728  1.6908
16318TIP3    H270446   0.342   2.115  16.924 -0.9845 -0.6745 -1.8345
16319TIP3   OH270447   4.786   2.231  13.130  0.6828 -0.1959 -0.3291
16319TIP3    H170448   4.706   2.194  13.092 -0.1454  1.8525 -0.6802
16319TIP3    H270449   4.837   2.261  13.056  0.6134  0.7487 -0.0108
16320TIP3   OH270450   0.889   0.890   1.522  0.3408  0.0563  0.3891
16320TIP3    H170451   0.797   0.865   1.535  0.1389  0.9507  0.7252
16320TIP3    H270452   0.885   0.981   1.494  1.1416  0.1727  0.6514
16321TIP3   OH270453   0.007   3.144  12.908 -0.0563 -0.3372 -0.4361
16321TIP3    H170454   0.080   3.116  12.853 -0.8427 -2.3591 -0.4986
16321TIP3    H270455  -0.067   3.153  12.847 -0.2581  0.0633 -0.1306
16322TIP3   OH270456   3.930   2.969   1.373  0.3306  0.1133  0.4228
16322TIP3    H170457   4.002   2.920   1.412  1.1301  0.6169 -0.4208
16322TIP3    H270458   3.904   3.031   1.441  1.0622  0.3087  0.5294
16323TIP3   OH270459   4.223   5.898  13.960 -0.0736  0.3689  0.2710
16323TIP3    H170460   4.228   5.851  14.044  1.2921  1.1134  0.6286
16323TIP3    H270461   4.235   5.990  13.984 -4.0453  1.1051 -0.2551
16324TIP3   OH270462   4.514   2.598  11.415 -0.1948  0.5743  0.3070
16324TIP3    H170463   4.560   2.620  11.496 -2.4498  0.4181  1.6527
16324TIP3    H270464   4.487   2.507  11.426  2.6501 -0.6790 -2.1857
16325TIP3   OH270465   4.606   6.107  13.787  0.8841  0.2819 -0.2002
16325TIP3    H170466   4.602   6.017  13.754  1.7975  0.6628 -1.3431
16325TIP3    H270467   4.532   6.112  13.848  0.9453 -1.3057  0.0494
16326TIP3   OH270468   2.776   5.539  13.646 -0.5033 -0.0573 -0.0268
16326TIP3    H170469   2.731   5.542  13.561 -0.7462  1.4144  0.1486
16326TIP3    H270470   2.869   5.540  13.624 -0.5125 -2.7869 -0.3806
16327TIP3   OH270471   4.807   4.741   0.012  0.0365  0.9341 -0.5815
16327TIP3    H170472   4.817   4.678   0.083 -0.8448  1.3946 -0.0530
16327TIP3    H270473   4.714   4.739  -0.010 -0.1401  2.6188 -0.0432
16328TIP3   OH270474   1.397   4.723   1.523  0.1563  0.0374 -0.0363
16328TIP3    H170475   1.433   4.790   1.464  1.1253 -1.6055 -1.3674
16328TIP3    H270476   1.322   4.687   1.476  1.5955 -2.0436 -0.7908
16329TIP3   OH270477   0.500   0.058  10.983  0.4932 -0.5288 -0.0439
16329TIP3    H170478   0.500   0.146  11.018  0.4155  0.1335 -1.6577
16329TIP3    H270479   0.417   0.020  11.011  0.3193  0.0736  0.2584
16330TIP3   OH270480   2.591   6.643   1.090  0.4751  1.2300 -0.3082
16330TIP3    H170481   2.516   6.590   1.063  1.4740 -0.6313  0.4243
16330TIP3    H270482   2.590   6.639   1.186  1.5755  1.0731 -0.2957
16331TIP3   OH270483   3.648   3.238   1.417  0.4466  0.7289 -0.4499
16331TIP3    H170484   3.734   3.274   1.437  0.8484 -0.7560  0.6126
16331TIP3    H270485   3.662   3.185   1.339  0.5624  0.2771 -0.1258
16332TIP3   OH270486   1.111   2.125  16.406  0.3233 -0.8872  0.2349
16332TIP3    H170487   1.132   2.083  16.489 -1.3547 -2.6384 -0.1981
16332TIP3    H270488   1.195   2.134  16.361  0.8072 -3.1426  0.6313
16333TIP3   OH270489   4.215   4.190  17.247  0.0474 -0.0821 -0.4514
16333TIP3    H170490   4.233   4.134  17.322 -0.3493  0.4468  0.0448
16333TIP3    H270491   4.288   4.253  17.246  0.0879 -0.1308 -0.5473
16334TIP3   OH270492   6.120   5.415  15.279 -0.3032 -0.1040 -0.1490
16334TIP3    H170493   6.142   5.490  15.225  0.3304 -0.7866 -0.8580
16334TIP3    H270494   6.081   5.452  15.358  2.5023  1.1089  0.7266
16335TIP3   OH270495   6.658   3.911   1.832 -0.2983  0.1768  0.2336
16335TIP3    H170496   6.718   3.985   1.841 -0.4746  0.4724 -0.9520
16335TIP3    H270497   6.575   3.951   1.806 -0.6084 -0.3584  0.4045
16336TIP3   OH270498   3.530   0.134   3.045  0.1137 -0.0178 -0.3307
16336TIP3    H170499   3.516   0.206   3.106 -2.1695 -0.6934 -0.0025
16336TIP3    H270500   3.625   0.126   3.038  0.3951  0.8853  2.1717
16337TIP3   OH270501   6.006   4.284  12.839 -0.2188  0.2400  0.6408
16337TIP3    H170502   5.983   4.369  12.804 -0.3237 -0.9185 -2.2577
16337TIP3    H270503   5.928   4.255  12.886 -1.2168  0.5340 -0.7942
16338TIP3   OH270504   5.010   3.546  16.352  0.4258  0.6949  0.0009
16338TIP3    H170505   4.995   3.572  16.261 -0.7279  0.2498  0.0471
16338TIP3    H270506   5.038   3.454  16.346 -0.1908  0.4972  0.1278
16339TIP3   OH270507   6.504   5.515  16.028 -0.2066 -0.2893 -1.1343
16339TIP3    H170508   6.564   5.521  16.103 -1.6239  0.8173 -0.0410
16339TIP3    H270509   6.501   5.604  15.994 -2.6759  0.1030  0.0184
16340TIP3   OH270510   2.777   2.377   2.780 -0.0962  0.1407 -0.3057
16340TIP3    H170511   2.764   2.337   2.693  0.3190  0.4116 -0.4937
16340TIP3    H270512   2.858   2.428   2.771  1.8899 -2.6021  1.2427
16341TIP3   OH270513   5.759   2.355   0.313  0.3048  0.3995  0.1019
16341TIP3    H170514   5.721   2.273   0.283 -2.2623  1.6145 -0.1117
16341TIP3    H270515   5.797   2.394   0.234  0.7788 -0.1732  0.0421
16342TIP3   OH270516   4.449   4.540   5.473 -0.0140 -0.3697  0.7476
16342TIP3    H170517   4.468   4.495   5.556 -0.6035  1.3684  1.8611
16342TIP3    H270518   4.355   4.558   5.477  0.0735  0.2506 -0.0380
16343TIP3   OH270519   4.473   2.987  15.987  0.2429 -0.0560  0.1791
16343TIP3    H170520   4.467   2.897  15.953 -2.2124 -0.0988  0.6595
16343TIP3    H270521   4.552   3.023  15.946 -0.2303 -1.5465 -2.0978
16344TIP3   OH270522   1.209   2.202  15.962 -0.1123 -0.3481 -0.0218
16344TIP3    H170523   1.251   2.279  16.000  0.4786  0.6004 -2.5064
16344TIP3    H270524   1.124   2.197  16.006  1.4876 -0.7182  3.1322
16345TIP3   OH270525   2.398   0.942  10.564  0.3434 -0.2190 -0.4997
16345TIP3    H170526   2.383   1.035  10.581  0.7089 -0.1642 -0.4723
16345TIP3    H270527   2.320   0.898  10.598 -0.0803  0.1308 -1.0097
16346TIP3   OH270528   1.621   3.792  11.688 -0.1068  0.2335 -0.1040
16346TIP3    H170529   1.542   3.790  11.633 -0.9587 -0.6371  1.0994
16346TIP3    H270530   1.689   3.828  11.632 -1.6943  2.3566 -0.7301
16347TIP3   OH270531   1.688   6.400  13.520  0.1302  0.4533  0.3991
16347TIP3    H170532   1.707   6.493  13.510  1.5124  0.0304 -1.2870
16347TIP3    H270533   1.610   6.386  13.467  1.6765  0.1176 -1.8775
16348TIP3   OH270534   1.107   5.084   2.854 -0.4024 -0.0579  0.5356
16348TIP3    H170535   1.012   5.078   2.844 -0.2077 -0.1467 -1.6541
16348TIP3    H270536   1.123   5.174   2.881 -1.0545  0.3379 -0.3421
16349TIP3   OH270537   4.048   2.733  11.517 -0.0308  0.4340 -0.3462
16349TIP3    H170538   4.025   2.825  11.506  0.7467  0.6985  0.1442
16349TIP3    H270539   4.133   2.725  11.473 -0.3568 -0.1722 -0.8574
16350TIP3   OH270540   5.554   6.010   3.250 -0.5129  0.4014  0.0901
16350TIP3    H170541   5.590   5.994   3.162 -1.4006  1.4292 -0.4681
16350TIP3    H270542   5.608   6.082   3.284 -1.6077  1.5136 -0.4981
16351TIP3   OH270543   5.690   6.710  13.646 -0.0024  0.5087 -0.2907
16351TIP3    H170544   5.636   6.749  13.714  1.2555  1.0699  0.4005
16351TIP3    H270545   5.650   6.740  13.564 -0.9217  0.6514  0.2045
16352TIP3   OH270546   4.858   3.385   3.168 -0.2898 -0.0896  0.1863
16352TIP3    H170547   4.780   3.420   3.210  0.6340  0.5179  1.4182
16352TIP3    H270548   4.928   3.446   3.191  1.3252 -2.5896  2.2205
16353TIP3   OH270549   4.857   4.500   4.721  0.0587  0.4299  0.3326
16353TIP3    H170550   4.840   4.564   4.791 -1.4646  0.6164 -0.1733
16353TIP3    H270551   4.796   4.428   4.739 -1.4417  1.1558 -1.6267
16354TIP3   OH270552   3.763   2.415   2.156 -0.3587 -0.8637 -0.2711
16354TIP3    H170553   3.753   2.429   2.062  1.1424 -0.6249 -0.4028
16354TIP3    H270554   3.702   2.476   2.196 -1.9267 -1.8499 -1.1109
16355TIP3   OH270555   1.272   1.578   4.818 -0.8131 -0.0446 -0.0896
16355TIP3    H170556   1.277   1.650   4.881  0.0067  0.3993 -0.6457
16355TIP3    H270557   1.187   1.537   4.834 -0.0481 -0.7864  2.2320
16356TIP3   OH270558   0.089   1.328  12.418  0.2594  0.1112  0.4111
16356TIP3    H170559   0.138   1.333  12.336  0.8428 -2.1807  0.5885
16356TIP3    H270560   0.025   1.398  12.412  0.6914  0.3489 -1.7464
16357TIP3   OH270561   2.104   0.302   3.465 -0.3038  0.2914 -0.0404
16357TIP3    H170562   2.047   0.370   3.500 -1.8223 -1.2236  0.5320
16357TIP3    H270563   2.123   0.245   3.541 -0.2153 -0.6863 -0.7822
16358TIP3   OH270564   5.325   0.358   3.767  0.2254 -0.0624  0.1533
16358TIP3    H170565   5.282   0.444   3.761  0.5452  0.0817 -0.1038
16358TIP3    H270566   5.380   0.364   3.845  0.2292 -0.0443  0.1491
16359TIP3   OH270567   1.904   6.333   5.037 -0.0791 -0.3618 -0.3953
16359TIP3    H170568   1.889   6.402   5.101 -1.0939 -0.0984 -0.9156
16359TIP3    H270569   1.878   6.371   4.953  0.9216 -0.8160 -0.9302
16360TIP3   OH270570   5.251   1.366  12.288 -0.4208 -0.3486  0.6954
16360TIP3    H170571   5.300   1.316  12.224  0.1788  0.3778  0.5815
16360TIP3    H270572   5.291   1.344  12.372 -0.4266 -0.3827  0.6887
16361TIP3   OH270573   2.873   0.490  12.418  0.8851 -0.2367 -0.0988
16361TIP3    H170574   2.926   0.556  12.462  0.8148 -0.3116  0.0970
16361TIP3    H270575   2.785   0.528  12.415  0.1456 -1.6014  2.7725
16362TIP3   OH270576   5.397   3.073   1.061 -0.0943  0.1910  0.1861
16362TIP3    H170577   5.489   3.047   1.063 -0.3348 -0.7854 -0.5968
16362TIP3    H270578   5.394   3.145   0.997  0.5387  2.0279  2.1899
16363TIP3   OH270579   2.480   1.227  15.590 -0.4588  0.4797 -0.0255
16363TIP3    H170580   2.392   1.249  15.622  0.0120  0.5245  1.2401
16363TIP3    H270581   2.521   1.312  15.573 -0.0616  0.5000  1.0158
16364TIP3   OH270582   2.330   1.830   2.814 -0.2434  0.3728 -0.6542
16364TIP3    H170583   2.281   1.787   2.884 -0.4340 -0.4490 -1.2811
16364TIP3    H270584   2.392   1.887   2.860 -0.3584 -0.1656  0.1860
16365TIP3   OH270585   1.032   0.749  14.552  0.2982 -0.5799  0.3493
16365TIP3    H170586   1.087   0.797  14.613 -0.6334  1.5299 -0.4387
16365TIP3    H270587   1.072   0.763  14.466 -1.5640  1.1991 -0.2708
16366TIP3   OH270588   3.139   2.332   4.109 -0.0250 -0.4620  0.0028
16366TIP3    H170589   3.043   2.327   4.109  0.0066 -1.1902  0.8528
16366TIP3    H270590   3.164   2.315   4.018 -0.7483  0.7663 -0.4310
16367TIP3   OH270591   2.713   6.140   3.917  0.0365  0.5246 -0.8684
16367TIP3    H170592   2.780   6.073   3.898 -0.4162 -0.3031  0.3283
16367TIP3    H270593   2.720   6.153   4.012  0.1268  2.2055 -1.0994
16368TIP3   OH270594   1.455   2.706   2.142 -0.0492  0.1445 -0.0233
16368TIP3    H170595   1.375   2.705   2.194  0.4285  0.0103  0.7281
16368TIP3    H270596   1.502   2.627   2.170  0.3494  0.2303 -0.4432
16369TIP3   OH270597   4.569   0.263   1.728  0.0805  0.3915  0.1058
16369TIP3    H170598   4.520   0.266   1.810  0.8264  1.4284  0.5333
16369TIP3    H270599   4.629   0.189   1.738 -0.4819 -0.0627  0.1142
16370TIP3   OH270600   5.406   2.839   1.249  0.0259 -0.4383 -0.5561
16370TIP3    H170601   5.316   2.862   1.228 -0.4108 -0.1870  1.4281
16370TIP3    H270602   5.423   2.759   1.199 -1.6772 -1.1009 -0.1272
16371TIP3   OH270603   5.732   3.216  13.605 -0.1035  0.4050 -0.6347
16371TIP3    H170604   5.671   3.249  13.539  2.0584  1.4236 -2.1593
16371TIP3    H270605   5.777   3.144  13.562 -0.7870 -0.8983  0.7738
16372TIP3   OH270606   6.237   0.322  11.796 -0.1968 -0.0948 -0.0374
16372TIP3    H170607   6.162   0.370  11.761 -0.4291  0.0254  0.6146
16372TIP3    H270608   6.260   0.368  11.877 -0.3918 -1.0317  0.5655
16373TIP3   OH270609   0.329   0.825   3.068  0.1423  0.1154 -0.2036
16373TIP3    H170610   0.373   0.776   2.998 -1.7288  1.6467 -2.5497
16373TIP3    H270611   0.252   0.772   3.089 -0.2291  0.5090 -0.5580
16374TIP3   OH270612   1.235   6.641   0.120  0.4882 -0.2480  0.0068
16374TIP3    H170613   1.310   6.593   0.085 -0.1725 -1.5870  0.4265
16374TIP3    H270614   1.216   6.599   0.203 -0.1942  0.6481  0.3111
16375TIP3   OH270615   2.587   5.689   6.242  0.8771  0.0993  0.0247
16375TIP3    H170616   2.620   5.759   6.185  0.4096  0.0264 -0.3341
16375TIP3    H270617   2.663   5.633   6.257  0.8047 -0.3475 -1.2201
16376TIP3   OH270618   1.551   1.412  16.851  0.2036  0.1384  0.1325
16376TIP3    H170619   1.602   1.420  16.769  0.0590 -0.2066  0.0097
16376TIP3    H270620   1.562   1.497  16.894 -0.2058  0.5280 -0.5278
16377TIP3   OH270621   5.254   4.198  15.066  0.3079 -0.5514  0.3203
16377TIP3    H170622   5.205   4.167  14.990 -1.2897 -2.8057  2.2196
16377TIP3    H270623   5.208   4.278  15.094 -0.0489 -0.6115 -0.1060
16378TIP3   OH270624   0.853   1.535   5.689  0.7767  0.0045 -0.4415
16378TIP3    H170625   0.818   1.479   5.758  0.5561  0.1523 -0.4329
16378TIP3    H270626   0.936   1.567   5.723  1.7279 -1.6588 -1.1128
16379TIP3   OH270627   5.594   5.028  13.232  0.2553  0.0461 -0.3705
16379TIP3    H170628   5.512   5.040  13.280  0.9250 -2.9768  1.6578
16379TIP3    H270629   5.651   4.981  13.292  2.4521 -0.5385 -2.8067
16380TIP3   OH270630   1.032   5.104  12.981 -0.4262 -0.1141  0.0561
16380TIP3    H170631   1.014   5.030  12.924  0.3330 -0.2477 -0.0129
16380TIP3    H270632   0.965   5.099  13.050  0.2477 -1.4542  0.6246
16381TIP3   OH270633   1.836   3.091  12.334 -0.0614  0.3871 -0.2184
16381TIP3    H170634   1.802   3.040  12.408 -2.2412  0.1627 -1.3079
16381TIP3    H270635   1.853   3.178  12.370  0.0091 -0.0523  0.8099
16382TIP3   OH270636   0.033   2.026   4.826 -0.5277 -0.1106  0.2547
16382TIP3    H170637  -0.001   1.954   4.879  0.9819 -1.2270 -0.2815
16382TIP3    H270638  -0.028   2.032   4.752  0.3036 -1.9885 -0.6121
16383TIP3   OH270639   6.258   6.378  12.578 -0.2673  0.3650  0.2422
16383TIP3    H170640   6.327   6.432  12.540  1.3383  0.3501  3.0165
16383TIP3    H270641   6.264   6.295  12.530  1.5714  0.4125  0.3516
16384TIP3   OH270642   4.978   2.936   4.206  0.2050 -0.2457 -0.5908
16384TIP3    H170643   4.884   2.950   4.221  0.4517  1.1379 -0.2741
16384TIP3    H270644   5.021   2.981   4.278  1.1205 -1.0623 -0.6165
16385TIP3   OH270645   4.107   4.577  12.380 -0.0423  0.2417 -0.0745
16385TIP3    H170646   4.140   4.638  12.313  2.1166  0.7378  1.3737
16385TIP3    H270647   4.036   4.529  12.337  1.5227  0.3175 -2.8327
16386TIP3   OH270648   6.269   6.325  13.747 -0.1313 -0.0948  1.3639
16386TIP3    H170649   6.338   6.349  13.808  1.5194 -1.6380  0.1639
16386TIP3    H270650   6.198   6.387  13.764  1.3188  1.1247  3.0294
16387TIP3   OH270651   5.904   4.505   4.382 -0.1248 -0.1680  0.2947
16387TIP3    H170652   5.944   4.419   4.394  0.0248  0.0454  1.3611
16387TIP3    H270653   5.943   4.560   4.450 -1.4314  0.3208  0.6737
16388TIP3   OH270654   2.215   5.591  15.383  0.0500 -0.6084 -0.0043
16388TIP3    H170655   2.273   5.515  15.377  0.0295 -0.6123 -0.1497
16388TIP3    H270656   2.262   5.652  15.440 -0.2652 -1.0270  0.7061
16389TIP3   OH270657   4.307   0.171  14.682  0.2136  0.0307 -0.3691
16389TIP3    H170658   4.285   0.143  14.771 -2.2642  1.0645 -0.6145
16389TIP3    H270659   4.275   0.261  14.676  1.3142  0.3446 -1.9863
16390TIP3   OH270660   6.012   6.581  16.064  0.6504  0.3899  0.5199
16390TIP3    H170661   6.038   6.640  16.135  0.3818 -0.0978  1.0269
16390TIP3    H270662   5.980   6.503  16.109 -1.1159  0.7343 -0.1033
16391TIP3   OH270663   0.859   5.940  12.040  0.4188  0.5272  0.0211
16391TIP3    H170664   0.791   5.974  11.982  0.4995  1.2157  0.3288
16391TIP3    H270665   0.873   5.850  12.011 -2.2202 -0.3637  1.4002
16392TIP3   OH270666   3.379   2.083  15.823  0.5605 -0.1644 -0.2084
16392TIP3    H170667   3.426   2.165  15.837  0.4278  0.1775 -1.7491
16392TIP3    H270668   3.440   2.030  15.771 -0.1498 -0.3079 -0.8861
16393TIP3   OH270669   0.292   6.415  15.652 -0.7205  0.2132  0.7783
16393TIP3    H170670   0.386   6.426  15.664 -0.5823 -0.0135 -0.0330
16393TIP3    H270671   0.261   6.374  15.733 -0.1364  0.3731  1.0804
16394TIP3   OH270672   3.386   0.285  12.932 -0.4256  0.6167  0.4814
16394TIP3    H170673   3.340   0.284  12.848 -0.7220  1.8259  0.6260
16394TIP3    H270674   3.478   0.298  12.908 -0.5367  1.1813  0.3456
16395TIP3   OH270675   5.459   4.138   0.684  0.9165 -0.6260  0.0686
16395TIP3    H170676   5.478   4.228   0.658  1.3736 -0.7954 -0.1958
16395TIP3    H270677   5.439   4.094   0.601  0.1068 -0.6257  0.2640
16396TIP3   OH270678   5.938   2.715  15.668  0.1849 -0.2213  0.6018
16396TIP3    H170679   5.866   2.754  15.618  0.2188 -2.6155 -1.4124
16396TIP3    H270680   5.975   2.650  15.609  4.0708  0.9769  1.5603
16397TIP3   OH270681   5.104   2.664   5.096 -0.3848  0.1904 -0.5181
16397TIP3    H170682   5.183   2.626   5.135 -0.1302  1.2952  0.0556
16397TIP3    H270683   5.044   2.675   5.170 -0.5690  0.6166 -0.7320
16398TIP3   OH270684   6.294   4.770   0.616  0.4159  0.1048  0.2342
16398TIP3    H170685   6.373   4.727   0.649  1.7713  1.9836 -0.4941
16398TIP3    H270686   6.287   4.850   0.668 -1.3402 -0.3015  0.6689
16399TIP3   OH270687   2.161   1.881  12.616  0.6537  0.1669  0.2481
16399TIP3    H170688   2.237   1.933  12.643  1.1050 -0.8257  0.9068
16399TIP3    H270689   2.098   1.946  12.584  2.3885  0.9096 -1.8199
16400TIP3   OH270690   5.996   0.826   3.723 -0.0970 -0.0094  0.0636
16400TIP3    H170691   6.011   0.899   3.664 -0.5510 -0.0448 -0.0966
16400TIP3    H270692   5.902   0.810   3.719  0.3245 -2.3288 -1.9728
16401TIP3   OH270693   4.201   6.103  11.762  0.0859 -0.7168 -0.6574
16401TIP3    H170694   4.141   6.033  11.785 -0.2246 -0.5005 -0.8087
16401TIP3    H270695   4.145   6.180  11.751  0.6581  0.1229  1.9460
16402TIP3   OH270696   2.359   0.931   1.734 -0.2331  0.0680  0.0347
16402TIP3    H170697   2.445   0.972   1.724  0.1606 -0.6778  0.3310
16402TIP3    H270698   2.341   0.937   1.827  0.1454 -1.0560  0.1894
16403TIP3   OH270699   4.972   5.366  12.993 -0.2246 -0.1486 -0.0877
16403TIP3    H170700   5.002   5.399  13.077 -0.0306 -0.8849  0.1287
16403TIP3    H270701   4.898   5.424  12.969  1.2065  1.5491 -0.5350
16404TIP3   OH270702   4.450   6.483  16.505  0.3969  0.7681 -0.3660
16404TIP3    H170703   4.439   6.388  16.509 -1.5130  0.8597 -2.6938
16404TIP3    H270704   4.544   6.496  16.514  0.5158 -1.1779  2.0641
16405TIP3   OH270705   5.316   3.807  12.037  0.6032  0.1999 -0.9580
16405TIP3    H170706   5.282   3.719  12.023  0.1556  0.4908 -1.7713
16405TIP3    H270707   5.254   3.847  12.098  1.2540 -0.3098  0.0387
16406TIP3   OH270708   6.464   5.356  12.437  0.5348 -0.3932  1.0466
16406TIP3    H170709   6.486   5.436  12.485 -1.6115  0.4383  0.7320
16406TIP3    H270710   6.414   5.387  12.361 -0.1672 -2.0209  0.8286
16407TIP3   OH270711   4.056   0.865   5.396  0.2149  0.1668 -0.1758
16407TIP3    H170712   4.139   0.911   5.404  1.5054 -2.2064  0.8483
16407TIP3    H270713   4.049   0.815   5.477 -2.5939  0.8888  0.0668
16408TIP3   OH270714   3.237   2.336   3.738  0.1445  0.0235  0.1619
16408TIP3    H170715   3.314   2.322   3.794 -0.7396  0.0509  1.3929
16408TIP3    H270716   3.226   2.431   3.736 -0.2404 -0.0155  0.5021
16409TIP3   OH270717   6.430   0.952   4.871  0.0515  0.2118  0.5614
16409TIP3    H170718   6.480   0.967   4.951  1.5447 -0.4836 -0.2196
16409TIP3    H270719   6.339   0.971   4.895  0.4445 -0.3074  2.4886
16410TIP3   OH270720   4.080   6.358   1.260  0.4879  0.1371  0.1225
16410TIP3    H170721   4.106   6.421   1.328  1.3160 -0.1287  0.0553
16410TIP3    H270722   3.985   6.368   1.254  0.8330  3.0582 -1.5306
16411TIP3   OH270723   6.500   6.448   0.580 -0.4511  0.0060  0.1282
16411TIP3    H170724   6.481   6.361   0.615  0.7934 -0.3511 -0.0474
16411TIP3    H270725   6.512   6.434   0.486 -1.6606  0.6123 -0.1303
16412TIP3   OH270726   4.010   4.808   0.769  0.1967 -0.0999 -0.8615
16412TIP3    H170727   3.916   4.810   0.752 -0.5334 -0.0521  2.8562
16412TIP3    H270728   4.036   4.901   0.767  0.6679 -0.2252 -4.0083
16413TIP3   OH270729   2.206   0.228   2.506  0.3351  0.2351 -0.7270
16413TIP3    H170730   2.130   0.283   2.486 -0.3689  0.0300  1.3438
16413TIP3    H270731   2.180   0.141   2.476 -0.1094  0.2302 -0.3283
16414TIP3   OH270732   2.380   6.339  13.987  0.2278 -0.0312 -0.8837
16414TIP3    H170733   2.433   6.262  13.968 -0.4566 -0.4099 -1.2762
16414TIP3    H270734   2.319   6.310  14.055  0.1185  0.2252 -0.8702
16415TIP3   OH270735   4.399   1.464  14.483 -0.0492  0.6492 -0.1077
16415TIP3    H170736   4.470   1.447  14.545 -1.0910 -1.7787  0.4619
16415TIP3    H270737   4.355   1.541  14.518  0.1818  0.0819  1.4648
16416TIP3   OH270738   2.986   5.060  12.261 -0.1257  0.7422  0.1535
16416TIP3    H170739   3.031   5.143  12.247 -1.1245  1.4396  1.0024
16416TIP3    H270740   2.960   5.063  12.353  1.2719 -1.2181  0.6474
16417TIP3   OH270741   3.020   1.705  11.854 -0.0500 -0.5445 -0.4154
16417TIP3    H170742   2.949   1.680  11.796 -2.0546  0.4522  1.5666
16417TIP3    H270743   3.041   1.795  11.830 -1.3239  0.0939  0.8037
16418TIP3   OH270744   5.296   6.710  11.294  0.7713 -0.4245 -0.4895
16418TIP3    H170745   5.249   6.668  11.222 -0.0049 -1.0289  0.3546
16418TIP3    H270746   5.382   6.669  11.294 -0.1381 -2.4269  0.6305
16419TIP3   OH270747   6.208   0.564  16.703 -0.1800 -0.3183  0.5373
16419TIP3    H170748   6.302   0.559  16.688 -0.4014  0.0810 -0.9944
16419TIP3    H270749   6.189   0.491  16.763  1.0851 -0.4012  0.8431
16420TIP3   OH270750   2.766   0.433   3.564  0.1711 -0.1310  0.2695
16420TIP3    H170751   2.853   0.411   3.530 -0.0975  0.5061 -0.8555
16420TIP3    H270752   2.764   0.396   3.652  1.7746  0.3005  0.4921
16421TIP3   OH270753   1.028   5.483  15.928 -0.5657  0.4720  0.3145
16421TIP3    H170754   1.059   5.426  15.998  0.2429 -1.6570 -1.6923
16421TIP3    H270755   1.100   5.544  15.913 -1.1128  1.5552  1.9235
16422TIP3   OH270756   3.974   3.372   5.521 -0.3459 -0.3582 -0.2497
16422TIP3    H170757   3.912   3.335   5.584 -0.0322 -2.6055 -1.2014
16422TIP3    H270758   3.919   3.403   5.449 -0.5062 -0.3039 -0.1061
16423TIP3   OH270759   2.640   2.730  15.094  0.2233 -0.5385  0.2610
16423TIP3    H170760   2.708   2.682  15.048  0.5637  0.1496  0.0367
16423TIP3    H270761   2.688   2.788  15.154 -0.1783 -0.4738  0.5213
16424TIP3   OH270762   5.514   4.615  15.506  0.1826  0.6609 -0.3196
16424TIP3    H170763   5.548   4.526  15.509 -0.1250  0.5846  0.8643
16424TIP3    H270764   5.550   4.651  15.424  2.8485  0.4711  0.7170
16425TIP3   OH270765   0.335   0.613  12.643 -0.2281 -0.0911 -0.2627
16425TIP3    H170766   0.318   0.677  12.712  2.1322 -0.2297  0.4969
16425TIP3    H270767   0.409   0.650  12.594  0.2029 -1.5218 -0.7266
16426TIP3   OH270768   5.896   1.384   1.736  0.2939 -0.4496  0.3476
16426TIP3    H170769   5.983   1.423   1.740  0.2473 -0.3444  0.3263
16426TIP3    H270770   5.886   1.340   1.821  1.2671 -2.3753 -0.4945
16427TIP3   OH270771   6.000   2.632  15.117  0.2476 -0.1527 -0.1741
16427TIP3    H170772   6.028   2.654  15.028 -0.3509 -1.5304 -0.7115
16427TIP3    H270773   6.036   2.545  15.133 -1.1868 -0.6832  0.2528
16428TIP3   OH270774   6.070   5.029  11.539  0.0331  0.0220  0.1965
16428TIP3    H170775   5.995   5.087  11.553  1.1898  1.5625  0.0539
16428TIP3    H270776   6.146   5.086  11.541  1.1229 -1.3371 -1.0268
16429TIP3   OH270777   3.206   4.646   4.075 -0.4599  0.4984  0.4144
16429TIP3    H170778   3.174   4.565   4.035  2.1120  0.1258 -1.0180
16429TIP3    H270779   3.204   4.710   4.004  1.6596  0.5313  0.3677
16430TIP3   OH270780   0.373   6.414  11.470  0.0059 -0.3397  0.0525
16430TIP3    H170781   0.396   6.323  11.451  0.0761 -0.5071  0.9258
16430TIP3    H270782   0.343   6.449  11.386  0.5796 -0.9857 -0.4299
16431TIP3   OH270783   6.490   6.358   0.326 -0.6144  0.3713  0.2448
16431TIP3    H170784   6.450   6.273   0.311 -0.3054  0.3231 -0.3548
16431TIP3    H270785   6.495   6.397   0.239 -1.0475  1.1336  0.5603
16432TIP3   OH270786   2.834   5.365   3.752 -0.2986 -0.4963 -0.3517
16432TIP3    H170787   2.923   5.363   3.786 -0.9981 -0.6694  1.5188
16432TIP3    H270788   2.788   5.296   3.800 -1.8589  0.7070 -0.0720
16433TIP3   OH270789   3.577   2.170   4.875 -1.1187 -0.3557  0.3655
16433TIP3    H170790   3.618   2.135   4.795  1.0186  0.1409  1.1992
16433TIP3    H270791   3.575   2.265   4.860  0.5138 -0.1374  1.4323
16434TIP3   OH270792   4.122   3.255   3.683 -0.7980 -0.6285  0.2236
16434TIP3    H170793   4.141   3.244   3.776 -1.8152  1.1087  0.6663
16434TIP3    H270794   4.078   3.174   3.658  0.4634 -1.5662  0.9682
16435TIP3   OH270795   0.878   4.015  14.308 -0.3829  0.1644 -0.0389
16435TIP3    H170796   0.891   4.042  14.399  1.2781  1.2469 -0.5594
16435TIP3    H270797   0.966   3.997  14.276 -0.8738  0.5885 -1.6694
16436TIP3   OH270798   4.847   1.552  17.161 -0.5362  0.2237  0.2540
16436TIP3    H170799   4.941   1.567  17.159 -0.0997 -2.3943 -1.3848
16436TIP3    H270800   4.818   1.570  17.071 -1.6529  1.3301  0.8296
16437TIP3   OH270801   2.919   4.912   1.825 -0.3976 -0.8734 -0.0128
16437TIP3    H170802   2.944   4.930   1.916  0.7090  1.1677 -0.6761
16437TIP3    H270803   2.999   4.879   1.785 -0.8158 -1.5236 -0.3099
16438TIP3   OH270804   1.183   1.317   6.679 -0.2752 -0.7584  0.2047
16438TIP3    H170805   1.154   1.408   6.667  2.9342  0.0140 -2.3868
16438TIP3    H270806   1.267   1.324   6.723 -0.4538 -2.5689  0.8800
16439TIP3   OH270807   1.466   0.158  15.246 -0.2185  0.3162  0.4312
16439TIP3    H170808   1.551   0.125  15.276 -0.2488 -0.1957 -0.0544
16439TIP3    H270809   1.402   0.114  15.302 -0.0637  2.3256  2.2801
16440TIP3   OH270810   5.877   6.340  16.157  0.1194 -0.1941 -0.1183
16440TIP3    H170811   5.934   6.281  16.206  0.1331 -1.2757 -1.4222
16440TIP3    H270812   5.790   6.327  16.197  0.4902  0.3559  0.8794
16441TIP3   OH270813   5.870   3.582   2.609 -0.1013 -0.0109 -0.0307
16441TIP3    H170814   5.869   3.488   2.592  0.5376  0.2413 -1.5043
16441TIP3    H270815   5.869   3.622   2.523 -1.7496  1.3674  0.6044
16442TIP3   OH270816   5.442   4.359  10.883  0.3528  0.4445 -0.0567
16442TIP3    H170817   5.416   4.395  10.968 -0.8914 -2.7910  1.0378
16442TIP3    H270818   5.361   4.326  10.845  1.2591 -0.2790 -1.3929
16443TIP3   OH270819   5.577   2.862  16.152  0.4522 -0.2975  0.0249
16443TIP3    H170820   5.486   2.891  16.156  0.4248  0.0643 -2.2608
16443TIP3    H270821   5.573   2.769  16.171 -0.4376 -0.3219 -0.2454
16444TIP3   OH270822   4.840   1.350  14.879  0.1362 -0.4726 -0.2264
16444TIP3    H170823   4.832   1.335  14.784  1.8067 -0.8086 -0.3202
16444TIP3    H270824   4.902   1.284  14.909  0.8155  0.6355  0.8478
16445TIP3   OH270825   0.987   3.667   5.317 -0.1658 -0.0862 -0.2326
16445TIP3    H170826   0.931   3.744   5.312  1.1886  0.7821 -3.5768
16445TIP3    H270827   0.937   3.598   5.273 -0.4243 -0.5350  0.7386
16446TIP3   OH270828   0.266   0.396   6.556 -0.5587  0.2339 -0.2150
16446TIP3    H170829   0.262   0.304   6.585  0.1036  0.3006  0.1006
16446TIP3    H270830   0.319   0.394   6.477 -0.1803  0.3979  0.0313
16447TIP3   OH270831   6.126   0.598  12.064  0.0976 -0.2412  0.6550
16447TIP3    H170832   6.092   0.645  12.141  1.9214 -1.4151  2.2134
16447TIP3    H270833   6.057   0.535  12.042 -1.0182  1.0223  0.4810
16448TIP3   OH270834   2.153   4.919   2.165  0.1795  1.1919 -0.3631
16448TIP3    H170835   2.077   4.952   2.214 -0.8508 -0.4959 -0.7718
16448TIP3    H270836   2.115   4.865   2.096  1.7785 -0.0332 -0.3166
16449TIP3   OH270837   6.189   0.733   1.910  0.2689  0.0399 -0.0945
16449TIP3    H170838   6.264   0.787   1.887 -1.5801  2.4167 -0.6779
16449TIP3    H270839   6.214   0.690   1.992  1.2086  2.9410  1.1802
16450TIP3   OH270840   3.966   6.054   1.165 -0.7793  0.4024 -0.1030
16450TIP3    H170841   4.023   6.065   1.089  0.7629 -2.7208  0.5134
16450TIP3    H270842   4.015   6.096   1.237  0.3927 -1.4951  0.2442
16451TIP3   OH270843   4.824   0.658  13.929  0.5638 -0.2923  0.1348
16451TIP3    H170844   4.780   0.581  13.964  0.6874 -0.1300  0.6607
16451TIP3    H270845   4.761   0.729  13.940  0.2087 -0.4425 -0.9373
16452TIP3   OH270846   3.011   6.289  15.884 -0.4450  0.0005 -0.0466
16452TIP3    H170847   2.962   6.221  15.931 -2.0495  0.2205 -1.3606
16452TIP3    H270848   3.101   6.257  15.881 -1.0458 -1.7233 -0.0131
16453TIP3   OH270849   0.834   3.422   0.666 -0.3886 -0.0853 -0.5267
16453TIP3    H170850   0.811   3.493   0.725  0.8787 -1.0374  1.1329
16453TIP3    H270851   0.830   3.462   0.579 -1.3425  1.5715  0.2542
16454TIP3   OH270852   2.378   1.170  14.051 -0.2340  0.5538  0.0007
16454TIP3    H170853   2.373   1.189  14.144 -0.9570  0.9923 -0.1256
16454TIP3    H270854   2.472   1.172  14.031  0.0130 -0.8502  0.9827
16455TIP3   OH270855   4.361   6.457   5.260  0.0543 -0.3950  0.0316
16455TIP3    H170856   4.432   6.496   5.311 -1.7368  1.4604  1.1548
16455TIP3    H270857   4.404   6.426   5.180  1.9978  1.4926  0.2881
16456TIP3   OH270858   6.278   0.985   3.342 -0.1805 -0.3366 -0.1438
16456TIP3    H170859   6.199   0.944   3.307 -0.4904  2.9448 -3.6915
16456TIP3    H270860   6.342   0.914   3.346 -2.4037 -2.4139 -0.1042
16457TIP3   OH270861   1.594   0.236   2.267 -0.5482 -0.0765 -0.2204
16457TIP3    H170862   1.634   0.151   2.246 -0.7062 -0.5902  1.4600
16457TIP3    H270863   1.500   0.219   2.263 -0.6021 -0.6070  2.3663
16458TIP3   OH270864   0.453   4.668   2.862  0.2562 -0.4608 -0.6165
16458TIP3    H170865   0.358   4.674   2.857  0.3093  0.2636 -0.7684
16458TIP3    H270866   0.484   4.756   2.840  0.9584 -0.6904 -0.5516
16459TIP3   OH270867   1.375   0.822  11.863  0.0228 -0.5658  0.4674
16459TIP3    H170868   1.298   0.852  11.813 -0.7288 -0.1485  1.8619
16459TIP3    H270869   1.343   0.747  11.913  0.9321 -1.3486 -0.1097
16460TIP3   OH270870   3.685   1.828  11.039  0.1166  0.2079  0.1123
16460TIP3    H170871   3.683   1.786  10.954 -0.6957 -0.6540  0.5490
16460TIP3    H270872   3.684   1.756  11.102  0.9952  0.8237  0.8558
16461TIP3   OH270873   1.157   5.241  16.963 -0.3459 -0.4866 -0.7772
16461TIP3    H170874   1.068   5.262  16.991  1.0893  1.7903  2.4020
16461TIP3    H270875   1.193   5.187  17.034  1.1001 -0.5970 -1.5768
16462TIP3   OH270876   4.713   0.992  14.759 -0.2626 -0.1368  0.6190
16462TIP3    H170877   4.662   1.068  14.729  0.6381 -0.9175 -3.0929
16462TIP3    H270878   4.803   1.012  14.734  0.4376 -1.1636  2.2594
16463TIP3   OH270879   4.595   5.496  12.373  0.3664 -0.1018  0.2462
16463TIP3    H170880   4.623   5.409  12.401  2.2628  0.7555  1.1546
16463TIP3    H270881   4.633   5.507  12.286 -1.0144 -0.6903 -0.4447
16464TIP3   OH270882   2.610   5.254  12.264  0.0889  0.3183 -0.0616
16464TIP3    H170883   2.651   5.340  12.253 -0.8414  0.7480 -0.2444
16464TIP3    H270884   2.669   5.194  12.219  0.4995  0.9302 -0.3539
16465TIP3   OH270885   3.888   3.140   1.062 -0.5283  0.4025 -0.2509
16465TIP3    H170886   3.949   3.209   1.089 -0.0445  0.1030 -0.5787
16465TIP3    H270887   3.903   3.131   0.968 -0.4095 -0.3353 -0.1604
16466TIP3   OH270888   2.281   2.574  16.986 -0.2707 -0.5298  0.5277
16466TIP3    H170889   2.212   2.574  17.053  0.3655 -0.9910  1.1978
16466TIP3    H270890   2.277   2.661  16.947 -2.9672 -1.4379 -1.2686
16467TIP3   OH270891   1.481   3.183   2.433 -0.3405 -0.0332 -0.6422
16467TIP3    H170892   1.536   3.200   2.510 -0.3022 -0.5395 -0.5543
16467TIP3    H270893   1.540   3.142   2.370 -0.3342  0.5277 -1.0027
16468TIP3   OH270894   3.361   3.808  16.902  0.0284 -0.1136 -0.2933
16468TIP3    H170895   3.382   3.731  16.956 -1.2963 -0.8605 -0.8333
16468TIP3    H270896   3.290   3.851  16.948  0.2846  0.4035 -0.3756
16469TIP3   OH270897   3.587   5.109   6.326  0.4341 -0.5979 -0.3383
16469TIP3    H170898   3.572   5.142   6.237 -2.4125  0.2869  0.4165
16469TIP3    H270899   3.618   5.020   6.313  0.3835 -0.3726 -2.2300
16470TIP3   OH270900   1.726   6.085   5.493 -0.4122  0.0071  0.0023
16470TIP3    H170901   1.675   6.134   5.557 -1.5821  0.0315 -0.9266
16470TIP3    H270902   1.755   6.151   5.430 -0.1629 -0.1701 -0.0679
16471TIP3   OH270903   2.559   3.681  16.641 -0.0389 -0.4523  0.2493
16471TIP3    H170904   2.653   3.696  16.650  0.2054 -1.6202 -0.3599
16471TIP3    H270905   2.523   3.767  16.620  0.4186  0.7799  4.0336
16472TIP3   OH270906   6.242   4.102   6.473 -0.1056  0.0291  0.0360
16472TIP3    H170907   6.241   4.104   6.377  0.0232 -1.3678 -0.0017
16472TIP3    H270908   6.156   4.136   6.498 -0.1123  0.4745 -0.5813
16473TIP3   OH270909   5.038   3.539   4.827 -0.0315  0.3123 -0.3302
16473TIP3    H170910   4.996   3.492   4.755  0.1045  0.8906 -0.7953
16473TIP3    H270911   5.115   3.580   4.786  0.3116  0.2495  0.2516
16474TIP3   OH270912   0.783   0.179   5.876  0.3535 -0.4183  0.0567
16474TIP3    H170913   0.768   0.196   5.969 -0.1899  1.0229 -0.2850
16474TIP3    H270914   0.878   0.178   5.867  0.4053  1.2012  0.3207
16475TIP3   OH270915   5.433   6.726  15.405  0.4798  0.8592 -0.4444
16475TIP3    H170916   5.509   6.682  15.443  0.3889  1.4273  0.4027
16475TIP3    H270917   5.396   6.661  15.345 -0.3174 -0.6453  1.6339
16476TIP3   OH270918   3.709   3.431   1.754 -0.5159 -0.4889  0.4215
16476TIP3    H170919   3.618   3.457   1.745 -1.0169 -1.9074  1.2130
16476TIP3    H270920   3.747   3.442   1.667 -1.5273 -0.2193  0.0204
16477TIP3   OH270921   5.921   2.588   1.401 -0.5972  0.0916  0.3057
16477TIP3    H170922   6.014   2.596   1.423 -0.5403 -0.7532  0.4015
16477TIP3    H270923   5.899   2.670   1.356 -0.0693  0.7301  1.2119
16478TIP3   OH270924   5.365   5.411   5.880 -0.2499  0.3902 -0.4459
16478TIP3    H170925   5.398   5.321   5.872 -1.6479 -0.3383  1.6528
16478TIP3    H270926   5.439   5.466   5.853  0.9482 -1.3464 -0.7777
16479TIP3   OH270927   6.276   2.779   5.201 -0.5095 -0.5800 -0.0494
16479TIP3    H170928   6.190   2.737   5.204 -1.3834  1.2175  0.9401
16479TIP3    H270929   6.330   2.720   5.149 -1.7355 -2.8458  1.1825
16480TIP3   OH270930   0.187   3.399  16.361  0.2129 -0.5515  0.3536
16480TIP3    H170931   0.199   3.410  16.267 -1.1094 -0.1155  0.2281
16480TIP3    H270932   0.261   3.446  16.400  1.6968 -2.1321 -0.4951
16481TIP3   OH270933   3.529   0.318  15.770 -0.2027 -0.1123 -0.4373
16481TIP3    H170934   3.471   0.271  15.710 -0.7401  0.1458 -0.1133
16481TIP3    H270935   3.548   0.254  15.839 -0.2606 -0.1261 -0.4351
16482TIP3   OH270936   0.005   5.791   2.126  0.0268 -0.1634  0.3448
16482TIP3    H170937  -0.037   5.771   2.210 -0.1341 -0.5168  0.1805
16482TIP3    H270938   0.068   5.719   2.113  0.4158  0.1635  0.4092
16483TIP3   OH270939   3.210   0.880   5.325  0.1826  0.0168  0.4753
16483TIP3    H170940   3.199   0.799   5.276  3.0978 -0.2770  0.1801
16483TIP3    H270941   3.129   0.928   5.311 -1.4258 -2.6541  0.3196
16484TIP3   OH270942   6.347   3.147   6.202 -0.5385  0.1705 -0.4878
16484TIP3    H170943   6.283   3.077   6.191 -1.9733  1.4720 -0.5530
16484TIP3    H270944   6.429   3.101   6.222 -1.5180 -1.5081 -0.1973
16485TIP3   OH270945   3.474   5.312  15.542 -0.1635 -0.1797  0.7035
16485TIP3    H170946   3.492   5.219  15.531  0.6202 -0.0189  0.6386
16485TIP3    H270947   3.484   5.350  15.455  2.1294  0.4100  1.2007
16486TIP3   OH270948   4.323   2.456  14.165 -0.0797  0.0273  0.0118
16486TIP3    H170949   4.301   2.536  14.213 -0.6993 -0.7206  0.9712
16486TIP3    H270950   4.338   2.390  14.232  0.1283 -0.7500 -0.7878
16487TIP3   OH270951   0.446   6.422   6.254 -0.8107 -0.6714  0.1093
16487TIP3    H170952   0.509   6.409   6.184 -0.8592  1.1987 -0.3138
16487TIP3    H270953   0.367   6.377   6.223 -0.6214 -0.4399 -0.7328
16488TIP3   OH270954   5.525   1.279  11.645  0.3134 -0.0867 -0.2224
16488TIP3    H170955   5.477   1.338  11.703 -0.1080 -0.7327  0.1051
16488TIP3    H270956   5.546   1.331  11.568  2.2052  1.2496  1.1400
16489TIP3   OH270957   2.331   0.886  14.442  0.3658  0.0562 -0.2661
16489TIP3    H170958   2.352   0.825  14.371  0.2354  0.5812 -0.7563
16489TIP3    H270959   2.259   0.843  14.489 -0.1235  0.0940 -0.9668
16490TIP3   OH270960   3.512   5.981   0.498  0.4842 -0.6250  0.1665
16490TIP3    H170961   3.542   6.069   0.519 -2.7387  0.8425 -1.0172
16490TIP3    H270962   3.563   5.955   0.422  2.4359 -0.4042  1.3545
16491TIP3   OH270963   4.476   2.838   3.499 -0.2348 -0.2342  0.4250
16491TIP3    H170964   4.454   2.750   3.470 -1.6851 -0.2451  1.4947
16491TIP3    H270965   4.571   2.839   3.503 -0.1421 -1.2267 -1.1731
16492TIP3   OH270966   6.757   4.551  11.765  0.2645  0.3937  0.7230
16492TIP3    H170967   6.822   4.616  11.792 -0.2422  0.3891  2.0199
16492TIP3    H270968   6.808   4.475  11.738  0.8198  0.7209  0.8440
16493TIP3   OH270969   1.921   1.962  16.715  0.0229 -0.2218  0.2022
16493TIP3    H170970   1.888   1.930  16.631  0.1466 -0.0564  0.0891
16493TIP3    H270971   1.902   1.892  16.776  1.0934 -0.8819 -0.2069
16494TIP3   OH270972   1.253   0.510   1.800  0.2672  0.3879  0.2735
16494TIP3    H170973   1.204   0.590   1.820 -0.0699  0.0921  0.6489
16494TIP3    H270974   1.250   0.459   1.881  0.7352  0.1254  0.1303
16495TIP3   OH270975   5.059   4.901  17.221 -0.4163  0.3664  0.3567
16495TIP3    H170976   5.130   4.851  17.261  0.5970  1.3458 -0.1754
16495TIP3    H270977   4.979   4.857  17.250  0.4398 -1.5907 -0.1651
16496TIP3   OH270978   3.013   5.277   3.955  0.1965 -0.3668  0.1801
16496TIP3    H170979   2.978   5.199   3.998 -2.1372  0.3425 -0.3425
16496TIP3    H270980   3.076   5.244   3.893 -0.0031 -1.7703  0.7090
16497TIP3   OH270981   2.307   6.422   5.032  1.0883 -0.0629 -0.1095
16497TIP3    H170982   2.225   6.469   5.052  1.6417  0.5015  0.8935
16497TIP3    H270983   2.319   6.363   5.107  0.3260 -1.9399 -1.4203
16498TIP3   OH270984   2.966   0.073  12.623 -0.9843 -0.2043 -0.9192
16498TIP3    H170985   2.905   0.143  12.648  0.1442  0.8507 -1.0697
16498TIP3    H270986   2.983   0.026  12.704  2.1390  2.7884  0.3052
16499TIP3   OH270987   1.605   2.656   1.044  0.2767 -0.1125 -0.4969
16499TIP3    H170988   1.633   2.684   1.131 -3.6364  0.8126  0.5790
16499TIP3    H270989   1.671   2.691   0.984  2.2234  0.5147  1.9387
16500TIP3   OH270990   3.122   6.038  14.638 -0.0122  0.3886  0.1548
16500TIP3    H170991   3.041   6.086  14.654 -0.6777 -0.5062 -0.5060
16500TIP3    H270992   3.125   6.027  14.543 -0.1567 -1.3536  0.3372
16501TIP3   OH270993   3.819   5.902  15.320 -0.6334  0.3192 -0.9466
16501TIP3    H170994   3.739   5.954  15.325 -1.4243 -1.1324  2.3940
16501TIP3    H270995   3.796   5.829  15.262 -1.0597  0.9974 -1.6451
16502TIP3   OH270996   1.849   1.508   0.430 -0.2082  0.0842 -0.4321
16502TIP3    H170997   1.897   1.432   0.397  0.7215  0.6370 -0.3579
16502TIP3    H270998   1.784   1.525   0.362 -1.1040 -1.4004  0.0224
16503TIP3   OH270999   0.055   6.009   1.844 -0.3426 -0.1480  0.2594
16503TIP3    H171000   0.116   5.937   1.860 -1.1498 -0.5829  1.4044
16503TIP3    H271001   0.110   6.087   1.845  0.1719 -0.5097  1.5847
16504TIP3   OH271002   0.056   4.580   2.499 -0.0939  0.0182 -0.4489
16504TIP3    H171003  -0.033   4.603   2.526 -0.0435  0.5771 -0.7646
16504TIP3    H271004   0.055   4.484   2.496  0.4352 -0.2088  3.3960
16505TIP3   OH271005   3.284   2.186   1.468  1.0798 -0.5624 -1.0370
16505TIP3    H171006   3.191   2.169   1.483  1.0648 -0.0905 -0.6020
16505TIP3    H271007   3.320   2.100   1.445  0.9842 -1.1696  1.0332
16506TIP3   OH271008   0.141   3.571  14.356 -0.3700 -0.1554  0.2113
16506TIP3    H171009   0.236   3.564  14.364 -0.4076 -0.7587  0.1361
16506TIP3    H271010   0.127   3.631  14.282 -0.0482  1.0943  1.1331
16507TIP3   OH271011   4.192   2.791  15.948 -0.6060 -0.1736 -0.0392
16507TIP3    H171012   4.137   2.827  16.017 -0.8930  0.8419 -0.7869
16507TIP3    H271013   4.264   2.748  15.995 -1.6637 -0.9220  0.9159
16508TIP3   OH271014   0.042   5.405  12.868  0.0288 -0.2387 -0.1757
16508TIP3    H171015   0.022   5.393  12.775 -0.5525  0.8634 -0.1979
16508TIP3    H271016   0.119   5.351  12.882  1.6629  1.5514 -1.8963
16509TIP3   OH271017   4.731   6.158  11.061 -0.3136 -0.5578  0.4114
16509TIP3    H171018   4.806   6.182  11.116 -0.8298  0.5496  0.6564
16509TIP3    H271019   4.708   6.070  11.089  0.8863 -0.9105  0.3438
16510TIP3   OH271020   3.650   5.947  17.161 -0.4369  0.3452  0.1485
16510TIP3    H171021   3.738   5.954  17.124 -1.6422  1.0399 -2.7208
16510TIP3    H271022   3.609   6.032  17.143 -1.6384  0.1063  1.6336
16511TIP3   OH271023   4.210   3.088  15.918 -0.4363  0.2768  0.4170
16511TIP3    H171024   4.152   3.026  15.874 -1.9272  0.6689  1.7954
16511TIP3    H271025   4.287   3.036  15.942  0.1668 -0.0714 -2.1043
16512TIP3   OH271026   6.211   1.419   3.951 -0.2114  0.4902 -0.0999
16512TIP3    H171027   6.298   1.439   3.986 -0.3585  1.3926 -0.2379
16512TIP3    H271028   6.156   1.491   3.980 -1.1072 -0.4780  0.6620
16513TIP3   OH271029   5.751   0.134  15.731 -0.3231 -0.5690 -0.2763
16513TIP3    H171030   5.728   0.043  15.747  0.6969 -1.1841 -2.2593
16513TIP3    H271031   5.697   0.161  15.657 -0.1201  0.2270 -0.1432
16514TIP3   OH271032   0.872   1.223  16.413  0.4823  0.0560  0.1828
16514TIP3    H171033   0.801   1.164  16.438  0.7137 -0.1606  0.3213
16514TIP3    H271034   0.874   1.288  16.483  0.2124  0.2479  0.0142
16515TIP3   OH271035   3.096   0.504   6.960  0.1552 -0.3126  0.3791
16515TIP3    H171036   3.191   0.508   6.952  0.1139  0.5683  0.2689
16515TIP3    H271037   3.075   0.410   6.956  1.1133 -0.5833  1.6559
16516TIP3   OH271038   1.066   3.061  12.209  0.3951  0.2185 -0.2768
16516TIP3    H171039   1.119   3.083  12.286  0.8766  0.3895 -0.6497
16516TIP3    H271040   1.115   2.991  12.166  0.4115  0.4986 -0.7192
16517TIP3   OH271041   0.194   4.771   2.120 -0.0060  0.4046 -0.0380
16517TIP3    H171042   0.126   4.707   2.138 -0.2998  0.6239 -0.3779
16517TIP3    H271043   0.152   4.838   2.066  0.8749 -0.2654 -1.6028
16518TIP3   OH271044   2.185   1.167   6.930  1.3205  0.3450 -0.0251
16518TIP3    H171045   2.213   1.082   6.964  0.6434 -0.9509 -2.5946
16518TIP3    H271046   2.097   1.179   6.965  0.9334 -0.6133 -0.6585
16519TIP3   OH271047   1.165   3.640   2.161 -0.5039 -0.1431  0.4020
16519TIP3    H171048   1.248   3.611   2.121 -0.9338  0.6199 -1.0870
16519TIP3    H271049   1.188   3.718   2.210  0.0235 -1.0536  1.6269
16520TIP3   OH271050   4.275   0.955   4.987 -0.2027  0.6223  0.5824
16520TIP3    H171051   4.256   0.919   5.073 -0.2926  0.4540  0.4928
16520TIP3    H271052   4.243   0.889   4.925 -3.2911  2.2074  0.3560
16521TIP3   OH271053   5.920   1.321  13.836 -0.3688  0.8049 -0.3414
16521TIP3    H171054   5.954   1.371  13.910 -0.0070  0.0492  0.0137
16521TIP3    H271055   5.939   1.230  13.859  0.7245  0.6341 -1.8491
16522TIP3   OH271056   2.785   0.327   5.477 -0.2432  0.0002 -0.1289
16522TIP3    H171057   2.766   0.334   5.384  0.2491 -0.5066 -0.2645
16522TIP3    H271058   2.808   0.416   5.503 -1.5257  0.3800 -0.2383
16523TIP3   OH271059   6.444   2.466   3.449 -1.0226  0.4522 -0.5311
16523TIP3    H171060   6.414   2.382   3.414 -1.0875  0.6448 -0.9399
16523TIP3    H271061   6.394   2.477   3.530 -1.4654  0.3853 -0.7943
16524TIP3   OH271062   3.384   4.615   3.111 -0.2875  0.0157  0.0373
16524TIP3    H171063   3.464   4.561   3.110 -0.1911  0.1351  1.0445
16524TIP3    H271064   3.362   4.623   3.203 -1.7880 -0.4709 -0.2732
16525TIP3   OH271065   0.710   6.741   4.695  0.4397  0.0854 -0.0032
16525TIP3    H171066   0.772   6.707   4.760  0.3951  1.1436  0.6080
16525TIP3    H271067   0.765   6.762   4.619  0.4256 -1.6047 -0.5078
16526TIP3   OH271068   4.522   6.550  17.104  0.1925 -0.1265  0.4711
16526TIP3    H171069   4.496   6.533  17.014  2.0581  0.9833 -0.2941
16526TIP3    H271070   4.478   6.631  17.128  1.0580  0.4922 -0.0254
16527TIP3   OH271071   0.314   2.553   0.017 -0.6102 -0.3104  0.1067
16527TIP3    H171072   0.343   2.583   0.104 -2.0966  1.7240 -0.0601
16527TIP3    H271073   0.236   2.501   0.035 -2.9208  2.8833 -0.1788
16528TIP3   OH271074   0.025   1.003  14.634  0.2128 -0.5552  0.0668
16528TIP3    H171075  -0.001   0.971  14.548  1.2130 -1.3906  0.0713
16528TIP3    H271076  -0.041   0.966  14.694  1.2816 -2.5407  0.0562
16529TIP3   OH271077   0.715   6.383  16.377  0.7647 -0.0272 -0.1083
16529TIP3    H171078   0.780   6.333  16.328 -0.9879 -2.6936  0.1847
16529TIP3    H271079   0.716   6.345  16.465  0.2824  1.3075  0.4920
16530TIP3   OH271080   4.493   0.763   1.519  1.0517  0.7165 -0.1216
16530TIP3    H171081   4.506   0.669   1.516 -1.6721  0.2410  1.3253
16530TIP3    H271082   4.510   0.792   1.429  2.2709 -1.0788 -0.4908
16531TIP3   OH271083   4.889   6.396  12.947  0.5317  0.1022 -0.3449
16531TIP3    H171084   4.877   6.347  13.029  0.4371  0.2431 -0.2725
16531TIP3    H271085   4.830   6.471  12.956 -0.5478 -0.6349 -1.1517
16532TIP3   OH271086   3.325   6.335   3.720  0.3903  0.3290  0.3337
16532TIP3    H171087   3.255   6.273   3.701  1.3137 -0.1629 -1.6229
16532TIP3    H271088   3.381   6.289   3.782 -1.0955  0.7991  2.0557
16533TIP3   OH271089   5.540   5.188  12.183  0.3549  0.2714 -0.2262
16533TIP3    H171090   5.604   5.236  12.236  1.7451 -0.5949 -1.0917
16533TIP3    H271091   5.590   5.156  12.108 -0.5777 -2.3435  0.2007
16534TIP3   OH271092   0.455   6.334   4.351 -0.0055  0.0274  0.2520
16534TIP3    H171093   0.489   6.262   4.298  0.1487  0.3179 -0.0527
16534TIP3    H271094   0.377   6.364   4.303 -0.6718 -0.6066  0.9245
16535TIP3   OH271095   5.246   2.468  16.333  0.7314  0.2834 -0.2706
16535TIP3    H171096   5.218   2.377  16.320  1.3590  0.3170 -1.9181
16535TIP3    H271097   5.270   2.498  16.246  0.6482  2.0021  0.2918
16536TIP3   OH271098   0.948   4.901  14.330  0.1362  0.2227 -0.1100
16536TIP3    H171099   0.976   4.912  14.420 -1.5465  0.9323  0.3533
16536TIP3    H271100   1.029   4.892  14.280  1.1878  2.5742  1.1015
16537TIP3   OH271101   4.271   6.635   5.085  0.8081  0.2380 -0.3334
16537TIP3    H171102   4.275   6.597   5.173  2.6032 -1.0265 -0.9423
16537TIP3    H271103   4.301   6.725   5.097 -0.9987  0.7496  0.6708
16538TIP3   OH271104   6.141   1.068   1.584  0.1058 -0.6615  0.1327
16538TIP3    H171105   6.048   1.044   1.578 -0.5584  1.5082  1.1335
16538TIP3    H271106   6.155   1.129   1.512  0.4575 -0.1003  0.6721
16539TIP3   OH271107   1.572   5.776  14.136 -0.0998  0.0182  0.2532
16539TIP3    H171108   1.487   5.812  14.161 -0.4417  1.8108 -3.1964
16539TIP3    H271109   1.634   5.846  14.156 -0.0067  0.3387 -1.1322
16540TIP3   OH271110   6.276   4.332   2.120 -0.4409 -0.0075 -0.7696
16540TIP3    H171111   6.229   4.267   2.173 -0.6039  0.8396  0.1278
16540TIP3    H271112   6.229   4.332   2.037 -1.0052 -0.3793 -0.4579
16541TIP3   OH271113   6.739   0.018   5.952 -0.7042 -0.1106  0.4575
16541TIP3    H171114   6.719   0.005   5.860  0.9493 -1.8310  0.3049
16541TIP3    H271115   6.834   0.032   5.954 -0.7693  0.2492  1.8655
16542TIP3   OH271116   1.317   2.922  16.437  0.0895  0.5825 -0.3154
16542TIP3    H171117   1.295   2.894  16.348  1.5617  0.3174 -0.6077
16542TIP3    H271118   1.406   2.957  16.430 -0.3150  1.9008  0.7754
16543TIP3   OH271119   5.391   3.850  13.682  0.0406 -0.1556  0.7845
16543TIP3    H171120   5.467   3.891  13.640 -0.8256  0.3296 -0.3370
16543TIP3    H271121   5.429   3.789  13.745  1.3905 -0.6574 -0.4707
16544TIP3   OH271122   6.362   0.300   1.370  0.1254  0.0250 -0.1870
16544TIP3    H171123   6.346   0.266   1.281  0.3546 -0.5044 -0.0268
16544TIP3    H271124   6.455   0.285   1.385  0.0155 -0.1826  0.2737
16545TIP3   OH271125   5.743   1.722  16.895 -0.9765 -0.7494 -0.2249
16545TIP3    H171126   5.797   1.667  16.951 -1.0648  0.7659  1.4100
16545TIP3    H271127   5.797   1.738  16.818 -0.0862 -1.2881  0.2759
16546TIP3   OH271128   6.734   4.372   1.456 -0.1949 -0.2967  0.0716
16546TIP3    H171129   6.651   4.364   1.503  0.2419 -0.5005  0.8140
16546TIP3    H271130   6.750   4.466   1.452 -0.1579 -0.2873  0.4558
16547TIP3   OH271131   3.425   6.667   3.137 -0.6674 -0.4193  0.4173
16547TIP3    H171132   3.434   6.651   3.043 -2.3016  0.1172  0.1402
16547TIP3    H271133   3.495   6.728   3.158 -0.3382 -0.4887 -0.4725
16548TIP3   OH271134   2.152   3.096  12.221 -0.1723 -0.6621  0.1067
16548TIP3    H171135   2.213   3.026  12.246  0.9046  0.5758  1.0931
16548TIP3    H271136   2.109   3.120  12.303 -0.4439 -0.1016 -0.1983
16549TIP3   OH271137   4.998   3.456   1.149  0.7797  0.7078 -0.3178
16549TIP3    H171138   4.907   3.480   1.169  0.3097 -2.0291  1.0957
16549TIP3    H271139   4.997   3.433   1.056 -0.3678 -0.9102  0.0728
16550TIP3   OH271140   3.777   6.595   4.150  0.0567  0.4499 -0.2122
16550TIP3    H171141   3.870   6.602   4.174  0.1436  0.9813 -0.6880
16550TIP3    H271142   3.731   6.587   4.233  0.1407  4.3338  0.2777
16551TIP3   OH271143   1.960   6.523   1.571  0.2675  0.0600  0.1143
16551TIP3    H171144   2.009   6.461   1.517 -0.4712  0.0941 -0.5962
16551TIP3    H271145   1.951   6.479   1.656  0.4218 -0.4695 -0.1434
16552TIP3   OH271146   4.300   6.595   4.654  0.2398  0.1195 -0.2086
16552TIP3    H171147   4.288   6.631   4.567  0.4728 -0.0314 -0.3040
16552TIP3    H271148   4.217   6.551   4.674  0.5738 -0.8137 -0.8162
16553TIP3   OH271149   4.230   0.238   5.023  0.1143  0.3364  0.2122
16553TIP3    H171150   4.309   0.205   5.065 -0.0759 -1.1470 -0.5544
16553TIP3    H271151   4.159   0.216   5.084  0.3654  2.4304  1.3007
16554TIP3   OH271152   1.158   6.449   2.987  0.5626 -0.4084  0.5328
16554TIP3    H171153   1.216   6.420   3.058  1.3861 -0.5735 -0.2081
16554TIP3    H271154   1.122   6.367   2.952  0.0544 -0.3182  0.8341
16555TIP3   OH271155   3.252   4.107  13.071 -0.2532  0.0211  0.0827
16555TIP3    H171156   3.317   4.042  13.098 -1.5328 -2.0885 -1.7165
16555TIP3    H271157   3.205   4.128  13.152  1.3692  0.1214  1.0304
16556TIP3   OH271158   1.003   1.081   0.248 -0.0042  0.4659 -0.0607
16556TIP3    H171159   1.013   1.040   0.334  0.4038  0.9285  0.1139
16556TIP3    H271160   1.035   1.015   0.186 -1.1701 -0.2356  0.0593
16557TIP3   OH271161   6.558   1.884   5.819 -0.3408  0.6841  0.4868
16557TIP3    H171162   6.577   1.807   5.873  1.3006  1.7031  1.4262
16557TIP3    H271163   6.594   1.863   5.733  0.8735  0.7293  0.9788
16558TIP3   OH271164   3.128   1.818   1.419  0.1398 -0.2369  0.5393
16558TIP3    H171165   3.159   1.752   1.481 -2.4927 -2.2029 -0.1283
16558TIP3    H271166   3.033   1.822   1.434 -0.3575  0.2230 -2.3816
16559TIP3   OH271167   1.517   3.208  12.494 -0.0293 -0.2916 -0.1761
16559TIP3    H171168   1.548   3.121  12.468 -0.7674 -1.3597  2.3487
16559TIP3    H271169   1.422   3.198  12.503 -0.3526  1.2783 -1.6523
16560TIP3   OH271170   5.170   6.058   1.867 -0.5561  0.7449  0.5581
16560TIP3    H171171   5.216   6.020   1.792 -2.0800  0.4231 -0.2367
16560TIP3    H271172   5.104   6.115   1.828 -0.0124  2.1726  1.7025
16561TIP3   OH271173   3.117   0.960   5.965 -0.9573  0.0368  0.2037
16561TIP3    H171174   3.104   0.883   5.911  0.9131 -0.7774  0.8741
16561TIP3    H271175   3.207   0.988   5.946 -0.4223  0.0275  2.4783
16562TIP3   OH271176   1.822   4.451  11.548  0.5007 -0.2632  0.4355
16562TIP3    H171177   1.842   4.536  11.510 -0.5933  0.0370  0.4985
16562TIP3    H271178   1.732   4.461  11.582  0.6217 -1.2183  1.0592
16563TIP3   OH271179   5.143   2.326   6.235 -0.0496  0.0605  0.4591
16563TIP3    H171180   5.085   2.400   6.253 -0.2848 -0.4475  1.7813
16563TIP3    H271181   5.112   2.256   6.291  1.7473 -0.2575  1.0882
16564TIP3   OH271182   4.668   0.175   5.829  0.6593  0.0534 -0.3260
16564TIP3    H171183   4.654   0.142   5.918 -0.9182 -1.5138 -1.1319
16564TIP3    H271184   4.723   0.253   5.841  2.3477 -1.3962  1.8197
16565TIP3   OH271185   0.616   1.077  11.017 -0.9756 -0.3524  0.1636
16565TIP3    H171186   0.679   1.035  10.959 -1.2669 -0.5461 -0.0100
16565TIP3    H271187   0.665   1.149  11.057 -1.4835  1.4022 -2.2578
16566TIP3   OH271188   4.884   3.282  14.873 -0.4244 -0.2264 -0.2715
16566TIP3    H171189   4.799   3.237  14.878 -0.2487 -0.5159  0.2392
16566TIP3    H271190   4.908   3.296  14.965 -0.2770  0.5374 -0.4272
16567TIP3   OH271191   2.962   2.075  16.165  0.1813  0.2012  0.1739
16567TIP3    H171192   3.000   2.050  16.250 -1.3639 -0.8631  0.5676
16567TIP3    H271193   3.024   2.138  16.129  2.0209 -1.0437  1.0829
16568TIP3   OH271194   1.613   5.118  16.635  0.1271  0.5165 -0.1820
16568TIP3    H171195   1.665   5.103  16.557  1.1910  0.4426  0.5360
16568TIP3    H271196   1.607   5.032  16.678 -1.9410  0.1709 -1.0665
16569TIP3   OH271197   0.926   5.924   3.771  0.1340 -0.3987  0.1671
16569TIP3    H171198   0.975   5.923   3.854 -0.2330 -2.7906  0.4101
16569TIP3    H271199   0.834   5.928   3.797 -0.0033 -1.5800 -0.0700
16570TIP3   OH271200   6.327   0.288   4.488 -0.4100 -0.5465  0.3254
16570TIP3    H171201   6.297   0.376   4.466 -2.2678 -0.2982  3.5414
16570TIP3    H271202   6.246   0.237   4.500  0.5654 -1.7360  2.0417
16571TIP3   OH271203   2.368   1.519   3.306 -0.1656 -0.5613  0.0815
16571TIP3    H171204   2.432   1.460   3.345  0.1046 -0.3237  0.0024
16571TIP3    H271205   2.339   1.474   3.227  0.1569 -0.5196 -0.0624
16572TIP3   OH271206   1.115   4.652  12.293  0.1139 -0.2582 -0.0498
16572TIP3    H171207   1.159   4.735  12.311 -0.6542  0.1324  0.0151
16572TIP3    H271208   1.041   4.650  12.353  0.6199 -1.3808  0.5352
16573TIP3   OH271209   1.733   0.890  14.388  0.6612 -0.0085  0.3097
16573TIP3    H171210   1.644   0.903  14.421  0.7438 -0.3166  0.6658
16573TIP3    H271211   1.734   0.799  14.359  0.5600  0.2907 -0.6511
16574TIP3   OH271212   0.799   4.010   4.025  0.0386  0.3664 -0.1462
16574TIP3    H171213   0.811   4.105   4.024 -0.5983  0.4526  0.8046
16574TIP3    H271214   0.719   3.995   4.074  0.5289 -0.7135  0.3511
16575TIP3   OH271215   6.387   6.166   2.371  0.5062 -0.3099  0.0193
16575TIP3    H171216   6.445   6.098   2.335  0.2329  0.3541 -1.7407
16575TIP3    H271217   6.299   6.127   2.364  0.3108  0.3370 -1.3273
16576TIP3   OH271218   0.734   0.169   6.894  0.1203 -0.4670 -0.0032
16576TIP3    H171219   0.821   0.176   6.856  0.3209 -0.0165  0.5277
16576TIP3    H271220   0.691   0.252   6.872  1.0954  0.8473  2.8347
16577TIP3   OH271221   1.524   5.216   4.057 -0.1479 -0.2155  0.0683
16577TIP3    H171222   1.562   5.133   4.086 -0.3488 -0.4417 -0.3041
16577TIP3    H271223   1.433   5.195   4.038  0.2072 -0.3186 -1.6671
16578TIP3   OH271224   0.737   4.770   2.998  0.1511  1.0263 -0.1782
16578TIP3    H171225   0.678   4.817   2.939  0.2877  1.6771  0.1898
16578TIP3    H271226   0.684   4.751   3.075 -0.1402 -0.1746 -0.6583
16579TIP3   OH271227   4.580   6.010  17.173  0.4215 -0.7412 -0.0093
16579TIP3    H171228   4.610   6.054  17.253  1.2420  1.4826 -1.4739
16579TIP3    H271229   4.539   5.929  17.204  0.6535  0.0980  2.6573
16580TIP3   OH271230   4.488   3.966   2.164  0.0881 -0.0058 -0.6583
16580TIP3    H171231   4.470   3.935   2.075 -0.7223  0.3951 -0.6343
16580TIP3    H271232   4.404   3.959   2.210  0.2665  0.7517 -0.2095
16581TIP3   OH271233   0.245   6.165  12.066 -0.0956  0.2327 -0.3541
16581TIP3    H171234   0.271   6.095  12.007 -2.8826 -0.1336 -1.1668
16581TIP3    H271235   0.274   6.245  12.022  0.1647 -0.1871 -0.9511
16582TIP3   OH271236   3.453   0.162   2.668 -0.4409  0.1048 -0.8497
16582TIP3    H171237   3.396   0.214   2.612 -0.6659  0.1432 -0.5843
16582TIP3    H271238   3.395   0.128   2.737 -0.5608 -1.4992 -1.7032
16583TIP3   OH271239   3.821   2.790   6.521 -0.2564  0.2122  0.1271
16583TIP3    H171240   3.908   2.829   6.535 -0.6174  1.5431 -1.1934
16583TIP3    H271241   3.761   2.864   6.531 -1.2430 -0.7058  1.0173
16584TIP3   OH271242   1.492   0.945  14.082 -0.1736  0.0491 -1.0993
16584TIP3    H171243   1.542   1.027  14.076 -0.4877  0.6489  2.8988
16584TIP3    H271244   1.556   0.879  14.107 -0.7394  0.1052  0.5614
16585TIP3   OH271245   2.550   6.496   0.496 -0.2530 -0.4720  0.2096
16585TIP3    H171246   2.455   6.496   0.491 -0.2816  1.0434  0.5564
16585TIP3    H271247   2.570   6.523   0.585  0.5029  0.2463 -0.1646
16586TIP3   OH271248   0.881   6.318  15.090 -0.6043  0.0619 -0.1840
16586TIP3    H171249   0.962   6.298  15.135 -0.1929  0.9429 -0.5194
16586TIP3    H271250   0.818   6.254  15.123 -0.2323  0.5239  1.4180
16587TIP3   OH271251   6.391   5.435  11.749  0.0226  0.1224  0.2318
16587TIP3    H171252   6.358   5.495  11.682 -0.2448 -0.4816 -0.1722
16587TIP3    H271253   6.482   5.463  11.763 -0.4851  1.4848  1.0102
16588TIP3   OH271254   4.719   6.516  16.545  0.1923 -0.2117  0.8221
16588TIP3    H171255   4.755   6.514  16.634  0.2943 -0.0437  0.7855
16588TIP3    H271256   4.785   6.472  16.491  0.1568 -0.2628  0.8206
16589TIP3   OH271257   2.270   6.098   5.884 -0.3456  0.4109 -0.2469
16589TIP3    H171258   2.365   6.088   5.882  0.1299  4.3889 -0.9898
16589TIP3    H271259   2.245   6.069   5.972  1.8812  1.6685  0.8402
16590TIP3   OH271260   5.995   1.944   1.032 -1.3036 -0.1753 -0.2097
16590TIP3    H171261   5.909   1.920   1.067 -1.6984 -2.2361 -2.4694
16590TIP3    H271262   5.974   1.997   0.954 -0.5685 -1.7605 -1.5022
16591TIP3   OH271263   2.926   5.997   2.324 -0.1099  0.2819 -0.7571
16591TIP3    H171264   2.927   5.907   2.357 -2.6551  0.6369  0.4065
16591TIP3    H271265   3.002   6.002   2.266  3.0026 -1.1295  2.9683
16592TIP3   OH271266   1.530   2.984   3.183 -0.3333 -0.5033  0.4284
16592TIP3    H171267   1.435   2.995   3.189 -0.8230 -3.2783 -1.6608
16592TIP3    H271268   1.555   2.947   3.268 -0.9222  1.2259  1.3915
16593TIP3   OH271269   1.279   1.099  13.586 -0.1270  0.2241  0.1330
16593TIP3    H171270   1.310   1.099  13.677 -0.3994  0.8174  0.2292
16593TIP3    H271271   1.356   1.127  13.535 -0.1807  0.5893  0.2539
16594TIP3   OH271272   3.614   5.598   4.745  0.0112 -0.2939  0.2309
16594TIP3    H171273   3.647   5.563   4.827  0.2742 -2.0090 -0.5656
16594TIP3    H271274   3.676   5.568   4.679 -0.5658  0.4677 -0.6836
16595TIP3   OH271275   6.806   5.296  12.615 -0.0776  0.5297 -0.1271
16595TIP3    H171276   6.839   5.225  12.670  0.1476 -0.5364 -1.6202
16595TIP3    H271277   6.799   5.258  12.527  1.5074  2.7747 -1.2758
16596TIP3   OH271278   4.242   2.808   0.655  0.4990 -0.5547  0.1087
16596TIP3    H171279   4.176   2.825   0.721  0.0688 -1.7336  0.0094
16596TIP3    H271280   4.316   2.863   0.679 -0.5112  0.7580  0.2316
16597TIP3   OH271281   2.957   0.864   3.059  0.0048 -0.5748  0.5075
16597TIP3    H171282   3.049   0.867   3.033  0.1241 -1.1756  0.8533
16597TIP3    H271283   2.920   0.789   3.011 -0.7317  0.7038 -0.9750
16598TIP3   OH271284   0.122   4.212   1.495  0.5664  0.4304  0.4035
16598TIP3    H171285   0.044   4.267   1.504  0.8928  0.7150  1.4901
16598TIP3    H271286   0.086   4.124   1.477  0.0279  0.7634 -0.2037
16599TIP3   OH271287   3.871   6.621  11.147  0.4078 -0.4131  0.2478
16599TIP3    H171288   3.886   6.557  11.217 -0.8957 -0.5726  0.3956
16599TIP3    H271289   3.958   6.656  11.127  0.8284 -0.5386  1.7886
16600TIP3   OH271290   3.701   3.384  14.388  0.0123  0.3955  0.5631
16600TIP3    H171291   3.621   3.338  14.414 -0.2794  0.7619  0.3143
16600TIP3    H271292   3.737   3.418  14.471  0.8878 -1.3246  0.9030
16601TIP3   OH271293   1.856   4.239  13.760  0.5498 -0.4128 -0.7154
16601TIP3    H171294   1.819   4.161  13.718 -2.3763  0.3488  0.3578
16601TIP3    H271295   1.814   4.313  13.716  0.6611  0.4761  0.6265
16602TIP3   OH271296   2.107   0.354   3.900  0.3383 -0.0316 -0.6330
16602TIP3    H171297   2.029   0.306   3.924  0.6476  0.4508  1.4107
16602TIP3    H271298   2.111   0.427   3.962  1.5662  0.8302 -1.6872
16603TIP3   OH271299   3.417   1.957  14.252  0.3948  0.5031  0.1859
16603TIP3    H171300   3.452   2.031  14.301  0.5329  0.1888  0.5681
16603TIP3    H271301   3.439   1.975  14.161 -0.5284  1.4691  0.1375
16604TIP3   OH271302   5.814   5.116   0.329  0.7155 -0.1565 -0.0984
16604TIP3    H171303   5.847   5.082   0.412  0.1237  0.3088  0.3366
16604TIP3    H271304   5.728   5.075   0.318  0.1717  0.8834  0.2345
16605TIP3   OH271305   5.373   0.906   2.329 -0.1967  0.3454  0.4583
16605TIP3    H171306   5.449   0.899   2.388  1.2705 -1.9094 -1.5920
16605TIP3    H271307   5.355   1.000   2.325  2.5947  0.9614  0.8834
16606TIP3   OH271308   4.973   2.209   1.796  0.6409 -0.3442  0.1576
16606TIP3    H171309   4.905   2.153   1.835  0.1908  0.0127 -0.1076
16606TIP3    H271310   5.016   2.153   1.731  1.0691 -0.7906  0.8246
16607TIP3   OH271311   3.427   4.573  16.948 -0.2338  0.1060  0.0148
16607TIP3    H171312   3.487   4.512  16.906  0.0046  0.2189  0.1946
16607TIP3    H271313   3.341   4.549  16.913 -0.0437  0.1600 -0.4915
16608TIP3   OH271314   1.196   4.773  13.160 -0.1200 -0.1829  0.0885
16608TIP3    H171315   1.202   4.677  13.161  1.8842 -0.0708  1.2286
16608TIP3    H271316   1.280   4.803  13.197 -1.6122  1.9723  1.8653
16609TIP3   OH271317   5.513   0.906  14.766  0.4097 -0.1106  0.3003
16609TIP3    H171318   5.445   0.931  14.705 -1.3578 -2.5916  1.1954
16609TIP3    H271319   5.490   0.950  14.848 -0.5398 -1.5068  0.7984
16610TIP3   OH271320   4.151   0.221   5.479 -0.1089 -0.2043  1.1388
16610TIP3    H171321   4.239   0.199   5.447 -1.0920 -0.9799 -1.1833
16610TIP3    H271322   4.114   0.137   5.506 -1.3646 -0.4642 -1.2154
16611TIP3   OH271323   5.353   0.427   0.693 -0.2513  0.9179  0.6856
16611TIP3    H171324   5.447   0.414   0.704 -0.9872 -3.3374  2.8355
16611TIP3    H271325   5.331   0.381   0.612 -1.0261 -1.4844  2.2070
16612TIP3   OH271326   0.577   2.963  16.292 -0.7028  0.2151  0.2699
16612TIP3    H171327   0.613   3.045  16.325  1.1084 -0.8419  1.0328
16612TIP3    H271328   0.547   2.983  16.203  1.5776  1.2508 -0.3102
16613TIP3   OH271329   0.196   2.640  12.478 -0.1490 -0.6230 -0.2099
16613TIP3    H171330   0.202   2.546  12.459  1.8022 -0.9018  1.5732
16613TIP3    H271331   0.103   2.655  12.495 -0.7236 -1.9061 -1.9975
16614TIP3   OH271332   0.072   4.530   0.428 -0.2654 -0.1344 -0.1162
16614TIP3    H171333   0.025   4.574   0.357 -0.2254  0.5226  0.2577
16614TIP3    H271334   0.066   4.437   0.407  0.5058  0.1044 -1.4630
16615TIP3   OH271335   5.434   3.512   0.907  0.5240  0.2384 -0.1210
16615TIP3    H171336   5.489   3.492   0.832 -0.2464  0.6500 -0.8087
16615TIP3    H271337   5.365   3.569   0.872 -1.4217 -1.7760  0.3220
16616TIP3   OH271338   2.460   0.182   2.980  0.6232  0.0328  0.0757
16616TIP3    H171339   2.446   0.106   3.037  0.5745  1.1305  1.5614
16616TIP3    H271340   2.457   0.257   3.039  2.6819  1.0545 -1.0631
16617TIP3   OH271341   2.206   4.787  16.422 -0.5747  0.0415 -0.4881
16617TIP3    H171342   2.290   4.785  16.375 -1.7199 -1.7740 -2.5329
16617TIP3    H271343   2.211   4.713  16.482 -0.0648  0.9389  0.5911
16618TIP3   OH271344   3.646   4.151   2.573 -0.2507  0.2736 -0.1029
16618TIP3    H171345   3.629   4.239   2.539 -0.9407  0.3450  0.4112
16618TIP3    H271346   3.562   4.123   2.609  0.5696  0.4141  2.0144
16619TIP3   OH271347   5.359   2.334  13.111  0.2820 -0.2337  0.2300
16619TIP3    H171348   5.355   2.411  13.054  2.3953  0.3169  0.7604
16619TIP3    H271349   5.372   2.260  13.050  2.8433  0.3864 -0.0364
16620TIP3   OH271350   6.679   2.614   0.419  0.1583 -0.0373  0.1913
16620TIP3    H171351   6.643   2.613   0.508 -0.6760  1.7574 -0.1145
16620TIP3    H271352   6.769   2.582   0.430  0.0043 -0.0251  1.6517
16621TIP3   OH271353   2.307   5.694   5.699 -0.3312  0.0930 -0.1964
16621TIP3    H171354   2.230   5.636   5.703  1.5314 -2.5573 -1.1057
16621TIP3    H271355   2.274   5.774   5.658 -2.4880 -1.2652 -1.2300
16622TIP3   OH271356   1.148   2.468  15.616  0.5647 -0.1165  0.0711
16622TIP3    H171357   1.207   2.496  15.545  0.0211  0.9888  0.0375
16622TIP3    H271358   1.122   2.379  15.592  0.3536  0.2599 -1.1614
16623TIP3   OH271359   1.182   4.849   5.110  0.4237  0.1886 -0.0155
16623TIP3    H171360   1.231   4.882   5.034 -0.2607 -0.7605 -0.8837
16623TIP3    H271361   1.139   4.770   5.078 -0.7998  0.4141  1.0526
16624TIP3   OH271362   3.428   1.765   5.173 -0.4014 -0.2025 -0.0007
16624TIP3    H171363   3.448   1.820   5.248  0.1920 -0.8406  0.3191
16624TIP3    H271364   3.504   1.707   5.165 -0.5758 -0.3227 -0.9235
16625TIP3   OH271365   5.577   3.622  13.783 -0.2371 -0.2625 -0.1193
16625TIP3    H171366   5.552   3.638  13.692  1.5234  0.6271 -0.4537
16625TIP3    H271367   5.656   3.569  13.778  0.6127  0.8784  0.8709
16626TIP3   OH271368   3.744   5.621   3.901  0.0234 -0.1614  0.6600
16626TIP3    H171369   3.767   5.559   3.970  2.1033 -0.0337  0.1043
16626TIP3    H271370   3.788   5.702   3.927 -1.8449  0.8232  0.8507
16627TIP3   OH271371   0.311   6.683   3.161 -0.3495 -0.0622  0.1843
16627TIP3    H171372   0.269   6.738   3.095  1.8027  1.2134 -0.1860
16627TIP3    H271373   0.366   6.623   3.110  1.3763  0.9724  0.7951
16628TIP3   OH271374   0.088   3.783   3.705 -0.0682  0.0515  0.1255
16628TIP3    H171375   0.142   3.840   3.760 -0.5256  1.9659 -1.3571
16628TIP3    H271376   0.121   3.695   3.722  2.0622  0.9652  0.8870
16629TIP3   OH271377   1.603   6.517  15.682 -0.3629 -0.3560 -0.1847
16629TIP3    H171378   1.580   6.434  15.640 -1.4549  0.2792 -0.8397
16629TIP3    H271379   1.620   6.577  15.609 -0.4834  0.2588  0.2925
16630TIP3   OH271380   2.116   5.697  11.673  0.3129 -0.3217  0.1716
16630TIP3    H171381   2.182   5.649  11.723  0.5262  0.9329  1.1296
16630TIP3    H271382   2.153   5.706  11.585  0.7191 -1.0079  0.2717
16631TIP3   OH271383   1.836   6.542   1.144  0.0933 -0.0753 -0.0242
16631TIP3    H171384   1.843   6.501   1.058 -1.5203  1.1705 -0.7696
16631TIP3    H271385   1.800   6.474   1.201 -0.1704 -0.4623 -0.6525
16632TIP3   OH271386   2.626   2.390  13.877  0.1429  0.3197 -0.4160
16632TIP3    H171387   2.549   2.339  13.852  0.1176  0.6519 -1.0137
16632TIP3    H271388   2.603   2.428  13.962 -0.5214  0.7587 -0.7861
16633TIP3   OH271389   3.219   5.400  13.640  0.1168  0.2092  0.1116
16633TIP3    H171390   3.155   5.446  13.585  0.0143 -0.6324 -0.4792
16633TIP3    H271391   3.182   5.312  13.651 -0.0405  0.4901  1.8471
16634TIP3   OH271392   0.952   2.599  16.016 -0.1186  0.0186  0.5886
16634TIP3    H171393   0.905   2.515  16.018  0.1890 -0.1232  2.9296
16634TIP3    H271394   1.038   2.577  15.980 -1.2605  0.0143 -2.3028
16635TIP3   OH271395   5.141   5.050  11.662 -0.0507 -0.4570 -0.0729
16635TIP3    H171396   5.070   5.113  11.656  0.6427  0.6642  2.5801
16635TIP3    H271397   5.104   4.977  11.712  0.4867 -0.0866  0.8832
16636TIP3   OH271398   2.203   2.643  12.543 -0.6972 -0.2989  0.2235
16636TIP3    H171399   2.178   2.631  12.452 -2.1266  2.3432  0.2228
16636TIP3    H271400   2.123   2.671  12.587  0.3403  0.0757  1.9487
16637TIP3   OH271401   6.683   3.039  12.154 -0.7219 -0.5570 -0.5748
16637TIP3    H171402   6.681   3.068  12.246 -0.6618 -1.6294 -0.2207
16637TIP3    H271403   6.690   2.943  12.160 -0.4352 -0.6103 -1.7020
16638TIP3   OH271404   0.516   4.942   0.896 -0.0016 -0.5573 -0.4248
16638TIP3    H171405   0.488   4.889   0.821  0.3275 -1.0548 -0.2006
16638TIP3    H271406   0.466   5.023   0.888 -2.0510 -1.7058  0.3859
16639TIP3   OH271407   5.404   2.128  14.557  0.7510  0.5675  0.0169
16639TIP3    H171408   5.414   2.135  14.462 -1.4467  1.1254 -0.1794
16639TIP3    H271409   5.426   2.037  14.576 -0.8828 -0.1249 -1.3032
16640TIP3   OH271410   5.717   1.149   2.398  0.2188  0.2681 -0.2312
16640TIP3    H171411   5.792   1.130   2.455  0.1973 -1.8547 -0.8444
16640TIP3    H271412   5.658   1.201   2.452  2.1816  2.0726  0.2194
16641TIP3   OH271413   2.908   0.993  15.811 -0.2386 -0.1391 -0.2228
16641TIP3    H171414   2.814   0.990  15.827 -0.2772  0.0578 -0.4059
16641TIP3    H271415   2.946   0.939  15.880 -0.4814 -0.1748 -0.1164
16642TIP3   OH271416   4.848   2.943  15.645 -0.0526 -0.0386 -0.6926
16642TIP3    H171417   4.854   2.997  15.566 -1.9513 -1.4047 -1.8123
16642TIP3    H271418   4.755   2.947  15.669 -0.1466 -2.4125 -0.5369
16643TIP3   OH271419   4.399   6.301   4.468 -0.2973  0.6682  0.0703
16643TIP3    H171420   4.400   6.397   4.466  0.6350  0.6653 -0.1230
16643TIP3    H271421   4.483   6.277   4.508 -0.6673 -0.0634  0.4202
16644TIP3   OH271422   5.209   5.648   0.866  1.1036 -0.5841  0.6144
16644TIP3    H171423   5.179   5.563   0.900  0.1573 -1.7255 -2.8927
16644TIP3    H271424   5.131   5.703   0.869  0.7040 -1.0555 -0.7820
16645TIP3   OH271425   3.197   2.898   2.760  0.3042 -0.3741 -0.3743
16645TIP3    H171426   3.291   2.911   2.748  0.1845  0.9170  0.0121
16645TIP3    H271427   3.161   2.901   2.671  0.3393  1.6512 -0.3567
16646TIP3   OH271428   2.326   2.242  15.004 -0.2294 -0.3100 -0.2225
16646TIP3    H171429   2.298   2.195  14.925  2.3808  1.9796 -2.6251
16646TIP3    H271430   2.410   2.202  15.027 -0.0534  0.3153  0.2303
16647TIP3   OH271431   2.134   2.840   6.023  0.2076 -0.3401 -0.2032
16647TIP3    H171432   2.222   2.807   6.005  0.8554  1.3853 -0.3362
16647TIP3    H271433   2.132   2.853   6.118  0.3849  0.3823 -0.2948
16648TIP3   OH271434   0.916   1.383  16.650  0.3101 -0.4357 -0.5940
16648TIP3    H171435   0.971   1.440  16.704  0.2001 -0.8521 -0.0370
16648TIP3    H271436   0.966   1.302  16.641 -0.6674 -1.2275  0.8298
16649TIP3   OH271437   1.191   0.309   0.129  0.1290  0.1651 -0.1764
16649TIP3    H171438   1.125   0.323   0.061 -1.1476  0.7721  1.1649
16649TIP3    H271439   1.143   0.321   0.211  1.6453 -0.6081  0.8294
16650TIP3   OH271440   6.246   1.910   5.180  0.0683 -0.5294 -0.5408
16650TIP3    H171441   6.330   1.949   5.156  0.5884 -1.1074  0.3020
16650TIP3    H271442   6.269   1.822   5.210 -0.7694 -0.4420  0.3633
16651TIP3   OH271443   0.661   3.781   5.973 -0.1604  0.1270 -0.1745
16651TIP3    H171444   0.603   3.710   5.948 -1.1187  0.2407  1.6728
16651TIP3    H271445   0.605   3.843   6.021  1.2329  0.7597  0.6884
16652TIP3   OH271446   5.779   5.913  16.677  0.4756  0.0864  0.0092
16652TIP3    H171447   5.797   5.925  16.584 -0.6945 -0.1780 -0.2462
16652TIP3    H271448   5.702   5.857  16.681 -0.9508  2.0476  1.0969
16653TIP3   OH271449   0.712   1.957  11.481 -0.6429 -0.2675 -0.1030
16653TIP3    H171450   0.741   2.029  11.538  0.8610  0.3121 -1.5674
16653TIP3    H271451   0.734   1.878  11.529 -2.3113  0.2324  1.5362
16654TIP3   OH271452   0.769   2.840   1.667 -0.3615 -0.3341 -0.0862
16654TIP3    H171453   0.711   2.800   1.603 -0.7604 -0.6405  0.4566
16654TIP3    H271454   0.806   2.766   1.715  0.3019 -0.1296 -0.2791
16655TIP3   OH271455   5.452   0.489  11.009 -0.0870 -0.5694  0.3617
16655TIP3    H171456   5.447   0.449  10.922 -1.6225 -0.2964  0.3027
16655TIP3    H271457   5.545   0.493  11.029  0.4886  2.0920 -2.5425
16656TIP3   OH271458   4.930   3.831   3.116  0.2261  0.1038  0.1330
16656TIP3    H171459   4.937   3.812   3.022 -1.2931 -1.0212  0.2090
16656TIP3    H271460   4.925   3.744   3.157 -0.3686  0.5982  1.1274
16657TIP3   OH271461   0.219   0.575   3.221  0.1500  0.0635  0.4879
16657TIP3    H171462   0.160   0.500   3.227 -0.4590  0.4784 -0.3047
16657TIP3    H271463   0.174   0.645   3.269 -0.0748  0.4217 -0.2386
16658TIP3   OH271464   0.946   5.724  11.883 -0.0308  0.0002 -0.3443
16658TIP3    H171465   1.022   5.732  11.825  0.5806 -0.4346  0.4021
16658TIP3    H271466   0.982   5.697  11.967 -1.0140 -0.2382  0.0055
16659TIP3   OH271467   3.965   6.652   0.381 -0.6574  0.8851 -0.3463
16659TIP3    H171468   3.899   6.719   0.400 -0.2974  1.2329 -0.3190
16659TIP3    H271469   3.924   6.597   0.313 -1.0821  0.9328 -0.1311
16660TIP3   OH271470   5.649   2.470  11.580 -0.6465  0.0720 -0.1756
16660TIP3    H171471   5.621   2.532  11.647  2.1879  1.8119 -0.5201
16660TIP3    H271472   5.607   2.387  11.604  0.6854  0.5031  4.0593
16661TIP3   OH271473   5.755   1.105  15.456  0.4181  0.1804 -0.2674
16661TIP3    H171474   5.713   1.059  15.384  1.6562 -0.7371 -0.4324
16661TIP3    H271475   5.683   1.134  15.512 -0.4326 -1.3986 -0.5128
16662TIP3   OH271476   6.720   2.717  12.487 -0.1481 -0.4223 -0.1683
16662TIP3    H171477   6.641   2.698  12.538  0.4764  0.6188  1.2362
16662TIP3    H271478   6.741   2.808  12.508  0.9346 -0.4163 -1.2003
16663TIP3   OH271479   4.044   4.621  13.392  0.1876 -0.1611  0.0388
16663TIP3    H171480   4.010   4.613  13.303 -0.3780 -0.2098  0.2562
16663TIP3    H271481   3.986   4.684  13.435  1.2862  0.9096 -0.0283
16664TIP3   OH271482   3.675   6.614  14.541  0.4934  0.1909 -0.0407
16664TIP3    H171483   3.727   6.653  14.611  0.8575 -0.3022 -0.0276
16664TIP3    H271484   3.601   6.673  14.529  0.4408  0.2858  0.7452
16665TIP3   OH271485   3.936   6.741  10.857  0.0843  0.5105  0.4074
16665TIP3    H171486   3.864   6.797  10.830  0.9146  1.3323 -0.1686
16665TIP3    H271487   4.004   6.802  10.887 -0.0834 -0.3034  2.5446
16666TIP3   OH271488   1.601   5.653   5.521 -0.3461 -0.0334  0.1008
16666TIP3    H171489   1.686   5.683   5.492 -1.6967  1.7902 -2.0915
16666TIP3    H271490   1.606   5.557   5.514  1.2134  0.0992 -0.7843
16667TIP3   OH271491   3.997   6.107   5.864  0.3121  0.1509  0.1917
16667TIP3    H171492   3.921   6.133   5.811  1.2707  1.3135 -0.6415
16667TIP3    H271493   3.959   6.081   5.948 -0.9253  1.8581  0.2050
16668TIP3   OH271494   5.261   2.628   3.446 -0.0783 -0.5683  0.1517
16668TIP3    H171495   5.328   2.570   3.409  0.0496 -0.0649 -0.4168
16668TIP3    H271496   5.203   2.647   3.373  0.5760  1.0071  0.0086
16669TIP3   OH271497   4.146   4.705  15.138  0.2073  1.0123 -0.3407
16669TIP3    H171498   4.177   4.749  15.058  1.5914  0.2423 -0.2459
16669TIP3    H271499   4.052   4.695  15.125  0.2567  1.8207 -1.4282
16670TIP3   OH271500   5.373   4.380  13.427 -0.0632 -0.0516 -0.4071
16670TIP3    H171501   5.402   4.449  13.367  1.6328 -1.6378 -1.4551
16670TIP3    H271502   5.370   4.301  13.373 -1.6958 -0.8671  0.8525
16671TIP3   OH271503   6.577   2.866   2.427 -0.1522  0.4485  0.2836
16671TIP3    H171504   6.515   2.883   2.356  0.9476  1.9561 -0.3358
16671TIP3    H271505   6.618   2.783   2.403 -1.0507  0.0512  0.0785
16672TIP3   OH271506   5.817   5.768   0.445  0.5941 -0.0878  0.0406
16672TIP3    H171507   5.750   5.709   0.479  0.3843  0.1516  0.0429
16672TIP3    H271508   5.878   5.781   0.518  0.5655 -0.1917  0.0830
16673TIP3   OH271509   1.065   5.102   4.693  0.0136  0.5718  0.3141
16673TIP3    H171510   1.035   5.149   4.771 -1.2981 -1.6299  1.1836
16673TIP3    H271511   0.985   5.065   4.656  1.0206 -1.0932 -0.2453
16674TIP3   OH271512   0.793   0.063   2.024 -0.2572  0.3676  0.5709
16674TIP3    H171513   0.753   0.109   2.098 -3.6021 -0.0160 -0.8837
16674TIP3    H271514   0.736   0.084   1.950  2.0042 -0.7011 -1.5279
16675TIP3   OH271515   3.289   1.588  14.785 -0.3218 -0.5543  0.3323
16675TIP3    H171516   3.211   1.598  14.729  0.1302  0.9556 -0.0502
16675TIP3    H271517   3.345   1.528  14.737 -0.6524 -0.5650 -0.0445
16676TIP3   OH271518   6.656   4.757  14.780  0.0351 -0.2375 -0.1926
16676TIP3    H171519   6.742   4.714  14.781  0.0745 -0.1752 -0.7689
16676TIP3    H271520   6.608   4.712  14.711 -0.2798 -0.0343 -0.1073
16677TIP3   OH271521   6.529   6.605  12.112 -0.2666  0.8363 -0.2287
16677TIP3    H171522   6.621   6.614  12.136  0.4141 -2.9940 -1.0661
16677TIP3    H271523   6.492   6.549  12.180 -1.9688  2.2343  0.0271
16678TIP3   OH271524   2.505   1.085   5.638 -0.4254 -0.0499  0.0560
16678TIP3    H171525   2.585   1.137   5.628 -1.2194  1.4823  1.6032
16678TIP3    H271526   2.526   1.021   5.706 -0.2743 -0.1612 -0.0930
16679TIP3   OH271527   0.534   0.837  14.919  0.2041 -0.2037  0.4820
16679TIP3    H171528   0.534   0.924  14.958  1.5858  1.2093 -2.4904
16679TIP3    H271529   0.614   0.796  14.953  0.0640  0.0503  1.1249
16680TIP3   OH271530   1.994   3.189  15.301  0.3837  0.0205  0.0915
16680TIP3    H171531   1.957   3.220  15.384  1.0813 -0.5903  0.6471
16680TIP3    H271532   1.930   3.127  15.268 -1.0364  2.0549 -1.0434
16681TIP3   OH271533   5.483   0.480  16.796 -0.0294  0.1694 -0.3064
16681TIP3    H171534   5.396   0.473  16.759 -0.5313  0.1512  0.8472
16681TIP3    H271535   5.529   0.542  16.739 -0.0879 -1.4776 -2.1873
16682TIP3   OH271536   0.298   5.079  15.005 -0.0837 -0.3307  0.4107
16682TIP3    H171537   0.283   5.058  14.912 -0.5680  1.3995  0.0836
16682TIP3    H271538   0.235   5.024  15.052  0.1084 -1.1629 -0.2907
16683TIP3   OH271539   6.149   5.234   1.078 -0.0196  0.3881 -0.2565
16683TIP3    H171540   6.079   5.226   1.013 -0.3250  1.0494 -0.0121
16683TIP3    H271541   6.230   5.228   1.027 -0.2549  0.2241 -0.6134
16684TIP3   OH271542   0.636   1.306  11.412 -0.0913 -0.0378 -0.0723
16684TIP3    H171543   0.542   1.297  11.399 -0.0457  0.4297 -0.7167
16684TIP3    H271544   0.645   1.359  11.491 -0.3645 -1.6249  1.0505
16685TIP3   OH271545   2.086   6.524   4.835  0.4036  0.0030 -0.2591
16685TIP3    H171546   1.992   6.537   4.829  0.3713 -0.3690 -0.5838
16685TIP3    H271547   2.099   6.476   4.917  0.0669 -2.2193 -1.4885
16686TIP3   OH271548   2.040   4.253   5.202 -0.4970  0.1376 -0.0549
16686TIP3    H171549   2.133   4.232   5.211 -0.4096  0.3048 -0.5611
16686TIP3    H271550   2.000   4.172   5.170 -0.6208 -0.1068  0.7073
16687TIP3   OH271551   5.176   0.749   2.453 -0.3193 -0.2188 -0.1339
16687TIP3    H171552   5.090   0.771   2.417 -0.3036  1.7310  0.9613
16687TIP3    H271553   5.233   0.821   2.426  0.7494 -1.0328 -0.0765
16688TIP3   OH271554   2.419   3.411  10.697 -0.0045 -0.0591  0.5341
16688TIP3    H171555   2.444   3.449  10.782  0.3098  0.9178  0.0153
16688TIP3    H271556   2.502   3.381  10.660  0.3263  2.3073 -0.7646
16689TIP3   OH271557   0.209   1.835   4.365  0.3419  0.1582 -0.2976
16689TIP3    H171558   0.230   1.837   4.271 -0.8763 -0.2279 -0.5802
16689TIP3    H271559   0.188   1.925   4.388 -1.9117 -0.1743 -0.9871
16690TIP3   OH271560   0.054   4.014   2.225 -0.7071  0.1893 -0.1489
16690TIP3    H171561   0.130   4.051   2.181 -1.0400  1.3825  0.2606
16690TIP3    H271562   0.048   3.925   2.192 -0.7796  0.9700 -2.2898
16691TIP3   OH271563   3.237   2.737   0.486 -0.1999  0.0895 -0.0626
16691TIP3    H171564   3.232   2.645   0.515 -1.2559 -0.2892 -1.3876
16691TIP3    H271565   3.246   2.787   0.567  2.2133 -1.3024  0.5687
16692TIP3   OH271566   0.655   2.869  12.833  0.4700 -0.5813  0.0021
16692TIP3    H171567   0.739   2.862  12.788  1.3358  1.3331  1.2602
16692TIP3    H271568   0.592   2.830  12.772  2.1277 -1.2506 -1.3234
16693TIP3   OH271569   5.235   3.087   3.875  0.2945 -0.6457 -0.1236
16693TIP3    H171570   5.210   2.995   3.885 -2.4567 -0.1754 -2.1827
16693TIP3    H271571   5.302   3.086   3.806 -0.4838 -1.0008 -0.8803
16694TIP3   OH271572   3.333   2.071  14.652 -0.0572 -0.2727  0.4170
16694TIP3    H171573   3.254   2.059  14.705  0.6960  1.9521  2.1054
16694TIP3    H271574   3.368   2.156  14.679  1.0957  0.3113 -2.7334
16695TIP3   OH271575   1.405   5.771  13.276 -0.4896  0.6275 -0.2880
16695TIP3    H171576   1.332   5.797  13.220 -0.9018 -1.9160 -1.0045
16695TIP3    H271577   1.473   5.743  13.214 -0.7513 -1.7016  0.4459
16696TIP3   OH271578   0.383   5.980   0.921 -0.2556  0.3464  0.0772
16696TIP3    H171579   0.389   6.028   1.003  0.5779 -1.2834  0.9942
16696TIP3    H271580   0.340   5.898   0.945  0.8167 -0.5204 -0.9467
16697TIP3   OH271581   3.745   1.224   6.618 -0.2931 -0.3946  0.2877
16697TIP3    H171582   3.696   1.248   6.697  0.0231 -0.8614  0.6275
16697TIP3    H271583   3.709   1.281   6.550 -0.6910 -0.1099  0.7279
16698TIP3   OH271584   5.008   4.549  11.830  0.2940 -0.4244  0.0029
16698TIP3    H171585   4.917   4.551  11.803  0.9982  2.1350 -2.4298
16698TIP3    H271586   5.041   4.465  11.798 -1.2170 -1.4316  1.0470
16699TIP3   OH271587   2.721   1.379   1.035 -0.1004 -0.1693 -0.3413
16699TIP3    H171588   2.803   1.331   1.021 -0.4942 -1.0811  0.3985
16699TIP3    H271589   2.685   1.390   0.947  1.0238  0.6204 -0.7178
16700TIP3   OH271590   6.729   5.883  15.251 -0.4115 -0.0353 -0.2820
16700TIP3    H171591   6.752   5.817  15.316 -3.9450 -1.4712 -0.4102
16700TIP3    H271592   6.731   5.837  15.167  0.9714  1.0201 -0.8467
16701TIP3   OH271593   3.951   3.608   1.613 -0.3978  0.1589 -0.5559
16701TIP3    H171594   3.989   3.641   1.532 -1.4699  1.1511 -0.6678
16701TIP3    H271595   3.894   3.679   1.643 -0.0110 -0.2036  1.0590
16702TIP3   OH271596   6.813   1.626   0.767 -0.1966  0.0910 -0.2431
16702TIP3    H171597   6.892   1.681   0.767  1.9840 -2.9130 -0.5324
16702TIP3    H271598   6.788   1.620   0.675 -0.1445  0.2082 -0.2644
16703TIP3   OH271599   3.680   2.317  12.918  0.2777  0.0396 -0.4869
16703TIP3    H171600   3.647   2.303  13.006  0.6010 -0.6214 -0.4687
16703TIP3    H271601   3.613   2.277  12.861  0.0008  0.5886 -0.5488
16704TIP3   OH271602   3.853   3.315  16.962 -0.3855 -0.0375 -0.4511
16704TIP3    H171603   3.880   3.390  17.015  0.0611 -0.5674  0.0833
16704TIP3    H271604   3.804   3.353  16.890 -0.4343  0.7449 -0.0097
16705TIP3   OH271605   1.185   4.610  13.740 -0.3925  0.2470 -0.1144
16705TIP3    H171606   1.186   4.595  13.645 -0.4045  0.6099 -0.1747
16705TIP3    H271607   1.144   4.696  13.749 -0.2636  0.2717  0.2130
16706TIP3   OH271608   0.682   0.446  11.179 -0.1575  0.3167  0.0486
16706TIP3    H171609   0.712   0.442  11.270  0.4652 -0.4285 -0.1902
16706TIP3    H271610   0.743   0.391  11.131 -0.5833  0.5819 -0.8014
16707TIP3   OH271611   3.727   4.096  15.279 -0.1805  0.1189  0.1143
16707TIP3    H171612   3.709   4.006  15.252 -1.2432  0.6962 -1.1781
16707TIP3    H271613   3.813   4.092  15.319 -1.4113 -2.0006  2.7082
16708TIP3   OH271614   2.917   2.466  16.523 -0.4079 -0.2594 -0.4533
16708TIP3    H171615   3.006   2.470  16.487  0.6813 -0.7663  2.0868
16708TIP3    H271616   2.906   2.375  16.549 -1.0158  0.1653  0.8139
16709TIP3   OH271617   2.164   1.491   1.208  0.9380 -0.0985  0.1562
16709TIP3    H171618   2.070   1.475   1.211  0.4888  2.3930 -0.0921
16709TIP3    H271619   2.193   1.447   1.127 -0.2743  0.4391 -0.5841
16710TIP3   OH271620   5.594   0.534  15.289 -0.1928  0.4359 -0.2558
16710TIP3    H171621   5.598   0.554  15.383  0.0789  2.2453 -0.6345
16710TIP3    H271622   5.641   0.605  15.248 -0.1876 -0.4346 -1.7776
16711TIP3   OH271623   4.628   3.985  11.661 -0.4813  0.5653 -0.6134
16711TIP3    H171624   4.652   3.996  11.569  0.3238  0.1244 -0.4599
16711TIP3    H271625   4.592   4.070  11.686 -1.5192  0.4169 -1.5729
16712TIP3   OH271626   0.101   3.497  12.418  0.5035 -0.0357 -0.3453
16712TIP3    H171627   0.177   3.533  12.465  0.4702 -0.4084 -0.0044
16712TIP3    H271628   0.030   3.558  12.438  0.8810  0.6977 -1.2319
16713TIP3   OH271629   2.442   3.345  15.290  0.1693  0.5126  0.6519
16713TIP3    H171630   2.351   3.316  15.285  0.0380  0.9590  0.4524
16713TIP3    H271631   2.453   3.372  15.381 -0.8383  3.5239 -0.0792
16714TIP3   OH271632   3.417   5.903   3.721  0.3464 -0.2953  0.6863
16714TIP3    H171633   3.498   5.893   3.671 -0.0012  0.4885 -0.0635
16714TIP3    H271634   3.358   5.949   3.661 -0.1851  0.3944  1.7264
16715TIP3   OH271635   6.161   5.550  13.747  0.4380  0.2241  0.0328
16715TIP3    H171636   6.136   5.500  13.669  2.0314 -0.3444 -0.1344
16715TIP3    H271637   6.079   5.587  13.779 -0.5230 -1.1795 -0.7693
16716TIP3   OH271638   6.591   6.038  12.303 -0.3445  0.7390  0.2018
16716TIP3    H171639   6.534   5.966  12.328 -0.8374  1.0543 -0.0010
16716TIP3    H271640   6.540   6.088  12.239  0.5976  0.3838 -0.8405
16717TIP3   OH271641   6.201   6.732  12.878 -0.3721 -0.3067  0.8335
16717TIP3    H171642   6.121   6.732  12.824  0.8088 -2.4450 -0.9857
16717TIP3    H271643   6.170   6.706  12.965 -1.5544 -2.0163 -0.0635
16718TIP3   OH271644   2.959   2.534  17.133 -0.1515 -0.0590 -0.0847
16718TIP3    H171645   2.932   2.442  17.127 -1.9090  0.4418 -0.0775
16718TIP3    H271646   2.878   2.584  17.122  0.4352  1.4526  2.2241
16719TIP3   OH271647   2.752   5.412   2.511 -0.2123  0.1891  0.2551
16719TIP3    H171648   2.770   5.504   2.532 -1.0419  0.0591  1.6551
16719TIP3    H271649   2.708   5.379   2.590 -1.0516 -1.0660 -0.7340
16720TIP3   OH271650   6.239   5.999   1.799  0.2522 -0.0255  0.1202
16720TIP3    H171651   6.171   5.970   1.738  0.3540 -0.7797  0.3507
16720TIP3    H271652   6.295   6.056   1.748 -0.5584  0.6129 -0.0742
16721TIP3   OH271653   5.648   0.650   1.533 -0.8823 -0.5478 -0.1859
16721TIP3    H171654   5.638   0.686   1.621 -1.5497  1.4815 -1.0582
16721TIP3    H271655   5.572   0.592   1.522 -1.4222  0.0924  0.1477
16722TIP3   OH271656   3.107   5.837   0.111 -0.1463 -0.3925 -1.1842
16722TIP3    H171657   3.085   5.754   0.151  0.4897  0.5011  1.0716
16722TIP3    H271658   3.141   5.891   0.182 -0.8125  1.9033 -2.5205
16723TIP3   OH271659   3.025   2.598   3.879  0.0757 -0.2007  0.5166
16723TIP3    H171660   3.077   2.610   3.959  0.1238  0.4812  0.3821
16723TIP3    H271661   2.978   2.515   3.894  0.1748 -0.1415  1.2023
16724TIP3   OH271662   3.449   0.239  13.955 -0.0440  0.1583  0.1205
16724TIP3    H171663   3.465   0.221  13.862  1.0260  1.3737  0.0533
16724TIP3    H271664   3.365   0.197  13.974  0.0251 -0.6154 -1.2429
16725TIP3   OH271665   0.739   5.469  11.975 -0.3511  0.3185  0.1291
16725TIP3    H171666   0.725   5.505  11.888  0.0390 -0.0206 -0.0729
16725TIP3    H271667   0.767   5.379  11.960 -2.6930 -0.5326  0.6574
16726TIP3   OH271668   6.177   6.362   4.414  0.4399  0.4834 -0.2758
16726TIP3    H171669   6.122   6.396   4.484 -0.5609  1.2984 -1.4211
16726TIP3    H271670   6.154   6.269   4.408 -0.7018  0.7800 -0.6169
16727TIP3   OH271671   3.728   1.997   5.307  0.1957 -0.0018 -0.0782
16727TIP3    H171672   3.662   1.994   5.238  0.8301 -0.5826 -0.6793
16727TIP3    H271673   3.683   2.034   5.382 -1.0711 -1.2550 -0.1948
16728TIP3   OH271674   5.612   5.950  13.147  0.1197  0.3501  0.2236
16728TIP3    H171675   5.521   5.973  13.132  0.0003  0.4193  1.0427
16728TIP3    H271676   5.661   5.999  13.080 -0.3839  0.7993  0.1847
16729TIP3   OH271677   1.357   3.293  15.614 -0.5834 -0.3924 -0.5393
16729TIP3    H171678   1.292   3.297  15.684  1.1645  0.0658  1.1008
16729TIP3    H271679   1.356   3.202  15.586 -0.5174 -0.8483  0.8698
16730TIP3   OH271680   1.943   5.008  15.619 -0.4541  0.0424  0.5639
16730TIP3    H171681   2.008   4.938  15.624 -0.2992  0.2754  1.8925
16730TIP3    H271682   1.949   5.053  15.703 -1.6898  0.6434  0.3435
16731TIP3   OH271683   4.240   0.270   2.987  0.1925  0.2001  0.1122
16731TIP3    H171684   4.298   0.345   2.973  1.1329 -0.0540  2.4805
16731TIP3    H271685   4.152   0.308   2.986  0.5785  1.0974 -0.2629
16732TIP3   OH271686   4.456   4.542  12.045  0.2884 -0.0282  0.3573
16732TIP3    H171687   4.529   4.502  12.092  0.0346  0.3744  1.0907
16732TIP3    H271688   4.487   4.630  12.023  1.6595 -1.2921 -3.1102
16733TIP3   OH271689   4.378   5.816  11.782 -0.7524 -0.0907  0.5809
16733TIP3    H171690   4.356   5.727  11.812 -1.3645  0.2871  1.2674
16733TIP3    H271691   4.323   5.873  11.835 -0.4335  0.6996  0.0613
16734TIP3   OH271692   0.333   0.944   5.215  0.4713 -0.0985  0.0575
16734TIP3    H171693   0.334   0.990   5.130  1.2920  1.5336  0.9100
16734TIP3    H271694   0.323   1.014   5.279  1.4016 -1.1676  1.3919
16735TIP3   OH271695   5.515   5.931   5.759 -0.7145  0.0727  0.7816
16735TIP3    H171696   5.425   5.941   5.728 -1.0248 -1.3220  1.2220
16735TIP3    H271697   5.511   5.960   5.851 -0.7391 -0.1047  0.8360
16736TIP3   OH271698   5.126   5.013  14.086 -0.0301 -0.5739  0.2951
16736TIP3    H171699   5.161   5.047  14.003  1.4094  0.0580  1.1503
16736TIP3    H271700   5.071   4.939  14.060  0.7779 -0.6736 -1.1851
16737TIP3   OH271701   6.575   4.575  15.627 -0.8886 -0.1029  0.0962
16737TIP3    H171702   6.525   4.569  15.545  0.1268 -0.7060 -0.4941
16737TIP3    H271703   6.658   4.616  15.601 -0.2507 -1.0134  0.6741
16738TIP3   OH271704   5.132   3.411  15.710 -0.3127 -0.3444  0.4759
16738TIP3    H171705   5.102   3.459  15.632 -0.2834 -0.8493  0.1569
16738TIP3    H271706   5.211   3.366  15.682 -0.4174 -0.6984  0.7387
16739TIP3   OH271707   2.840   4.715  10.772  0.2125  0.1777 -0.1422
16739TIP3    H171708   2.920   4.765  10.759  0.8151 -0.7904 -0.1829
16739TIP3    H271709   2.797   4.716  10.686  0.8581 -0.4600 -0.4767
16740TIP3   OH271710   0.784   3.890  16.340 -0.5852  0.1939  0.1482
16740TIP3    H171711   0.736   3.863  16.418 -2.0708  2.3518  0.0488
16740TIP3    H271712   0.730   3.960  16.302  0.1738 -0.6959 -2.7370
16741TIP3   OH271713   5.868   3.796  14.515 -0.1900  0.2655  0.5134
16741TIP3    H171714   5.933   3.840  14.570 -0.7219 -1.1804  2.3282
16741TIP3    H271715   5.862   3.708  14.551 -1.0389 -0.5111 -1.4694
16742TIP3   OH271716   0.713   0.499  11.903 -0.0364  0.4632  0.3065
16742TIP3    H171717   0.710   0.468  11.994 -0.5719  1.2890  0.5801
16742TIP3    H271718   0.660   0.436  11.854 -0.6263  0.6129  0.7523
16743TIP3   OH271719   4.907   5.611   2.975  0.1806 -0.1896  0.0116
16743TIP3    H171720   4.914   5.517   2.993 -0.2559 -0.1530  0.3659
16743TIP3    H271721   4.857   5.616   2.894  0.0055 -0.2517  0.1163
16744TIP3   OH271722   3.207   2.227  14.409 -0.8765 -0.4799  0.4327
16744TIP3    H171723   3.260   2.292  14.456  0.6925 -0.5879 -1.1447
16744TIP3    H271724   3.193   2.157  14.473 -0.2318  0.1542  1.2749
16745TIP3   OH271725   5.585   0.007   2.309  0.2300 -0.2742 -0.5361
16745TIP3    H171726   5.665   0.044   2.347  0.2113 -2.0747  1.3598
16745TIP3    H271727   5.614  -0.041   2.232  0.6329  1.1758 -1.3044
16746TIP3   OH271728   6.475   0.335  17.186  0.1076  0.6009 -0.1450
16746TIP3    H171729   6.542   0.312  17.250  1.2095  0.3247 -1.3594
16746TIP3    H271730   6.523   0.337  17.102 -0.6280  3.9717 -0.5553
16747TIP3   OH271731   0.362   2.091  14.352 -0.2101 -0.1542  0.0291
16747TIP3    H171732   0.407   2.175  14.357 -1.0230  0.2548  0.6664
16747TIP3    H271733   0.356   2.073  14.258 -0.9934  1.0489 -0.1755
16748TIP3   OH271734   0.465   3.667   3.907 -0.3135 -0.2523 -0.0811
16748TIP3    H171735   0.427   3.652   3.820  1.1896 -1.3628 -0.5676
16748TIP3    H271736   0.404   3.625   3.968 -0.9036 -0.2527 -0.6630
16749TIP3   OH271737   2.174   6.272  14.157 -0.2174 -0.7878 -0.5938
16749TIP3    H171738   2.104   6.330  14.187 -2.0259 -1.2958 -3.5894
16749TIP3    H271739   2.137   6.184  14.164  1.1670 -1.2930  0.4786
16750TIP3   OH271740   3.059   3.678  12.843  0.1284 -0.3975  0.1866
16750TIP3    H171741   3.030   3.762  12.878 -2.1034 -1.1670  0.2733
16750TIP3    H271742   3.146   3.665  12.881  0.6134  1.9698 -0.0291
16751TIP3   OH271743   2.999   0.801  15.974  0.6652 -0.8019 -0.3627
16751TIP3    H171744   2.968   0.784  16.063  1.7332 -0.5034  0.0827
16751TIP3    H271745   3.016   0.714  15.938 -0.6410 -0.9602 -0.5985
16752TIP3   OH271746   4.808   1.356  14.599  0.1869  0.1575 -0.2041
16752TIP3    H171747   4.892   1.340  14.556 -0.1808 -1.3020 -0.4078
16752TIP3    H271748   4.754   1.281  14.574 -0.7970  0.4975  0.8834
16753TIP3   OH271749   3.157   6.622   5.644 -0.2574  0.2133 -0.1765
16753TIP3    H171750   3.091   6.667   5.591 -0.7303 -2.5008 -1.9838
16753TIP3    H271751   3.106   6.579   5.713  0.0534  1.3561  0.7704
16754TIP3   OH271752   2.604   5.221  15.742  0.6397 -0.3920  0.2335
16754TIP3    H171753   2.555   5.244  15.821  0.0400 -1.5728  0.2103
16754TIP3    H271754   2.669   5.291  15.733 -0.6670  0.8746  0.5763
16755TIP3   OH271755   1.241   0.313  14.218 -0.0207 -0.3792  0.1785
16755TIP3    H171756   1.265   0.273  14.302 -1.8465 -0.4853  0.6673
16755TIP3    H271757   1.308   0.282  14.157 -0.8074 -3.4250  0.7563
16756TIP3   OH271758   4.737   3.980   0.083 -0.2665  0.5335 -0.3804
16756TIP3    H171759   4.655   4.012   0.119 -1.1927  0.0037 -1.9499
16756TIP3    H271760   4.761   4.045   0.017  1.1909  1.2861  0.8594
16757TIP3   OH271761   4.951   3.717  15.850 -0.1176 -0.0112 -0.2989
16757TIP3    H171762   4.933   3.810  15.867  1.2749  0.0615  0.8414
16757TIP3    H271763   5.026   3.717  15.792 -1.7491 -0.3936 -2.4741
16758TIP3   OH271764   2.473   2.629  11.561  0.9309  0.1086  0.6297
16758TIP3    H171765   2.486   2.692  11.632  0.1993  0.2146  0.6773
16758TIP3    H271766   2.404   2.571  11.593 -1.1904  1.6712 -0.9946
16759TIP3   OH271767   0.259   1.079  16.417 -0.2542 -0.0326 -0.0946
16759TIP3    H171768   0.180   1.113  16.461  0.1315 -0.6400  1.1079
16759TIP3    H271769   0.322   1.068  16.488  0.4906 -0.7592 -0.8653
16760TIP3   OH271770   6.342   5.575  16.491  0.3553  0.2075  0.0062
16760TIP3    H171771   6.264   5.536  16.451  1.2112  0.2747 -1.7369
16760TIP3    H271772   6.313   5.662  16.520 -0.6738 -0.4371  0.9505
16761TIP3   OH271773   1.256   4.828  16.115  0.0846  0.2634  0.4291
16761TIP3    H171774   1.216   4.902  16.159  1.2431  1.8145 -1.0497
16761TIP3    H271775   1.197   4.809  16.042  0.5422  0.7054 -0.0640
16762TIP3   OH271776   5.703   1.317   4.088 -0.1131 -0.4975 -0.1569
16762TIP3    H171777   5.630   1.255   4.088 -3.7293  3.4662 -0.7126
16762TIP3    H271778   5.700   1.358   4.002  0.9220  1.7317  0.8056
16763TIP3   OH271779   5.702   0.820   4.911  0.1879 -0.2665  0.1553
16763TIP3    H171780   5.779   0.827   4.855  0.4948 -1.5293  0.4049
16763TIP3    H271781   5.653   0.900   4.895  1.2807  0.2932 -0.4147
16764TIP3   OH271782   6.310   3.925  13.680  0.2847 -0.2860  0.2993
16764TIP3    H171783   6.398   3.904  13.649  0.1246 -0.3234 -0.1350
16764TIP3    H271784   6.291   3.859  13.746 -0.5805 -2.1135 -1.6962
16765TIP3   OH271785   6.718   3.975   4.207 -0.2154 -0.0873 -0.0348
16765TIP3    H171786   6.688   3.888   4.179  1.6091  0.2948 -3.4355
16765TIP3    H271787   6.640   4.030   4.200 -0.9522 -1.0695  0.3682
16766TIP3   OH271788   0.406   4.805   0.689 -0.0153 -0.0307  0.2137
16766TIP3    H171789   0.370   4.725   0.729  0.7460 -0.3699  0.2223
16766TIP3    H271790   0.343   4.828   0.621 -0.0235 -0.8849 -0.0749
16767TIP3   OH271791   1.315   5.628   1.966 -0.0929  0.2936  0.6332
16767TIP3    H171792   1.282   5.572   2.036  1.3112 -1.2465  0.0970
16767TIP3    H271793   1.256   5.611   1.892 -0.6067  0.7195  0.9384
16768TIP3   OH271794   6.079   4.112  14.893 -0.4053  0.5627  0.1383
16768TIP3    H171795   6.069   4.106  14.988 -2.9984  0.3771 -0.1171
16768TIP3    H271796   6.153   4.172  14.881  2.7390 -2.7101  2.2908
16769TIP3   OH271797   6.601   2.893  11.328 -0.3567  0.4607 -0.3697
16769TIP3    H171798   6.528   2.904  11.267 -0.3356  1.3335 -0.2405
16769TIP3    H271799   6.561   2.885  11.414 -0.2371  2.4060 -0.1235
16770TIP3   OH271800   6.532   2.916   4.746 -0.2293  0.2447 -0.3143
16770TIP3    H171801   6.464   2.978   4.772  0.7995  1.2348  0.0611
16770TIP3    H271802   6.600   2.970   4.706  0.9996 -0.5559  0.6567
16771TIP3   OH271803   6.077   5.929  11.686 -0.4309  0.0213  0.1980
16771TIP3    H171804   6.155   5.885  11.721  0.7552  1.3114 -0.7831
16771TIP3    H271805   6.053   5.993  11.753  0.6752  1.1495 -0.4845
16772TIP3   OH271806   1.746   1.833  13.474  0.6476 -0.1053  0.0710
16772TIP3    H171807   1.714   1.837  13.384  0.8344 -0.4821 -0.0153
16772TIP3    H271808   1.822   1.774  13.469 -0.8465 -2.1424  0.9279
16773TIP3   OH271809   2.000   3.796  11.161  0.0747 -0.0834  0.2164
16773TIP3    H171810   1.924   3.754  11.201 -0.1859  0.4947  0.3291
16773TIP3    H271811   2.027   3.863  11.224  1.3614 -1.0256  0.6946
16774TIP3   OH271812   3.545   1.941   0.808 -0.1790 -0.5811 -0.4555
16774TIP3    H171813   3.637   1.920   0.792 -0.0193  0.7811 -1.3432
16774TIP3    H271814   3.518   1.878   0.875  1.0011 -1.9171 -1.2109
16775TIP3   OH271815   6.511   3.903  15.018 -0.1116 -0.4234 -0.7698
16775TIP3    H171816   6.530   3.876  14.928  0.0846 -1.7170 -0.3542
16775TIP3    H271817   6.511   3.999  15.015  2.6130 -0.4119 -1.5802
16776TIP3   OH271818   2.874   2.450  11.877 -0.5683  0.2966  0.2003
16776TIP3    H171819   2.805   2.384  11.890 -1.2868  1.1191  0.6084
16776TIP3    H271820   2.833   2.532  11.903  0.8675  0.6617  1.3525
16777TIP3   OH271821   4.377   1.110  13.695 -0.3360  0.6275 -0.5583
16777TIP3    H171822   4.455   1.158  13.669  0.2638 -0.5387 -0.9355
16777TIP3    H271823   4.306   1.148  13.642  0.4186 -0.0144 -2.0426
16778TIP3   OH271824   6.286   1.019  15.573  0.5875  0.6477  0.0752
16778TIP3    H171825   6.317   1.109  15.586  2.6407  0.1666 -1.1839
16778TIP3    H271826   6.356   0.977  15.522  0.0797 -1.9310  1.4347
16779TIP3   OH271827   0.264   6.197   1.965 -0.1526  0.3692 -0.3387
16779TIP3    H171828   0.253   6.292   1.970  0.3703  0.3088  2.7290
16779TIP3    H271829   0.313   6.174   2.044  0.7078 -2.3333 -1.6014
16780TIP3   OH271830   4.815   4.560  11.465  0.2597 -0.2027 -0.3605
16780TIP3    H171831   4.838   4.623  11.533  0.2640 -1.6900  1.0282
16780TIP3    H271832   4.898   4.544  11.419  0.4231  0.1953 -0.2087
16781TIP3   OH271833   6.295   1.557  11.781  0.0160 -0.0550 -0.0150
16781TIP3    H171834   6.375   1.590  11.740  0.3060 -0.6013  0.1135
16781TIP3    H271835   6.294   1.599  11.868  0.1460 -0.0305 -0.0247
16782TIP3   OH271836   5.500   1.548   5.747  0.4735 -0.5041 -0.4315
16782TIP3    H171837   5.406   1.562   5.759  1.0695  1.2792  2.6507
16782TIP3    H271838   5.524   1.606   5.676 -0.5027  0.1637 -0.2306
16783TIP3   OH271839   0.379   3.730   6.178  0.3013 -0.2090  0.0679
16783TIP3    H171840   0.456   3.686   6.214  1.5741  1.0494 -1.0460
16783TIP3    H271841   0.409   3.819   6.158 -1.2050  0.0380 -1.1952
16784TIP3   OH271842   2.670   1.222   1.425 -0.0902  0.3986 -0.1624
16784TIP3    H171843   2.592   1.265   1.391  0.0163  0.3078 -0.5258
16784TIP3    H271844   2.676   1.140   1.377  1.3304  1.3108 -1.5750
16785TIP3   OH271845   1.064   6.779  11.648 -0.1233  0.0135  0.2879
16785TIP3    H171846   1.041   6.769  11.556 -0.1139 -2.1448  0.4998
16785TIP3    H271847   1.077   6.873  11.660 -1.1543  0.4081 -1.6571
16786TIP3   OH271848   3.073   3.310  12.620 -0.3114 -0.3137  0.1607
16786TIP3    H171849   3.079   3.399  12.655 -0.6026 -0.1764 -0.1388
16786TIP3    H271850   3.000   3.271  12.667  0.4165 -0.7029  0.9697
16787TIP3   OH271851   5.015   0.593  15.034  0.4678  0.0367 -0.0666
16787TIP3    H171852   5.027   0.685  15.056 -1.7030  0.2176  0.4807
16787TIP3    H271853   5.071   0.546  15.095  0.8881  0.9414  0.2522
16788TIP3   OH271854   3.342   1.531   1.919 -0.2086  0.5987 -0.2205
16788TIP3    H171855   3.323   1.467   1.988  0.6401  0.2319 -0.3193
16788TIP3    H271856   3.400   1.485   1.859  0.7888  1.6163 -0.0523
16789TIP3   OH271857   5.864   2.065  16.527  0.5806 -0.1099 -0.7299
16789TIP3    H171858   5.812   2.072  16.447  2.2510 -0.2452 -1.8672
16789TIP3    H271859   5.948   2.105  16.504  0.4956  1.4246  1.5081
16790TIP3   OH271860   6.507   2.773  16.709  0.0545  0.1197 -0.4743
16790TIP3    H171861   6.491   2.689  16.752 -2.1205  0.2102 -1.0769
16790TIP3    H271862   6.525   2.833  16.780  2.0958 -0.9140 -0.0581
16791TIP3   OH271863   4.112   1.001  17.051 -0.4472 -0.0976 -0.4932
16791TIP3    H171864   4.068   1.082  17.077  0.7837  0.5062 -0.2135
16791TIP3    H271865   4.053   0.931  17.078 -0.9923  0.6686  0.3257
16792TIP3   OH271866   4.746   4.149  10.659 -0.3462  0.3737 -0.3494
16792TIP3    H171867   4.807   4.113  10.595  1.6348  0.3928  1.5057
16792TIP3    H271868   4.699   4.217  10.610  0.3520 -0.3532 -2.0801
16793TIP3   OH271869   1.461   2.541  16.495  0.0218  0.8263  0.0990
16793TIP3    H171870   1.542   2.557  16.544 -0.5961 -0.5119  1.6167
16793TIP3    H271871   1.393   2.537  16.562 -0.6909 -2.1802 -0.7348
16794TIP3   OH271872   5.507   3.222  14.690 -0.5406  0.1547 -0.3537
16794TIP3    H171873   5.476   3.137  14.658  0.8594  0.1790 -1.8110
16794TIP3    H271874   5.456   3.286  14.640 -0.9636  0.1966  0.1194
16795TIP3   OH271875   2.321   4.056   0.836 -0.6267  0.2573  0.0504
16795TIP3    H171876   2.298   3.964   0.852 -0.8268  0.4442  0.8500
16795TIP3    H271877   2.409   4.052   0.797 -0.0969 -0.2030  1.2894
16796TIP3   OH271878   2.404   3.271   2.479 -0.5222 -0.1913 -0.4731
16796TIP3    H171879   2.497   3.268   2.499 -0.4703  1.8154 -0.3290
16796TIP3    H271880   2.387   3.362   2.456 -1.8722 -1.0967 -3.3351
16797TIP3   OH271881   6.215   2.432  15.759 -0.3721 -0.1907  0.2523
16797TIP3    H171882   6.143   2.494  15.771 -0.2490 -0.0264  0.1281
16797TIP3    H271883   6.172   2.352  15.728 -0.4470  0.0492 -0.2601
16798TIP3   OH271884   6.148   2.191   4.424 -0.0726 -0.3451 -0.7738
16798TIP3    H171885   6.068   2.139   4.431 -1.0366  1.1672 -0.5393
16798TIP3    H271886   6.218   2.128   4.438 -1.2548 -1.4232  0.4041
16799TIP3   OH271887   4.870   3.027  14.170 -0.3868  0.0757  0.4036
16799TIP3    H171888   4.928   3.055  14.241 -0.8564  0.0614  0.7942
16799TIP3    H271889   4.897   2.936  14.152 -0.4020  0.0116  0.7002
16800TIP3   OH271890   0.506   1.887  15.526 -0.5570 -0.3293 -0.3632
16800TIP3    H171891   0.491   1.978  15.500 -0.4257  0.0327  0.7904
16800TIP3    H271892   0.444   1.836  15.474 -1.0124  0.4752 -0.6130
16801TIP3   OH271893   3.451   2.881   1.244 -0.1200 -0.0079  0.3203
16801TIP3    H171894   3.453   2.855   1.336  1.8866 -3.9847 -0.7400
16801TIP3    H271895   3.528   2.937   1.232  0.4090 -0.6551  0.7340
16802TIP3   OH271896   3.547   5.122  12.949 -0.1393 -0.2328 -0.2595
16802TIP3    H171897   3.490   5.177  13.003  0.4701 -0.2926  0.4589
16802TIP3    H271898   3.573   5.178  12.876 -1.0260 -0.1721 -0.5248
16803TIP3   OH271899   1.788   3.046   1.742  0.1312 -0.4546 -0.0087
16803TIP3    H171900   1.857   3.067   1.679  0.8220  0.3406  0.9995
16803TIP3    H271901   1.721   3.113   1.726  0.1288 -0.4958 -0.1738
16804TIP3   OH271902   0.785   5.540  16.891  0.1096  0.0084  0.1413
16804TIP3    H171903   0.819   5.467  16.942  0.1291 -0.2272 -0.2072
16804TIP3    H271904   0.748   5.600  16.956  1.0531  0.1994  0.5112
16805TIP3   OH271905   1.007   1.189   5.175  0.3684 -0.1126 -0.2567
16805TIP3    H171906   1.069   1.236   5.230 -1.6260  2.3909 -0.0293
16805TIP3    H271907   1.008   1.237   5.092 -0.6594 -0.5098 -0.5062
16806TIP3   OH271908   3.604   2.735  17.175 -0.7335  0.2833 -0.2579
16806TIP3    H171909   3.646   2.772  17.252 -2.1096 -0.4054  0.8449
16806TIP3    H271910   3.559   2.809  17.134  0.7882  0.8413 -0.9586
16807TIP3   OH271911   2.751   2.733  12.544 -0.2620  0.0611 -0.1138
16807TIP3    H171912   2.803   2.772  12.614 -0.8560 -0.3381  0.5741
16807TIP3    H271913   2.797   2.754  12.464 -0.0427  1.3110  0.3258
16808TIP3   OH271914   4.111   3.317   4.211  0.5956 -0.0842 -0.4049
16808TIP3    H171915   4.144   3.268   4.135 -1.4015 -1.0638 -0.6673
16808TIP3    H271916   4.026   3.350   4.183  0.4899  0.7774  0.9133
16809TIP3   OH271917   1.424   1.101   0.363 -0.7390  0.2255  0.5534
16809TIP3    H171918   1.421   1.007   0.345 -1.3595  0.4410 -0.4861
16809TIP3    H271919   1.433   1.142   0.277  3.7322  0.9775  1.2395
16810TIP3   OH271920   1.224   1.678  11.175  0.5054  0.1924 -0.3812
16810TIP3    H171921   1.246   1.590  11.206  0.9583  0.0986 -0.9556
16810TIP3    H271922   1.161   1.664  11.105  1.1243  0.2828 -0.9591
16811TIP3   OH271923   0.646   6.231   3.218 -0.0103  0.4935 -0.0458
16811TIP3    H171924   0.702   6.157   3.194  0.5954  1.1956 -0.8274
16811TIP3    H271925   0.604   6.204   3.300 -0.0821 -0.8586 -0.5309
16812TIP3   OH271926   1.647   6.202  14.462  0.2779 -0.4854 -0.0422
16812TIP3    H171927   1.587   6.168  14.396 -0.3119 -1.1385  0.8179
16812TIP3    H271928   1.596   6.268  14.509  0.0729 -1.3559  0.9802
16813TIP3   OH271929   5.246   0.831   3.641  0.8838  0.1584  0.2679
16813TIP3    H171930   5.278   0.920   3.629  0.0012  0.3766 -0.5002
16813TIP3    H271931   5.311   0.776   3.598  2.9985  0.1713  3.2460
16814TIP3   OH271932   3.678   2.883   0.110  0.0816 -0.7335  0.5993
16814TIP3    H171933   3.645   2.970   0.089  0.0369 -1.2678 -1.7337
16814TIP3    H271934   3.745   2.898   0.177 -1.1027  0.9093  1.4377
16815TIP3   OH271935   1.609   0.813   0.382 -0.2222  0.4238 -0.1190
16815TIP3    H171936   1.602   0.768   0.467 -2.1498  1.4034  0.2743
16815TIP3    H271937   1.519   0.820   0.352  0.1268  3.1895 -0.6017
16816TIP3   OH271938   4.451   3.660  11.094 -0.2023  0.0148  0.9619
16816TIP3    H171939   4.477   3.570  11.078 -0.8694 -0.1687  0.8830
16816TIP3    H271940   4.521   3.713  11.055  0.0666 -0.4652  0.7908
16817TIP3   OH271941   4.470   6.737  14.075  0.1847  0.2798  0.2225
16817TIP3    H171942   4.463   6.648  14.110 -0.7240  1.1515  2.3826
16817TIP3    H271943   4.550   6.772  14.114  1.6340 -0.2377 -2.2175
16818TIP3   OH271944   6.482   0.530  16.638 -0.3867 -0.1221 -0.2404
16818TIP3    H171945   6.514   0.587  16.708 -0.9244 -0.2463  0.1116
16818TIP3    H271946   6.560   0.487  16.603 -0.0636  0.2929 -0.0304
16819TIP3   OH271947   3.119   2.042  15.021 -0.0051 -0.2041 -0.3286
16819TIP3    H171948   3.082   2.035  14.933 -1.7883 -0.6362  0.4440
16819TIP3    H271949   3.109   2.134  15.045  1.4043  0.1288 -0.9553
16820TIP3   OH271950   6.104   2.673  13.657 -0.3534  0.2158  0.0399
16820TIP3    H171951   6.185   2.663  13.607  0.0499  1.2287  0.4673
16820TIP3    H271952   6.099   2.767  13.675 -1.3646  0.0863  0.4497
16821TIP3   OH271953   4.383   6.617  16.128  0.3734  0.6327  0.0177
16821TIP3    H171954   4.411   6.528  16.151 -0.2773  0.3301 -0.3314
16821TIP3    H271955   4.415   6.672  16.199  2.0922  0.3443 -0.5105
16822TIP3   OH271956   0.631   3.425  14.532  0.6505 -0.2927  0.3289
16822TIP3    H171957   0.648   3.518  14.541  0.3529 -0.1258 -0.7079
16822TIP3    H271958   0.546   3.412  14.575 -0.7718  0.4876 -2.1034
16823TIP3   OH271959   5.790   3.108  13.928 -0.6675 -0.1259  0.6591
16823TIP3    H171960   5.865   3.128  13.873 -0.1134  0.0529  1.4842
16823TIP3    H271961   5.790   3.012  13.934 -1.4956 -0.2188 -0.7234
16824TIP3   OH271962   2.278   6.513   0.381 -0.3918  0.4420  1.1313
16824TIP3    H171963   2.271   6.479   0.292  0.7238  2.1146  0.3617
16824TIP3    H271964   2.198   6.563   0.394  0.9817  3.1080 -0.2740
16825TIP3   OH271965   0.155   2.900   4.417 -0.4635  0.1190  0.4572
16825TIP3    H171966   0.089   2.830   4.415 -1.3261  0.8825  1.6163
16825TIP3    H271967   0.229   2.864   4.369 -1.6129 -0.8805 -0.6128
16826TIP3   OH271968   0.230   5.602   2.406 -0.3711  0.0682 -0.3935
16826TIP3    H171969   0.247   5.679   2.353  0.7833  0.2634  0.2405
16826TIP3    H271970   0.311   5.587   2.455 -1.4732  0.0340  1.5022
16827TIP3   OH271971   6.527   0.837   3.499 -0.2526 -0.1302  0.4727
16827TIP3    H171972   6.575   0.891   3.436  0.9831 -0.3112  1.2371
16827TIP3    H271973   6.545   0.747   3.472  1.1091 -0.2319  1.6557
16828TIP3   OH271974   3.970   5.847   5.410 -0.3228  0.1719 -0.1716
16828TIP3    H171975   3.968   5.828   5.317  0.3334 -0.7527 -0.0023
16828TIP3    H271976   3.881   5.877   5.430 -0.9376 -1.2537 -0.7565
16829TIP3   OH271977   6.601   1.804   4.438  0.0491  0.1532  0.4534
16829TIP3    H171978   6.508   1.805   4.414  0.3396 -1.6098 -0.9088
16829TIP3    H271979   6.646   1.841   4.362  0.4651  0.8318  1.0328
16830TIP3   OH271980   5.982   5.321  17.292  0.4607 -0.1739 -0.0751
16830TIP3    H171981   6.066   5.327  17.248  0.4551 -0.9999 -0.2132
16830TIP3    H271982   5.955   5.412  17.307  1.5647  0.0901  0.3349
16831TIP3   OH271983   1.358   3.073   1.900 -0.1326 -0.3268 -0.3196
16831TIP3    H171984   1.353   2.978   1.887 -0.8875 -0.3546  0.1385
16831TIP3    H271985   1.289   3.092   1.964 -0.9546  0.7265 -1.4979
16832TIP3   OH271986   1.513   0.797  11.637 -0.0658  0.4706  0.1487
16832TIP3    H171987   1.443   0.836  11.584  0.6359  1.8970  0.2447
16832TIP3    H271988   1.478   0.794  11.726 -0.8849 -1.0293 -0.2153
16833TIP3   OH271989   0.648   2.194   2.485 -0.8189  0.3546 -0.4828
16833TIP3    H171990   0.599   2.163   2.561  0.4695 -1.7133 -0.4452
16833TIP3    H271991   0.699   2.118   2.457  0.6698  1.8176 -1.8570
16834TIP3   OH271992   6.687   4.539   2.695  0.5960  0.1351 -0.2912
16834TIP3    H171993   6.749   4.470   2.717 -0.5072 -1.3521 -1.6313
16834TIP3    H271994   6.601   4.501   2.715  0.0459  1.6780  0.3429
16835TIP3   OH271995   2.911   5.424   5.166  0.3472 -0.2255 -0.1354
16835TIP3    H171996   2.968   5.497   5.192  0.0457 -0.4787  1.3141
16835TIP3    H271997   2.835   5.432   5.224 -1.5740  0.6991 -2.7122
16836TIP3   OH271998   5.682   4.936   1.026 -0.2833  0.2001  0.5036
16836TIP3    H171999   5.752   4.993   0.994 -0.4559  0.4658  0.5939
16836TIP3    H272000   5.725   4.877   1.088  0.2406 -0.9791 -0.9458
16837TIP3   OH272001   3.634   2.553   1.606  0.0981  0.1251  0.3774
16837TIP3    H172002   3.688   2.632   1.608 -1.0455  0.9369  0.0666
16837TIP3    H272003   3.600   2.544   1.695  0.3732 -0.1131  0.4571
16838TIP3   OH272004   4.205   5.407   0.746 -0.1296 -0.3881 -0.4276
16838TIP3    H172005   4.141   5.372   0.808 -1.0094 -0.7310 -1.5041
16838TIP3    H272006   4.246   5.329   0.708  0.0129 -0.1978 -0.6647
16839TIP3   OH272007   5.691   0.730  10.671 -0.1474  0.3329 -1.0330
16839TIP3    H172008   5.774   0.777  10.665  1.6282 -2.6501 -1.1308
16839TIP3    H272009   5.650   0.741  10.585  0.0267  1.9987 -0.9151
16840TIP3   OH272010   2.934   2.720   0.094 -0.4734  0.0980 -0.2827
16840TIP3    H172011   2.983   2.688   0.169  0.2815  2.1749  0.1510
16840TIP3    H272012   2.983   2.689   0.018  1.5556  2.0927  0.1446
16841TIP3   OH272013   4.408   3.774  15.514 -0.3311  0.1538  0.2640
16841TIP3    H172014   4.349   3.803  15.445 -0.5139  0.4059  0.5238
16841TIP3    H272015   4.375   3.688  15.540 -0.9916  0.5784  0.8688
16842TIP3   OH272016   2.966   3.323  15.317  0.0232  0.3016  0.6597
16842TIP3    H172017   3.048   3.294  15.357  0.9718  1.9696 -0.0296
16842TIP3    H272018   2.960   3.416  15.338 -2.1131  0.0209  1.3854
16843TIP3   OH272019   1.052   3.955  12.745 -0.3873 -0.2121 -0.9721
16843TIP3    H172020   1.033   4.023  12.680 -0.8943 -2.0061 -2.7634
16843TIP3    H272021   0.967   3.938  12.787  0.0408  1.3133  0.5749
16844TIP3   OH272022   1.899   0.281   3.693  0.0832 -0.2138 -0.3052
16844TIP3    H172023   1.908   0.204   3.749  0.1789  0.2969  0.3893
16844TIP3    H272024   1.942   0.351   3.741  0.1472  0.2411 -1.0103
16845TIP3   OH272025   2.968   4.280   2.084  0.2469 -0.7683 -0.8259
16845TIP3    H172026   2.905   4.336   2.039  0.6617  0.6461  0.3359
16845TIP3    H272027   2.917   4.203   2.110 -1.1477  0.6190  0.6347
16846TIP3   OH272028   3.277   1.152   2.861 -0.2101  0.4725 -0.5861
16846TIP3    H172029   3.330   1.131   2.937 -1.6741  1.0199  0.6181
16846TIP3    H272030   3.207   1.086   2.862 -0.3778  0.6339 -1.3067
16847TIP3   OH272031   4.798   2.231  11.590 -0.3732  0.0946  0.1564
16847TIP3    H172032   4.711   2.215  11.626 -1.2005 -0.0344 -1.8165
16847TIP3    H272033   4.856   2.235  11.666 -1.6500 -2.6479  1.3182
16848TIP3   OH272034   6.079   1.677   3.107 -0.7905 -0.2177 -0.9950
16848TIP3    H172035   6.167   1.712   3.114 -1.1473  0.6952 -0.9568
16848TIP3    H272036   6.036   1.732   3.040 -2.3134  1.4557  1.2834
16849TIP3   OH272037   4.106   0.068   4.167  0.5264  0.4075 -0.3578
16849TIP3    H172038   4.196   0.098   4.158 -0.0440  1.5149 -2.6522
16849TIP3    H272039   4.066   0.128   4.229  0.6875  1.5172 -1.3148
16850TIP3   OH272040   6.661   2.045   5.328 -0.4052  0.3112 -0.0353
16850TIP3    H172041   6.598   2.028   5.258 -0.2899 -0.5651  0.0644
16850TIP3    H272042   6.711   2.121   5.297 -0.1502 -0.2544 -1.0571
16851TIP3   OH272043   1.323   0.891   2.986  0.0127 -0.1047  0.0009
16851TIP3    H172044   1.241   0.922   2.949  0.6137  0.5574 -0.7851
16851TIP3    H272045   1.389   0.910   2.919  0.9690  0.3529  1.0521
16852TIP3   OH272046   6.755   0.728   1.570 -0.6511 -0.4832  0.1812
16852TIP3    H172047   6.712   0.813   1.557 -0.5942 -0.3634  0.7636
16852TIP3    H272048   6.792   0.733   1.658  2.6725  0.3278 -1.1874
16853TIP3   OH272049   1.434   1.427   5.099 -0.3965  0.2637  0.3190
16853TIP3    H172050   1.516   1.469   5.072 -0.5896  1.6782  1.8497
16853TIP3    H272051   1.461   1.348   5.146  0.0756  0.6015  0.6097
16854TIP3   OH272052   4.276   3.837  13.274 -0.3163  0.3437 -0.3927
16854TIP3    H172053   4.355   3.787  13.256 -1.0671 -0.4985 -1.4246
16854TIP3    H272054   4.297   3.889  13.351  1.6042  0.9325 -1.2861
16855TIP3   OH272055   6.508   5.294  12.112 -0.1936  0.2621 -0.5236
16855TIP3    H172056   6.430   5.342  12.140 -0.3129 -0.8340  1.0770
16855TIP3    H272057   6.525   5.326  12.023 -0.8028  2.5634  0.1520
16856TIP3   OH272058   0.895   5.455  13.206 -0.1022 -0.6215  0.3388
16856TIP3    H172059   0.840   5.516  13.256  0.7256 -1.2222  2.0004
16856TIP3    H272060   0.921   5.389  13.269  1.9156 -0.7757 -0.6286
16857TIP3   OH272061   1.954   2.794   4.003 -0.5573 -0.4839  0.1608
16857TIP3    H172062   1.868   2.811   4.041 -0.9316 -0.2250 -0.7891
16857TIP3    H272063   2.015   2.844   4.057 -1.1864  0.6240 -0.1338
16858TIP3   OH272064   4.121   3.992  16.317 -0.1147 -0.1045  0.0229
16858TIP3    H172065   4.106   4.055  16.246  1.5285 -0.8440 -0.9940
16858TIP3    H272066   4.204   4.019  16.356 -1.7880  1.2976  2.7773
16859TIP3   OH272067   5.661   5.946  11.952 -0.5732  0.1707 -0.5517
16859TIP3    H172068   5.709   6.021  11.987  0.9663 -1.7321  1.5080
16859TIP3    H272069   5.686   5.943  11.860  1.7525  0.4134  0.0373
16860TIP3   OH272070   2.006   4.307   0.623  0.2524 -0.4052 -0.3163
16860TIP3    H172071   2.100   4.297   0.606  0.7332 -0.6968  2.3198
16860TIP3    H272072   1.977   4.219   0.649 -0.3067  0.1296  0.9114
16861TIP3   OH272073   2.466   6.687   5.931 -0.1950  0.0886  0.7553
16861TIP3    H172074   2.458   6.598   5.964 -0.5590 -0.0645  0.2537
16861TIP3    H272075   2.386   6.703   5.881  1.1439 -0.3662 -1.6436
16862TIP3   OH272076   0.477   2.399  13.462  0.9227  0.0018  0.4355
16862TIP3    H172077   0.491   2.438  13.375  0.2716 -0.1764  0.2447
16862TIP3    H272078   0.482   2.305  13.446 -2.3933 -0.1530 -0.0187
16863TIP3   OH272079   4.063   4.324   4.019 -0.1123 -0.0614 -0.0305
16863TIP3    H172080   4.072   4.351   3.927  0.4494 -0.2489 -0.0317
16863TIP3    H272081   4.099   4.235   4.021  0.4605  0.1869  0.5028
16864TIP3   OH272082   4.594   4.114   4.705  0.3950  0.3392  0.4569
16864TIP3    H172083   4.592   4.178   4.776 -0.3259  1.9253 -0.9332
16864TIP3    H272084   4.528   4.049   4.728  0.1300  0.8705  1.2084
16865TIP3   OH272085   1.907   2.645   5.137  0.4814 -0.3485 -0.4308
16865TIP3    H172086   1.975   2.578   5.123  0.4623 -0.7856  1.5114
16865TIP3    H272087   1.934   2.691   5.216 -2.1943 -1.4388  1.1885
16866TIP3   OH272088   5.343   1.688  14.224  0.1273 -0.4573 -0.1590
16866TIP3    H172089   5.399   1.621  14.263 -0.5472 -0.9842 -0.0924
16866TIP3    H272090   5.298   1.728  14.298  0.5956  0.1357 -0.1906
16867TIP3   OH272091   5.766   4.359  15.085 -0.1823  0.0838  0.0415
16867TIP3    H172092   5.684   4.331  15.125 -1.3505  0.6547 -1.9194
16867TIP3    H272093   5.740   4.412  15.010  1.9866  1.4801  0.2316
16868TIP3   OH272094   5.404   6.448  16.831 -0.5008  0.4998  0.3812
16868TIP3    H172095   5.418   6.355  16.809 -1.2438  0.4109  0.2622
16868TIP3    H272096   5.309   6.458  16.828 -0.3542  1.5753 -0.8306
16869TIP3   OH272097   0.320   2.679   2.511 -0.2316 -0.1892 -0.0570
16869TIP3    H172098   0.387   2.657   2.575 -1.7547 -0.6494  1.4077
16869TIP3    H272099   0.365   2.673   2.426  1.2018 -1.8227  0.7957
16870TIP3   OH272100   6.555   5.026  14.068 -0.7235  0.0933 -0.8015
16870TIP3    H172101   6.611   5.089  14.114 -2.5139  1.2309 -0.1172
16870TIP3    H272102   6.525   5.074  13.990 -1.6457 -0.0987 -0.5699
16871TIP3   OH272103   2.614   3.876  11.000 -0.4415 -0.5596 -0.3500
16871TIP3    H172104   2.630   3.799  10.946  3.4225 -0.0956  0.0127
16871TIP3    H272105   2.599   3.947  10.936 -0.6647 -0.9322 -0.7141
16872TIP3   OH272106   3.268   2.580   1.687 -0.1902 -0.6051  0.0024
16872TIP3    H172107   3.270   2.534   1.603 -0.3080 -1.7626  0.6170
16872TIP3    H272108   3.175   2.603   1.699 -0.1297 -0.1959 -0.3116
16873TIP3   OH272109   0.451   2.364  13.945 -0.0117 -0.5197 -0.4055
16873TIP3    H172110   0.429   2.295  14.007 -0.8358 -1.4214 -1.6674
16873TIP3    H272111   0.369   2.380  13.897  1.0681 -1.1679 -2.5201
16874TIP3   OH272112   0.216   2.495  13.416 -0.8083  0.1951 -0.2533
16874TIP3    H172113   0.172   2.504  13.500  0.0340 -2.3952  0.5229
16874TIP3    H272114   0.307   2.474  13.438 -0.7145 -1.1955 -1.7694
16875TIP3   OH272115   2.599   4.721   2.640 -0.0051  0.3676  0.1925
16875TIP3    H172116   2.633   4.659   2.705  0.2670 -0.6343 -0.9022
16875TIP3    H272117   2.509   4.738   2.669  0.4147  0.6582  1.3595
16876TIP3   OH272118   1.221   4.049   1.020 -0.6209 -0.3037 -0.3009
16876TIP3    H172119   1.260   4.115   1.077 -0.2069  0.1904 -1.1539
16876TIP3    H272120   1.132   4.082   1.002 -0.8653 -0.6236  0.3260
16877TIP3   OH272121   3.834   0.422   5.495 -0.5033 -0.2446  0.1575
16877TIP3    H172122   3.804   0.331   5.495  0.6216 -0.6246  0.1707
16877TIP3    H272123   3.921   0.418   5.535 -0.8768  0.9803  1.1241
16878TIP3   OH272124   6.625   5.938  16.407  0.6833 -0.2468  0.3241
16878TIP3    H172125   6.705   5.933  16.355  0.4513 -2.3850  0.1448
16878TIP3    H272126   6.581   5.855  16.392 -1.4185  0.7565  0.7006
16879TIP3   OH272127   6.424   0.352   5.033  0.4005 -0.0817 -0.0975
16879TIP3    H172128   6.431   0.447   5.019  3.3768 -0.2791 -0.1811
16879TIP3    H272129   6.361   0.344   5.104  0.1696  1.9704 -0.0196
16880TIP3   OH272130   3.339   2.232  15.460  0.1491  0.2408 -0.5329
16880TIP3    H172131   3.348   2.246  15.366 -0.0495 -1.6162 -0.8348
16880TIP3    H272132   3.302   2.315  15.492  0.3145  0.9275 -2.0548
16881TIP3   OH272133   3.083   0.374   1.262 -0.0804 -0.7018  0.3455
16881TIP3    H172134   3.124   0.447   1.216  2.6059 -1.8201  0.8847
16881TIP3    H272135   3.107   0.297   1.211 -3.1305 -1.2458 -0.3876
16882TIP3   OH272136   1.531   5.992   0.536  0.2370  0.3191 -0.2190
16882TIP3    H172137   1.483   5.987   0.453  0.3790 -2.4138 -0.1524
16882TIP3    H272138   1.622   5.979   0.512  0.2353 -0.8500  0.4212
16883TIP3   OH272139   2.847   1.469   3.624 -0.3486  0.2514 -0.2882
16883TIP3    H172140   2.835   1.377   3.601 -2.1962  0.6745 -1.2291
16883TIP3    H272141   2.800   1.480   3.707 -0.0479  0.3113 -0.1277
16884TIP3   OH272142   6.533   5.104   4.903  0.3584  0.0654 -0.5576
16884TIP3    H172143   6.544   5.065   4.989  0.6839 -0.5748 -0.8944
16884TIP3    H272144   6.466   5.050   4.861 -0.2304  0.7328 -0.4903
16885TIP3   OH272145   0.506   2.425   1.547 -0.5241 -0.1759 -0.4020
16885TIP3    H172146   0.441   2.394   1.611 -1.2236  1.9579 -0.0374
16885TIP3    H272147   0.479   2.385   1.465 -0.8171 -1.3099  0.2259
16886TIP3   OH272148   3.490   1.426  13.183 -0.2061  0.1956  0.0311
16886TIP3    H172149   3.549   1.461  13.249 -0.5660 -0.9505  0.9771
16886TIP3    H272150   3.545   1.410  13.106  0.1807  1.6839 -0.0134
16887TIP3   OH272151   1.154   2.567   3.807 -0.3777 -0.1076  0.0258
16887TIP3    H172152   1.209   2.633   3.850  0.9903  0.1431 -2.0379
16887TIP3    H272153   1.130   2.607   3.724 -3.2272 -0.4680  0.6442
16888TIP3   OH272154   1.689   6.670   5.644 -0.3449 -0.5344 -0.8154
16888TIP3    H172155   1.774   6.648   5.605  0.2640 -0.3646  0.4179
16888TIP3    H272156   1.658   6.588   5.682 -0.8872 -0.6713 -1.5405
16889TIP3   OH272157   0.368   0.928  13.573 -0.1144 -0.1663  0.3429
16889TIP3    H172158   0.408   0.841  13.562 -2.5343 -1.0163 -2.3591
16889TIP3    H272159   0.274   0.912  13.563 -0.5919  2.7803 -0.1947
16890TIP3   OH272160   0.344   5.429  15.915 -0.1404  0.0201 -0.6583
16890TIP3    H172161   0.333   5.446  16.008  0.5716 -1.1936 -0.3409
16890TIP3    H272162   0.319   5.511  15.872  3.7771  2.1196  0.8410
16891TIP3   OH272163   2.035   4.910   1.206  0.4669  0.2402  0.1224
16891TIP3    H172164   2.094   4.951   1.144  2.7662 -0.6944  1.6155
16891TIP3    H272165   1.974   4.859   1.152  1.1360  1.0631 -1.4273
16892TIP3   OH272166   4.385   2.543  10.233 -0.7898 -0.2180  0.3539
16892TIP3    H172167   4.311   2.538  10.173 -1.5724  0.0517  1.2783
16892TIP3    H272168   4.385   2.459  10.279  0.2098 -0.6842 -0.4847
16893TIP3   OH272169   1.252   4.619   0.727  0.2283 -0.5080 -0.0064
16893TIP3    H172170   1.265   4.703   0.682  1.3217 -0.9269 -0.4637
16893TIP3    H272171   1.157   4.612   0.735  0.0947  0.4581 -0.5690
16894TIP3   OH272172   4.577   5.486  16.375  0.1073 -0.5543  0.1141
16894TIP3    H172173   4.517   5.425  16.418 -1.6297  0.2120 -1.1718
16894TIP3    H272174   4.586   5.558  16.437  0.5455 -1.1374  0.7461
16895TIP3   OH272175   5.989   1.605   4.307 -0.0259  0.2020 -0.0545
16895TIP3    H172176   5.987   1.700   4.320  0.2262  0.3188 -0.8558
16895TIP3    H272177   5.991   1.569   4.396  2.2580  1.0117  0.2759
16896TIP3   OH272178   1.012   2.509   0.091 -0.1099 -0.1024 -0.0170
16896TIP3    H172179   1.091   2.516   0.145  0.3255 -1.8763 -0.4131
16896TIP3    H272180   0.963   2.437   0.130 -0.9488  0.1998 -0.5170
16897TIP3   OH272181   4.199   2.138   1.827  0.4485  0.4795  0.2969
16897TIP3    H172182   4.143   2.205   1.788 -0.5830 -0.3030  0.3979
16897TIP3    H272183   4.230   2.177   1.909  0.1300  0.9645  0.1878
16898TIP3   OH272184   0.050   0.847   4.437 -0.4992 -0.0522  0.8742
16898TIP3    H172185   0.091   0.899   4.506  0.4581 -0.2755  0.4717
16898TIP3    H272186   0.023   0.766   4.481 -1.8933  0.7089  1.4777
16899TIP3   OH272187   0.804   6.254  13.515 -0.5855 -0.5761 -0.1780
16899TIP3    H172188   0.735   6.280  13.576  0.8854 -2.2055  2.2449
16899TIP3    H272189   0.885   6.282  13.556  0.3892 -0.9743 -1.7764
16900TIP3   OH272190   5.659   3.815   1.442  0.4409 -0.1253 -0.2324
16900TIP3    H172191   5.581   3.827   1.496  0.3739  0.6992 -0.5076
16900TIP3    H272192   5.645   3.730   1.399  0.0412 -0.3285  0.2916
16901TIP3   OH272193   0.329   3.272  14.381  0.1939  0.5866  0.6748
16901TIP3    H172194   0.375   3.352  14.355 -1.2534  1.2230 -0.0063
16901TIP3    H272195   0.307   3.285  14.473  0.0387  0.9519  0.5889
16902TIP3   OH272196   3.236   6.065   2.611  0.0121  0.1861 -0.1196
16902TIP3    H172197   3.257   6.157   2.595 -1.8664  0.5067 -0.7986
16902TIP3    H272198   3.236   6.056   2.706 -1.0523  1.1991 -0.0183
16903TIP3   OH272199   4.698   6.111   4.089  0.0680  0.2157  0.1975
16903TIP3    H172200   4.626   6.053   4.063  0.1523  0.1919  0.0143
16903TIP3    H272201   4.657   6.197   4.096 -0.3234 -0.0778  1.7082
16904TIP3   OH272202   1.679   0.334  14.617 -0.4000  0.1762 -0.1143
16904TIP3    H172203   1.744   0.272  14.651  0.3078  1.8920  1.8262
16904TIP3    H272204   1.639   0.289  14.542  0.9894 -2.0689  0.4346
16905TIP3   OH272205   0.761   5.418   4.666 -0.3644 -0.1408 -0.1152
16905TIP3    H172206   0.798   5.480   4.728  0.2311  0.5826 -1.1755
16905TIP3    H272207   0.817   5.426   4.588 -0.0084 -2.2956 -0.1208
16906TIP3   OH272208   1.573   4.132   4.157 -0.1510 -0.6099 -0.0745
16906TIP3    H172209   1.665   4.159   4.159 -0.3766  0.1228  1.7935
16906TIP3    H272210   1.550   4.132   4.064  1.4546  0.1774 -0.4971
16907TIP3   OH272211   5.440   5.455  17.214 -0.2481 -0.2395 -0.3761
16907TIP3    H172212   5.368   5.517  17.226  0.2268  0.6899 -2.1949
16907TIP3    H272213   5.484   5.453  17.299 -0.1801  2.0358 -0.3336
16908TIP3   OH272214   3.230   4.266   4.291 -0.2430  0.1387  0.3385
16908TIP3    H172215   3.320   4.284   4.262 -0.3684  0.7271  0.3050
16908TIP3    H272216   3.195   4.206   4.226  0.5535 -1.1100  1.0490
16909TIP3   OH272217   4.320   1.690  16.135 -0.5557 -0.6329 -0.0621
16909TIP3    H172218   4.314   1.604  16.094  0.5366 -0.5345 -0.4374
16909TIP3    H272219   4.412   1.701  16.157 -0.7771  0.2062  0.5006
16910TIP3   OH272220   3.658   6.798   4.545 -0.3350  0.2296  0.1781
16910TIP3    H172221   3.709   6.837   4.616  0.8236 -1.0165  0.0632
16910TIP3    H272222   3.574   6.778   4.585  0.7763 -1.7526  1.6557
16911TIP3   OH272223   4.435   6.634  15.191  0.5258 -0.4649  0.5771
16911TIP3    H172224   4.399   6.549  15.166  0.0578  0.4839 -2.1434
16911TIP3    H272225   4.358   6.688  15.211  0.6510  0.1906 -0.6665
16912TIP3   OH272226   4.238   5.770  14.908  0.1898 -0.5584 -0.4955
16912TIP3    H172227   4.163   5.711  14.898  0.1022 -0.8392  1.4813
16912TIP3    H272228   4.222   5.814  14.992  2.2535 -0.6515 -0.0356
16913TIP3   OH272229   5.571   0.480   2.414 -0.3156 -0.4670  0.0065
16913TIP3    H172230   5.633   0.518   2.351  0.5335  0.2558  1.2604
16913TIP3    H272231   5.486   0.510   2.384  0.1021  0.0510 -0.6797
16914TIP3   OH272232   4.496   4.701  14.801  0.2897 -0.2847  0.6250
16914TIP3    H172233   4.483   4.628  14.862 -2.6146  1.4612  2.2274
16914TIP3    H272234   4.448   4.674  14.722  1.5474 -1.2705  0.1851
16915TIP3   OH272235   1.608   1.400  13.422 -0.0365  0.2769  0.0966
16915TIP3    H172236   1.702   1.396  13.405  0.0058 -1.3804  0.6280
16915TIP3    H272237   1.602   1.422  13.515 -0.2036  1.4135 -0.1694
16916TIP3   OH272238   4.489   4.798   5.215 -0.1517 -0.5837  0.3902
16916TIP3    H172239   4.474   4.714   5.258 -0.4168 -1.6618 -1.7253
16916TIP3    H272240   4.406   4.845   5.224 -0.5392 -1.2211  0.1596
16917TIP3   OH272241   1.978   6.209  12.196 -0.6430 -0.3389  0.0934
16917TIP3    H172242   2.013   6.154  12.266 -1.7204 -0.6989  0.3439
16917TIP3    H272243   1.884   6.191  12.195 -0.6768 -0.1275 -1.2599
16918TIP3   OH272244   4.574   1.284  13.049 -0.8148 -0.2817  0.3595
16918TIP3    H172245   4.479   1.278  13.054 -0.8073 -0.1806  0.6255
16918TIP3    H272246   4.596   1.249  12.962 -1.1788  0.7261 -0.1514
16919TIP3   OH272247   2.534   6.738   6.433 -0.0783  0.1074 -1.0349
16919TIP3    H172248   2.618   6.779   6.415  0.4252  0.2568  1.5805
16919TIP3    H272249   2.470   6.808   6.420  0.3189  0.3627 -1.6414
16920TIP3   OH272250   4.156   6.055  11.060 -0.1339  0.3342 -0.2565
16920TIP3    H172251   4.125   6.145  11.068 -0.2267  0.5060 -2.4073
16920TIP3    H272252   4.166   6.025  11.151 -2.6358  1.6145  0.4747
16921TIP3   OH272253   4.887   0.328   4.832  0.5931  0.1050  0.1593
16921TIP3    H172254   4.857   0.244   4.865 -1.9037  0.8643 -0.0803
16921TIP3    H272255   4.894   0.316   4.737 -0.5040  0.3587  0.0360
16922TIP3   OH272256   5.478   2.822  11.216  0.1789  1.0382  0.5746
16922TIP3    H172257   5.465   2.777  11.299  2.5752 -1.3654 -0.2767
16922TIP3    H272258   5.410   2.787  11.158  0.4757  0.3881  0.6232
16923TIP3   OH272259   4.018   3.527   0.955  0.1768 -0.3910  0.1617
16923TIP3    H172260   4.035   3.519   0.861 -1.4690  0.0082 -0.2011
16923TIP3    H272261   4.065   3.453   0.994  1.9658  0.2038 -0.8172
16924TIP3   OH272262   0.156   2.185   2.537 -0.3030 -0.5068 -0.4246
16924TIP3    H172263   0.185   2.262   2.587  0.6852 -0.4232 -1.1041
16924TIP3    H272264   0.159   2.213   2.446 -2.4557 -0.5503 -0.5341
16925TIP3   OH272265   5.227   2.114  15.244  0.6767 -0.6542  0.2633
16925TIP3    H172266   5.300   2.058  15.269 -0.0196 -0.6626  2.4035
16925TIP3    H272267   5.158   2.094  15.308 -0.8970 -0.0425 -1.2069
16926TIP3   OH272268   6.003   6.543   4.611 -0.1448 -0.6092  0.2588
16926TIP3    H172269   5.914   6.517   4.588 -0.2918  0.7925 -0.8603
16926TIP3    H272270   6.030   6.601   4.540  1.3495 -0.3543  1.0139
16927TIP3   OH272271   2.979   2.737  12.711  0.3482  0.0189  0.2983
16927TIP3    H172272   3.033   2.801  12.757 -0.3133  0.8220 -0.0231
16927TIP3    H272273   3.041   2.674  12.675  0.8911 -0.5034  2.0961
16928TIP3   OH272274   5.485   5.110   3.021  0.1787 -0.1653  0.6461
16928TIP3    H172275   5.428   5.071   2.954  1.3152 -2.5714  1.0148
16928TIP3    H272276   5.436   5.099   3.103 -0.4057  1.0943  0.4706
16929TIP3   OH272277   2.248   3.277  12.032  0.3720  0.0143 -0.0727
16929TIP3    H172278   2.197   3.234  12.100  1.5313  2.1491  2.2554
16929TIP3    H272279   2.189   3.344  11.997  1.0168  1.5107  1.6056
16930TIP3   OH272280   3.996   1.810   1.712  0.5507  0.5503 -0.0321
16930TIP3    H172281   4.027   1.798   1.802 -2.6985 -2.0659  0.8406
16930TIP3    H272282   4.046   1.747   1.661 -0.9563 -1.3791  0.8151
16931TIP3   OH272283   5.936   1.116  14.132 -0.0880  0.5359  0.6053
16931TIP3    H172284   5.983   1.087  14.054  0.2334 -0.7374  1.2512
16931TIP3    H272285   5.858   1.061  14.135 -1.0028  1.7993  0.2156
16932TIP3   OH272286   0.787   4.319  10.950  0.0353 -0.0849  0.2422
16932TIP3    H172287   0.778   4.243  11.007  0.5508 -0.2519  0.1054
16932TIP3    H272288   0.697   4.348  10.934 -0.0885  0.5930  1.9847
16933TIP3   OH272289   1.886   5.370   0.327 -0.0071 -0.1191 -0.6596
16933TIP3    H172290   1.841   5.315   0.263 -0.5190 -1.4162  0.8006
16933TIP3    H272291   1.818   5.428   0.361 -0.1653 -0.8006  0.1796
16934TIP3   OH272292   5.446   5.472   3.531  0.2369  0.1916  0.1319
16934TIP3    H172293   5.451   5.477   3.626 -2.7256  3.5502  0.2477
16934TIP3    H272294   5.506   5.540   3.500  2.1747 -1.7502 -0.5107
16935TIP3   OH272295   2.976   4.840  12.741 -0.0106  0.2433 -0.4545
16935TIP3    H172296   3.054   4.878  12.700 -0.2183  0.6043 -0.5174
16935TIP3    H272297   2.922   4.810  12.668 -0.6643  1.4444 -0.4838
16936TIP3   OH272298   0.102   5.601   5.893  0.1387 -0.0937 -0.2159
16936TIP3    H172299   0.184   5.635   5.928  0.0753  0.0857 -0.2405
16936TIP3    H272300   0.036   5.664   5.921 -0.0269 -0.3582  0.0005
16937TIP3   OH272301   2.765   4.051  14.875  0.0412 -0.1285 -0.1222
16937TIP3    H172302   2.710   4.070  14.951  0.5425 -1.6883  0.6665
16937TIP3    H272303   2.739   4.115  14.809 -1.3966  0.3385  0.8834
16938TIP3   OH272304   5.781   6.558   3.078 -0.3814 -0.4464  0.1403
16938TIP3    H172305   5.818   6.543   2.991 -0.5605 -0.2656  0.0302
16938TIP3    H272306   5.690   6.530   3.070 -0.3926 -0.4501  0.2755
16939TIP3   OH272307   0.405   4.483   5.617  0.0810 -0.3601  0.5152
16939TIP3    H172308   0.349   4.520   5.685 -0.0499  0.7662 -0.1922
16939TIP3    H272309   0.494   4.489   5.652  0.1536  1.4764  0.0294
16940TIP3   OH272310   2.434   4.330  16.565 -0.7093 -0.5570 -0.2288
16940TIP3    H172311   2.526   4.359  16.562 -1.0401  0.5620  0.0048
16940TIP3    H272312   2.419   4.290  16.479 -0.6145  1.2296 -1.1221
16941TIP3   OH272313   1.343   6.636   3.172  0.3150 -0.4485  0.2051
16941TIP3    H172314   1.279   6.623   3.242 -1.0643  3.2372 -0.2507
16941TIP3    H272315   1.385   6.720   3.193  1.7328 -0.5718 -1.9947
16942TIP3   OH272316   6.311   2.326  13.636 -0.3997 -0.1847 -0.3632
16942TIP3    H172317   6.323   2.235  13.661  2.5390  0.3558  0.4044
16942TIP3    H272318   6.378   2.342  13.569  0.3409  1.8532  0.7895
16943TIP3   OH272319   5.593   1.992  16.181 -0.0896 -0.0362  0.3964
16943TIP3    H172320   5.500   1.982  16.157  0.3267  0.1919 -1.4012
16943TIP3    H272321   5.638   1.928  16.126  0.9557  0.7577  0.3247
16944TIP3   OH272322   6.603   5.902   7.037 -0.1813  0.5303  0.8278
16944TIP3    H172323   6.630   5.993   7.051 -0.1332  1.0155 -2.1454
16944TIP3    H272324   6.513   5.909   7.004 -0.0858 -0.5101  0.3296
16945TIP3   OH272325   2.482   2.708   4.597 -0.1056  0.6791 -0.0067
16945TIP3    H172326   2.540   2.741   4.666  0.5910 -0.9669  0.2099
16945TIP3    H272327   2.440   2.631   4.636 -0.1616  0.0888 -1.2202
16946TIP3   OH272328   5.349   3.792  14.210 -1.1895  0.4879 -0.3689
16946TIP3    H172329   5.382   3.716  14.162 -0.9613  0.1424  0.3256
16946TIP3    H272330   5.419   3.813  14.273 -1.4121  1.0334 -0.3002
16947TIP3   OH272331   6.595   0.218   1.473 -0.0757 -0.1796  0.0238
16947TIP3    H172332   6.552   0.228   1.558 -0.0129 -3.1592  0.4580
16947TIP3    H272333   6.604   0.124   1.461  2.1925  0.2450 -2.1737
16948TIP3   OH272334   5.503   5.820  16.664 -0.0743 -0.2010  0.4624
16948TIP3    H172335   5.509   5.725  16.649  0.9581  0.4007 -3.4107
16948TIP3    H272336   5.420   5.845  16.623 -1.6497  0.2505  3.7500
16949TIP3   OH272337   0.370   2.734  17.088  1.1054 -0.3663  0.3400
16949TIP3    H172338   0.342   2.671  17.155  1.5688  1.0837  1.9130
16949TIP3    H272339   0.451   2.698  17.053  1.4092 -0.6210  1.2937
16950TIP3   OH272340   2.384   1.867   1.186 -0.1432  0.1572  0.1476
16950TIP3    H172341   2.437   1.927   1.239  0.0069 -0.4984  0.7510
16950TIP3    H272342   2.443   1.839   1.116  0.2503 -0.4287  0.7109
16951TIP3   OH272343   4.955   6.428   3.943 -0.0830  0.0131  0.3439
16951TIP3    H172344   4.897   6.500   3.968 -1.7184 -0.9290 -0.6398
16951TIP3    H272345   4.899   6.350   3.944  0.8245 -0.7154 -1.9291
16952TIP3   OH272346   4.451   5.058  15.328  0.2369  0.0881 -0.6434
16952TIP3    H172347   4.440   5.114  15.405  1.2877 -0.8555  0.2210
16952TIP3    H272348   4.362   5.036  15.301 -0.1954  2.2441 -1.0626
16953TIP3   OH272349   0.151   4.731  14.805 -0.0771 -0.4875  0.3956
16953TIP3    H172350   0.142   4.663  14.872  0.4317 -1.1619 -0.2209
16953TIP3    H272351   0.234   4.712  14.762 -0.5810 -0.2764 -0.6742
16954TIP3   OH272352   4.983   5.671  16.998 -0.1200  0.1207  0.1780
16954TIP3    H172353   4.973   5.760  16.966  0.8762  0.6165  1.2045
16954TIP3    H272354   4.923   5.665  17.073  1.0578  0.4897  1.1781
16955TIP3   OH272355   1.642   3.498   0.168 -0.1162  0.0261 -0.2593
16955TIP3    H172356   1.615   3.531   0.254 -1.9485  2.5257 -1.7347
16955TIP3    H272357   1.671   3.409   0.185 -0.7370  0.3637  2.9126
16956TIP3   OH272358   2.369   0.269   3.982  0.1289  0.0494 -0.0306
16956TIP3    H172359   2.273   0.273   3.985  0.1971  0.9886  1.3520
16956TIP3    H272360   2.395   0.247   4.072  1.1948 -0.7422 -0.5221
16957TIP3   OH272361   0.245   1.482  11.064 -0.0275  0.3574 -0.5459
16957TIP3    H172362   0.237   1.562  11.012  0.2192 -0.5866 -2.0524
16957TIP3    H272363   0.339   1.476  11.084 -0.0434  0.4389 -0.4474
16958TIP3   OH272364   5.320   0.497  15.176 -0.5510  0.2260 -0.3604
16958TIP3    H172365   5.402   0.516  15.221 -0.8628 -0.2034  0.4029
16958TIP3    H272366   5.336   0.522  15.085  0.6657 -0.5165 -0.3641
16959TIP3   OH272367   0.084   0.927   0.060  0.3305 -0.1311  0.1371
16959TIP3    H172368   0.128   0.850   0.023 -1.4088 -2.2060  2.2446
16959TIP3    H272369  -0.005   0.922   0.026  0.0412  0.6110  0.7860
16960TIP3   OH272370   2.671   0.407   2.786 -0.6284 -0.3977  0.1342
16960TIP3    H172371   2.589   0.360   2.770 -1.2393  1.0969 -1.3194
16960TIP3    H272372   2.645   0.499   2.794  0.8109 -0.0049  0.5116
16961TIP3   OH272373   4.105   4.179   2.675  0.0153  0.7181 -0.0757
16961TIP3    H172374   4.064   4.258   2.640 -0.2017  0.4123 -0.5090
16961TIP3    H272375   4.151   4.209   2.754  1.0866  1.5326 -0.9876
16962TIP3   OH272376   5.531   6.042   5.476 -0.2530 -0.4195  0.3313
16962TIP3    H172377   5.621   6.067   5.458 -0.0307 -1.6922 -0.3732
16962TIP3    H272378   5.531   6.013   5.567  0.0275 -0.3988  0.3351
16963TIP3   OH272379   5.380   1.518   1.284  0.6753  0.1696 -0.2479
16963TIP3    H172380   5.475   1.512   1.270  0.7428 -1.5793  0.7738
16963TIP3    H272381   5.342   1.470   1.211  0.6578 -0.5217  0.2050
16964TIP3   OH272382   1.877   0.135  11.859  0.1568 -0.1940  0.1371
16964TIP3    H172383   1.852   0.065  11.918 -1.2916 -0.2352 -0.5080
16964TIP3    H272384   1.920   0.091  11.786 -1.0594 -0.4580 -0.4310
16965TIP3   OH272385   3.087   5.067   0.339  0.2545  0.0779 -0.4235
16965TIP3    H172386   3.041   5.140   0.297  2.4624  1.2114 -0.9697
16965TIP3    H272387   3.066   5.076   0.432 -0.1205  0.9675 -0.5847
16966TIP3   OH272388   2.738   1.948  14.925  0.1232  0.6805 -0.6350
16966TIP3    H172389   2.667   1.954  14.988  0.3049 -1.5584 -0.2013
16966TIP3    H272390   2.804   2.009  14.958  0.5659 -1.0534  1.8172
16967TIP3   OH272391   3.867   1.608  16.125  0.5015 -0.0283 -0.5296
16967TIP3    H172392   3.858   1.662  16.047  1.3271 -0.6130 -1.0407
16967TIP3    H272393   3.874   1.670  16.197  2.8030  0.5927 -1.2573
16968TIP3   OH272394   6.244   4.375  14.242 -0.4911 -0.3895 -1.3158
16968TIP3    H172395   6.215   4.284  14.244  0.4476 -0.6880 -0.9268
16968TIP3    H272396   6.304   4.380  14.169 -2.6144  0.5843 -3.0549
16969TIP3   OH272397   0.839   5.515   0.859  0.7680  0.2265 -1.1207
16969TIP3    H172398   0.862   5.607   0.845 -0.2124  0.2994 -2.2781
16969TIP3    H272399   0.894   5.466   0.798 -0.7667  0.2585 -2.5328
16970TIP3   OH272400   5.916   2.874  12.131  0.2156 -0.0738 -0.8746
16970TIP3    H172401   5.911   2.968  12.151  0.2935 -0.0871 -0.7930
16970TIP3    H272402   5.941   2.833  12.214 -0.0436 -0.1897 -0.8519
16971TIP3   OH272403   3.274   5.981   5.873  0.3905 -0.1640 -0.9216
16971TIP3    H172404   3.259   5.961   5.966 -0.9206 -0.2729 -1.1510
16971TIP3    H272405   3.188   5.975   5.833  1.0440 -0.6790 -2.2709
16972TIP3   OH272406   6.338   5.081  14.787 -0.0781 -0.4994  0.0975
16972TIP3    H172407   6.379   5.165  14.765 -1.1791  0.2214  0.7437
16972TIP3    H272408   6.318   5.041  14.703  1.6331 -0.7115 -0.2272
16973TIP3   OH272409   0.515   0.714   2.886  0.7873 -0.1559  0.5225
16973TIP3    H172410   0.562   0.636   2.858 -2.1959 -1.1133 -1.9964
16973TIP3    H272411   0.524   0.775   2.813 -1.3044 -0.1267  0.2704
16974TIP3   OH272412   5.709   5.326  12.338 -0.2529 -0.2369  0.1717
16974TIP3    H172413   5.795   5.286  12.352  1.7104  3.9130  0.5211
16974TIP3    H272414   5.674   5.340  12.426 -0.3656  0.0309  0.0865
16975TIP3   OH272415   1.573   0.493  15.844 -0.3387 -0.0925  0.1906
16975TIP3    H172416   1.554   0.587  15.840  1.5147  0.2566 -1.0690
16975TIP3    H272417   1.495   0.451  15.808 -0.3595  1.0751 -1.1485
16976TIP3   OH272418   4.085   1.569  15.845  0.6164 -0.0435  0.0026
16976TIP3    H172419   3.994   1.596  15.835 -0.0390 -1.6002  1.4580
16976TIP3    H272420   4.111   1.539  15.758 -0.5553 -0.4439 -0.2192
16977TIP3   OH272421   2.780   1.528  12.940 -0.3815  0.6446  0.2631
16977TIP3    H172422   2.742   1.514  13.027  0.5662 -1.6639  0.3338
16977TIP3    H272423   2.728   1.472  12.883 -2.0028  3.3185 -0.9618
16978TIP3   OH272424   2.880   2.977  13.442 -0.7202 -0.1599 -0.1729
16978TIP3    H172425   2.820   3.050  13.427 -1.0779 -0.7232 -1.5491
16978TIP3    H272426   2.915   2.956  13.356  2.7604  1.2449  0.8241
16979TIP3   OH272427   2.613   3.549  13.235 -0.4531 -0.2234  0.3287
16979TIP3    H172428   2.653   3.617  13.181  0.5128 -1.8868 -1.1307
16979TIP3    H272429   2.525   3.581  13.253 -0.6491  0.5653 -1.8987
16980TIP3   OH272430   5.976   4.171  12.227  0.3700  0.8008 -0.2777
16980TIP3    H172431   5.927   4.144  12.305 -0.1595  0.9083 -0.5726
16980TIP3    H272432   6.008   4.089  12.190  0.9666  0.7795  0.2790
16981TIP3   OH272433   3.860   3.110  12.005  0.3070  0.7446  0.4581
16981TIP3    H172434   3.823   3.051  11.940  0.2151  0.6906  0.5600
16981TIP3    H272435   3.927   3.058  12.049  2.1367  1.5470 -1.3104
16982TIP3   OH272436   0.059   2.497   2.158 -0.1230  0.3583 -0.1376
16982TIP3    H172437   0.037   2.470   2.069  1.7379 -0.1386 -0.4557
16982TIP3    H272438   0.001   2.571   2.175 -1.6894 -0.5819 -1.1272
16983TIP3   OH272439   5.345   1.141   2.825 -0.4953  0.2895  0.5182
16983TIP3    H172440   5.264   1.110   2.785  0.1315 -0.8617  0.1248
16983TIP3    H272441   5.394   1.062   2.846  0.8773  0.9858  0.0405
16984TIP3   OH272442   5.547   1.673   3.948 -0.3389 -0.8360 -0.1614
16984TIP3    H172443   5.481   1.670   3.879 -0.0039 -0.4453 -0.4986
16984TIP3    H272444   5.578   1.763   3.949  0.2663 -1.0366 -0.0751
16985TIP3   OH272445   0.647   2.923  14.882  0.3808 -0.2359 -0.6974
16985TIP3    H172446   0.714   2.991  14.890  0.5240 -0.3517 -0.8967
16985TIP3    H272447   0.667   2.860  14.950  1.1557 -0.8466 -1.4754
16986TIP3   OH272448   4.446   1.113   0.550 -0.2404 -0.0284 -0.0304
16986TIP3    H172449   4.398   1.085   0.627 -2.1949  1.6595 -0.5850
16986TIP3    H272450   4.436   1.041   0.488 -1.1372 -0.1518  0.2508
16987TIP3   OH272451   0.744   6.414  11.348  0.0053  0.3032 -0.3517
16987TIP3    H172452   0.698   6.402  11.265 -1.8564 -1.4306  0.8885
16987TIP3    H272453   0.699   6.489  11.388 -1.2630 -0.8806  0.4947
16988TIP3   OH272454   1.194   6.582  12.523  0.1727  0.0534 -0.2237
16988TIP3    H172455   1.239   6.565  12.606 -0.5976  0.6104  0.3152
16988TIP3    H272456   1.151   6.667  12.536  0.7082  0.5200 -1.4757
16989TIP3   OH272457   0.121   5.341   2.893 -0.4960 -0.1938 -0.4214
16989TIP3    H172458   0.188   5.389   2.843  0.2755  0.0490  0.8147
16989TIP3    H272459   0.128   5.251   2.861  0.0219 -0.0534 -0.7216
16990TIP3   OH272460   1.336   0.175   1.646  0.4505 -0.6054 -0.1803
16990TIP3    H172461   1.331   0.091   1.599  0.4896 -1.0401  0.5781
16990TIP3    H272462   1.391   0.156   1.722  0.4260  0.1039  0.0142
16991TIP3   OH272463   5.769   4.230  12.942  0.0663  0.1440 -0.2470
16991TIP3    H172464   5.765   4.207  13.034 -0.6874  1.1429 -0.0247
16991TIP3    H272465   5.681   4.257  12.919  0.2811  0.0625 -1.2256
16992TIP3   OH272466   3.473   4.985  17.022 -0.1319  0.2562 -0.3676
16992TIP3    H172467   3.424   5.029  17.091  0.7184  0.0318  0.3755
16992TIP3    H272468   3.467   4.892  17.044 -0.1307  0.1602 -0.7692
16993TIP3   OH272469   1.689   3.448   3.771 -0.3605 -0.2024 -0.6489
16993TIP3    H172470   1.611   3.473   3.819  0.3946  0.7482  0.1155
16993TIP3    H272471   1.712   3.362   3.805  1.4039  1.3616  2.3537
16994TIP3   OH272472   2.235   3.624   0.441  0.8548 -0.0125 -0.1404
16994TIP3    H172473   2.254   3.575   0.361  1.2926 -0.6925  0.3807
16994TIP3    H272474   2.225   3.557   0.508  0.9818  0.5914  0.4808
16995TIP3   OH272475   4.036   6.473  12.915  0.6799  0.4120  0.2062
16995TIP3    H172476   4.009   6.383  12.932  3.5342 -0.4663  0.4257
16995TIP3    H272477   4.095   6.495  12.988 -2.4961  3.6672  1.9855
16996TIP3   OH272478   3.643   4.056  14.303  0.2056  0.3958  0.6543
16996TIP3    H172479   3.573   3.991  14.310  1.7267 -1.4247 -0.2105
16996TIP3    H272480   3.697   4.040  14.380  0.4316  0.8118  0.5791
16997TIP3   OH272481   1.212   5.718   3.923  0.5248  0.1156  0.3453
16997TIP3    H172482   1.157   5.674   3.987 -0.1817  1.3189  0.5811
16997TIP3    H272483   1.170   5.803   3.909  1.2888  0.3098 -0.8749
16998TIP3   OH272484   5.527   0.697  11.247  0.2867  0.2319  0.0849
16998TIP3    H172485   5.435   0.670  11.249 -0.0685  1.4019  2.4613
16998TIP3    H272486   5.536   0.749  11.167 -0.5467 -1.7180 -1.3049
16999TIP3   OH272487   2.146   0.510  17.283  0.2002 -0.8351 -0.0570
16999TIP3    H172488   2.114   0.492  17.372 -0.0504  0.3429  0.1016
16999TIP3    H272489   2.231   0.466  17.280 -0.4538 -2.1397  0.2569
17000TIP3   OH272490   1.011   1.417   1.665  0.0850 -0.0080 -0.7796
17000TIP3    H172491   0.932   1.375   1.632  1.2410 -1.7144 -1.4283
17000TIP3    H272492   1.017   1.388   1.756 -0.6847  1.1213 -0.3533
17001TIP3   OH272493   2.228   6.723  15.247 -0.2001 -0.1311  0.5960
17001TIP3    H172494   2.249   6.653  15.309 -1.0127  0.5760  1.6932
17001TIP3    H272495   2.296   6.789  15.261  0.9275 -0.9479 -0.8730
17002TIP3   OH272496   2.657   4.663   1.586  0.4219  0.2590 -0.1042
17002TIP3    H172497   2.604   4.619   1.519 -0.4140  0.2853  0.5367
17002TIP3    H272498   2.700   4.592   1.633 -0.6681  0.1360  0.7148
17003TIP3   OH272499   6.179   2.076   2.943  0.4923 -0.0582 -0.0081
17003TIP3    H172500   6.084   2.064   2.944  0.4453 -0.0342 -1.9939
17003TIP3    H272501   6.192   2.169   2.962  0.1609 -0.2005  0.9314
17004TIP3   OH272502   2.998   0.916  14.267 -0.2668 -0.2784  0.2145
17004TIP3    H172503   3.033   0.916  14.178 -1.4901 -1.4417 -0.2785
17004TIP3    H272504   3.024   0.831  14.303 -0.0232  0.0722  0.8809
17005TIP3   OH272505   0.656   4.800   4.549  0.1598 -0.0524 -0.1543
17005TIP3    H172506   0.624   4.822   4.637 -0.2235  0.1874 -0.3515
17005TIP3    H272507   0.577   4.782   4.499  0.2955  0.9731 -0.7609
17006TIP3   OH272508   3.304   3.643  13.582 -0.4368 -0.3553  0.0254
17006TIP3    H172509   3.327   3.550  13.577  3.8832  0.5560  0.9087
17006TIP3    H272510   3.311   3.665  13.675  2.6788  1.7139 -0.6285
17007TIP3   OH272511   2.993   5.584   1.245  0.6181  0.0693  0.5434
17007TIP3    H172512   2.951   5.499   1.262  1.2439 -0.1394  1.0708
17007TIP3    H272513   2.934   5.628   1.185  1.9483 -2.1331 -2.5175
17008TIP3   OH272514   1.187   5.352  15.725 -0.2177  0.0452 -0.4583
17008TIP3    H172515   1.111   5.328  15.777  1.5606 -1.1931  1.6820
17008TIP3    H272516   1.188   5.289  15.653 -0.5081 -0.7344  0.2191
17009TIP3   OH272517   3.897   6.009  17.103  0.3233 -0.2732 -0.3462
17009TIP3    H172518   3.891   6.105  17.102  2.0636 -0.0746  2.5628
17009TIP3    H272519   3.982   5.991  17.065  0.1881 -0.6348 -0.4736
17010TIP3   OH272520   6.473   5.148   0.708 -0.5391 -0.4233 -0.4613
17010TIP3    H172521   6.473   5.118   0.617  1.4344 -1.6161 -0.0985
17010TIP3    H272522   6.552   5.202   0.716 -0.0419 -1.3163  0.8330
17011TIP3   OH272523   5.074   3.352  12.478 -0.6348 -0.5918  0.0533
17011TIP3    H172524   5.119   3.353  12.394 -1.0882 -0.2883 -0.1877
17011TIP3    H272525   4.994   3.402  12.463 -0.5562 -0.2519  0.7548
17012TIP3   OH272526   3.506   5.965   2.601 -0.1563 -0.1249  0.5239
17012TIP3    H172527   3.414   5.980   2.579 -0.0175 -1.0900 -0.7856
17012TIP3    H272528   3.516   5.999   2.689 -1.7273  0.1731  0.5917
17013TIP3   OH272529   0.305   0.047  12.509 -0.1443 -0.0812 -0.2546
17013TIP3    H172530   0.346  -0.023  12.459 -0.3644 -0.2809 -0.1552
17013TIP3    H272531   0.377   0.103  12.536 -0.2241  1.2680 -2.7056
17014TIP3   OH272532   5.032   6.636  12.562  0.2950  0.3251  0.6521
17014TIP3    H172533   5.030   6.657  12.655  0.5855  0.7405  0.5640
17014TIP3    H272534   5.114   6.588  12.550 -0.2315 -0.6389  0.7976
17015TIP3   OH272535   4.322   6.247  13.049 -0.2590 -0.1366  0.0019
17015TIP3    H172536   4.261   6.216  12.981 -0.9081  2.7138 -0.7854
17015TIP3    H272537   4.383   6.304  13.002  0.8241 -0.1235  1.4071
17016TIP3   OH272538   5.181   2.304  12.618 -0.6742  0.6031  0.3366
17016TIP3    H172539   5.130   2.308  12.538  0.9023 -1.7623 -0.8444
17016TIP3    H272540   5.250   2.369  12.607  0.8759 -1.2547 -1.2452
17017TIP3   OH272541   2.886   6.497   2.512  0.1453  0.3332  0.5217
17017TIP3    H172542   2.929   6.568   2.559  0.7993  0.1122  0.2534
17017TIP3    H272543   2.860   6.436   2.581 -0.8288  1.0425  0.8005
17018TIP3   OH272544   6.528   6.208  15.757  0.1824  0.5163 -0.3576
17018TIP3    H172545   6.556   6.285  15.806  0.0487 -0.9275  2.0504
17018TIP3    H272546   6.437   6.227  15.733 -0.3407  0.4938  1.5353
17019TIP3   OH272547   6.345   5.823  13.584 -0.0725  0.6036 -0.0260
17019TIP3    H172548   6.262   5.801  13.625  0.8427 -0.4910  1.3035
17019TIP3    H272549   6.322   5.882  13.512 -1.8039  1.8934  1.5380
17020TIP3   OH272550   4.098   2.587  16.519 -0.1154  0.5537 -0.0531
17020TIP3    H172551   4.133   2.500  16.540  2.7386  1.3578 -1.2716
17020TIP3    H272552   4.166   2.648  16.547 -1.5496  2.3406 -0.3718
17021TIP3   OH272553   5.902   4.439   3.743 -0.4173 -0.2288 -0.3743
17021TIP3    H172554   5.962   4.424   3.670  0.2863  0.2149  0.1029
17021TIP3    H272555   5.915   4.531   3.766 -0.8322 -0.2914  0.1288
17022TIP3   OH272556   6.752   0.152   3.725 -0.4369 -0.1514 -0.5449
17022TIP3    H172557   6.817   0.197   3.672 -0.2101 -0.4084 -0.4798
17022TIP3    H272558   6.736   0.070   3.680  0.7960 -0.9973  0.5368
17023TIP3   OH272559   5.589   2.736  14.828 -0.1381 -0.4078  0.8081
17023TIP3    H172560   5.635   2.675  14.886  0.0681  0.9740  2.1373
17023TIP3    H272561   5.503   2.748  14.868 -0.0134  0.5203  0.8175
17024TIP3   OH272562   5.776   6.501  17.052 -0.2423 -0.2948 -0.0813
17024TIP3    H172563   5.862   6.459  17.044  0.1798  0.0807  2.1857
17024TIP3    H272564   5.756   6.531  16.963  0.8023 -2.6257 -1.1402
17025TIP3   OH272565   1.296   3.272  13.041 -0.5604  0.2992  0.2126
17025TIP3    H172566   1.235   3.204  13.070 -0.5144  0.0134 -0.3689
17025TIP3    H272567   1.263   3.352  13.082 -0.7736 -0.0214  0.6745
17026TIP3   OH272568   1.677   5.904  15.682  0.2486 -0.0215 -0.4674
17026TIP3    H172569   1.702   5.946  15.600  0.2685  1.2355  0.1662
17026TIP3    H272570   1.747   5.927  15.744 -0.1075 -0.3927  0.0841
17027TIP3   OH272571   4.079   0.431   5.749 -0.0990 -0.6583 -0.0057
17027TIP3    H172572   4.083   0.512   5.800 -1.0153 -1.9727  2.2577
17027TIP3    H272573   4.160   0.385   5.771 -1.4342 -2.1617  1.9613
17028TIP3   OH272574   5.958   6.140  12.859 -0.5446 -0.0722  0.0628
17028TIP3    H172575   5.866   6.133  12.833 -0.3859  1.3324 -0.9320
17028TIP3    H272576   6.006   6.144  12.777  0.1885  1.7349  0.5549
17029TIP3   OH272577   5.838   5.701   3.848 -0.3454 -0.1501 -0.3041
17029TIP3    H172578   5.923   5.688   3.889 -0.5752  0.3649  0.3369
17029TIP3    H272579   5.825   5.622   3.796 -0.7420 -1.5133  1.8052
17030TIP3   OH272580   4.524   0.706  13.735  0.4774  0.9601 -0.7675
17030TIP3    H172581   4.545   0.623  13.779  1.2770  1.2986 -0.5048
17030TIP3    H272582   4.442   0.734  13.775  0.5355  0.6157 -0.4017
17031TIP3   OH272583   1.866   6.777  17.037  0.0683  0.0654 -0.0340
17031TIP3    H172584   1.860   6.846  17.103 -0.3196 -0.0074  0.0045
17031TIP3    H272585   1.809   6.707  17.069 -0.2533  0.0964 -0.5314
17032TIP3   OH272586   4.366   0.420   5.813  0.4677 -0.5243  0.0898
17032TIP3    H172587   4.414   0.350   5.769  1.4812 -0.9725  1.8545
17032TIP3    H272588   4.414   0.500   5.792 -0.3343 -0.4412 -1.4275
17033TIP3   OH272589   6.732   5.958   4.669  0.0585 -0.1862  0.2304
17033TIP3    H172590   6.722   5.914   4.584  1.2325  0.6762 -0.3719
17033TIP3    H272591   6.791   6.031   4.651 -1.8710  1.6550  1.2000
17034TIP3   OH272592   1.860   3.919  12.042 -0.1455  0.1887  0.2741
17034TIP3    H172593   1.767   3.902  12.049  0.0972 -0.0432  3.5596
17034TIP3    H272594   1.868   4.014  12.046 -0.3053  0.2594 -1.0306
17035TIP3   OH272595   3.061   0.749   2.593 -0.2675  0.6034 -0.1030
17035TIP3    H172596   3.044   0.834   2.635 -0.4084  0.7215 -0.3941
17035TIP3    H272597   3.004   0.749   2.516 -0.3850  0.1731 -0.0154
17036TIP3   OH272598   0.736   1.856  13.388 -0.5455 -0.5845  0.2694
17036TIP3    H172599   0.756   1.902  13.307  0.6567 -0.2837  0.7317
17036TIP3    H272600   0.653   1.894  13.418  1.4907  2.8426  1.7760
17037TIP3   OH272601   0.476   0.651   3.990  0.2214 -0.0114  0.0890
17037TIP3    H172602   0.503   0.560   3.983 -0.4790 -0.0885 -1.8920
17037TIP3    H272603   0.556   0.701   3.976  0.2131 -0.2978 -1.0111
17038TIP3   OH272604   2.426   2.499   4.001  0.1867 -0.6151  0.1858
17038TIP3    H172605   2.427   2.530   3.910  0.0521 -2.5175 -0.4905
17038TIP3    H272606   2.507   2.450   4.011 -0.3451 -1.3996  0.7316
17039TIP3   OH272607   5.506   4.766   2.198  0.0176  0.1725 -0.3773
17039TIP3    H172608   5.510   4.855   2.231 -1.4469  0.0197  0.2631
17039TIP3    H272609   5.583   4.723   2.235  0.0228  0.8193  0.3743
17040TIP3   OH272610   3.306   5.243   0.768 -0.0074 -0.0122  0.6269
17040TIP3    H172611   3.365   5.318   0.765  0.2242 -0.2226 -0.1034
17040TIP3    H272612   3.248   5.254   0.693  0.2526 -0.7514  0.3114
17041TIP3   OH272613   6.768   5.956   0.047 -0.1335 -0.4155  0.0618
17041TIP3    H172614   6.856   5.973   0.082 -1.0920  1.3558  1.7658
17041TIP3    H272615   6.766   6.002  -0.037  0.0217  1.0507  0.8366
17042TIP3   OH272616   2.627   2.537  16.598 -0.2750  0.0465  0.3793
17042TIP3    H172617   2.537   2.544  16.566  0.4703  2.0192 -1.4067
17042TIP3    H272618   2.657   2.451  16.568 -0.6255  0.5828 -1.5621
17043TIP3   OH272619   6.751   0.991  13.707  0.1044  0.2578  0.0781
17043TIP3    H172620   6.824   0.939  13.673  1.1477  0.7602  1.5068
17043TIP3    H272621   6.761   1.076  13.665  0.1385  0.2295  0.0277
17044TIP3   OH272622   0.458   3.517  13.588 -0.1496 -0.0401  0.1006
17044TIP3    H172623   0.461   3.426  13.559  0.0866  0.0823 -0.2645
17044TIP3    H272624   0.427   3.565  13.511 -1.1177  0.0761  0.5539
17045TIP3   OH272625   5.834   4.777  15.184 -0.0305 -0.1144  0.2141
17045TIP3    H172626   5.880   4.710  15.235  0.8403 -0.4650 -1.0297
17045TIP3    H272627   5.874   4.859  15.212  1.5273 -0.4300 -1.0020
17046TIP3   OH272628   0.516   5.289   4.641  0.2756 -0.4462  0.3550
17046TIP3    H172629   0.442   5.342   4.669  1.1114  0.1069  1.5683
17046TIP3    H272630   0.593   5.341   4.665  1.1117  1.4525 -5.5746
17047TIP3   OH272631   6.213   5.902  14.012 -0.5385 -0.1285 -0.0894
17047TIP3    H172632   6.189   5.973  13.953  0.1361  0.5293  0.4178
17047TIP3    H272633   6.295   5.931  14.052 -0.4204 -1.0548  0.3484
17048TIP3   OH272634   6.136   0.288   1.606 -0.2806  0.3064 -0.1303
17048TIP3    H172635   6.149   0.344   1.682  0.6111  0.3771 -0.3225
17048TIP3    H272636   6.171   0.202   1.633  1.6295  0.7710 -1.0141
17049TIP3   OH272637   5.270   4.954  15.728  0.0730  0.4285 -0.3565
17049TIP3    H172638   5.342   5.015  15.714  0.2638  0.2571 -0.1298
17049TIP3    H272639   5.211   4.968  15.653  0.8884 -0.2163 -1.1248
17050TIP3   OH272640   3.865   4.018   0.119 -0.5765  0.5618  0.4191
17050TIP3    H172641   3.783   4.046   0.158 -1.4344  0.6363 -1.3999
17050TIP3    H272642   3.930   4.079   0.154 -1.3527  0.7446  1.5596
17051TIP3   OH272643   6.191   3.974  11.243  0.0822 -0.1038  0.1411
17051TIP3    H172644   6.263   3.941  11.297 -0.2765 -0.5593  0.3535
17051TIP3    H272645   6.113   3.959  11.297 -0.1799  0.2880 -0.1277
17052TIP3   OH272646   1.917   2.210   5.023  0.1936 -0.0653  0.1844
17052TIP3    H172647   1.928   2.115   5.021  0.1539 -0.0594 -0.3814
17052TIP3    H272648   1.888   2.232   4.934 -0.5640  0.3821  0.5431
17053TIP3   OH272649   3.932   6.673   1.639  0.5707  0.4449 -0.1239
17053TIP3    H172650   3.948   6.716   1.723 -0.7640 -0.0318  0.3876
17053TIP3    H272651   3.911   6.745   1.580  2.4597  0.8760 -0.3050
17054TIP3   OH272652   2.957   4.334  14.729 -0.4880  0.1974 -0.3583
17054TIP3    H172653   3.010   4.266  14.769 -1.2204  0.0039  0.2808
17054TIP3    H272654   2.975   4.413  14.781 -0.5734  0.2129 -0.3536
17055TIP3   OH272655   6.774   4.833   1.681  0.8242 -0.3846  0.2352
17055TIP3    H172656   6.808   4.817   1.593 -3.0948 -1.1656 -1.2653
17055TIP3    H272657   6.755   4.927   1.682 -1.3074 -0.7655 -0.6714
17056TIP3   OH272658   3.399   2.255   2.990  0.1230  0.9138  0.2875
17056TIP3    H172659   3.493   2.268   2.976 -0.0749 -0.6045 -2.7509
17056TIP3    H272660   3.358   2.325   2.939 -0.4659 -0.7723 -1.5951
17057TIP3   OH272661   1.248   4.623  13.482 -0.1048  0.4729  0.0307
17057TIP3    H172662   1.186   4.594  13.415  0.1762 -0.7864  0.2989
17057TIP3    H272663   1.318   4.557  13.480  1.4582  2.1027 -0.5830
17058TIP3   OH272664   3.170   1.282  11.903  0.6115 -0.3352 -0.1581
17058TIP3    H172665   3.189   1.200  11.858 -0.1838  0.0625 -1.2558
17058TIP3    H272666   3.074   1.288  11.903  0.6139 -0.0677  1.1368
17059TIP3   OH272667   1.567   6.479  15.278 -0.5508  0.3524  0.1982
17059TIP3    H172668   1.583   6.541  15.350 -2.2171  0.0989  0.8261
17059TIP3    H272669   1.586   6.393  15.317  0.7654  0.3839 -0.3644
17060TIP3   OH272670   0.361   3.706   0.014  0.1027 -0.6511  0.2468
17060TIP3    H172671   0.366   3.802   0.017  0.9378 -0.6490 -1.0055
17060TIP3    H272672   0.271   3.687  -0.011  0.1620 -0.1733 -0.3361
17061TIP3   OH272673   5.235   6.194   4.340  0.1542 -0.4326  0.0051
17061TIP3    H172674   5.314   6.159   4.381 -1.2328 -3.0993  0.5522
17061TIP3    H272675   5.257   6.202   4.248  0.4144 -3.2003 -0.2067
17062TIP3   OH272676   5.715   5.460   4.033 -0.2144 -0.0334 -0.3754
17062TIP3    H172677   5.661   5.495   3.961  0.8845  2.6984  0.0706
17062TIP3    H272678   5.803   5.456   3.997  0.4872  2.1132  1.0381
17063TIP3   OH272679   2.563   5.183  13.510 -0.1223  0.2811  0.0197
17063TIP3    H172680   2.583   5.256  13.569  1.4468 -0.3875  0.3323
17063TIP3    H272681   2.490   5.216  13.456  0.0430  1.7882  0.6720
17064TIP3   OH272682   3.182   1.048  13.962 -0.0815  0.0346 -0.1650
17064TIP3    H172683   3.240   0.994  13.908  0.4397  1.3478 -0.9573
17064TIP3    H272684   3.097   1.043  13.919 -0.8177 -2.5597  1.4546
17065TIP3   OH272685   1.001   5.396   3.474 -0.7970  0.2017 -0.0792
17065TIP3    H172686   0.911   5.364   3.474 -0.9490  0.5879 -1.0502
17065TIP3    H272687   0.993   5.490   3.462 -0.2259  0.0447 -1.8649
17066TIP3   OH272688   0.584   5.644  15.131 -0.1648 -0.1136  0.4471
17066TIP3    H172689   0.507   5.679  15.176 -0.0328  1.6476 -0.6691
17066TIP3    H272690   0.620   5.579  15.192 -2.0371 -0.3513  1.3389
17067TIP3   OH272691   4.526   0.639  11.217 -0.2713  0.9199  0.1928
17067TIP3    H172692   4.571   0.660  11.135  0.3461 -1.5731 -0.1408
17067TIP3    H272693   4.433   0.641  11.195 -0.0679 -1.1630 -0.9521
17068TIP3   OH272694   1.428   0.547   7.049  0.6338  0.2264 -0.0052
17068TIP3    H172695   1.335   0.560   7.068  1.0750  0.8285  1.8980
17068TIP3    H272696   1.448   0.611   6.981 -0.0718  0.9765  0.4862
17069TIP3   OH272697   4.193   5.461   2.134  0.6275 -0.2357  0.1508
17069TIP3    H172698   4.200   5.515   2.056  1.3822  0.1753  0.4996
17069TIP3    H272699   4.121   5.500   2.185  0.6664 -0.0244  0.0425
17070TIP3   OH272700   1.640   1.271   6.273  0.2778 -0.3298  0.0038
17070TIP3    H172701   1.648   1.187   6.318  0.4425 -0.0661  0.4628
17070TIP3    H272702   1.638   1.336   6.343  0.4993  0.0737 -0.3631
17071TIP3   OH272703   4.987   3.918  12.863  0.0472  0.5094 -0.1256
17071TIP3    H172704   4.941   3.994  12.899 -0.4827 -0.6519  1.6757
17071TIP3    H272705   5.061   3.905  12.923 -0.4232 -1.0052  0.1253
17072TIP3   OH272706   1.177   5.111  14.315  0.5095  0.2363 -0.4264
17072TIP3    H172707   1.193   5.071  14.229 -0.4542  1.2278 -1.0792
17072TIP3    H272708   1.088   5.147  14.309  1.3578  2.4926  0.1372
17073TIP3   OH272709   0.572   4.136  15.338 -0.4930 -0.0920 -0.2521
17073TIP3    H172710   0.502   4.179  15.388  0.3734  0.6166  0.3549
17073TIP3    H272711   0.653   4.170  15.376  0.1928 -1.5295 -0.4073
17074TIP3   OH272712   1.859   5.622   2.447 -0.1669  0.0791 -0.1612
17074TIP3    H172713   1.821   5.547   2.492  0.5938 -0.1172  0.1560
17074TIP3    H272714   1.941   5.590   2.411 -0.5850  0.3290 -1.3889
17075TIP3   OH272715   5.012   1.307  13.916 -0.9795  0.2787  0.1441
17075TIP3    H172716   5.042   1.392  13.947  0.9491  0.1449 -1.2691
17075TIP3    H272717   5.019   1.249  13.993  0.1276  0.8068  0.4407
17076TIP3   OH272718   3.952   5.394   1.779  0.7214 -0.0210 -0.2601
17076TIP3    H172719   3.977   5.470   1.831 -0.8843  0.8620 -0.7458
17076TIP3    H272720   3.939   5.429   1.690 -0.9913 -0.6630 -0.2775
17077TIP3   OH272721   5.614   2.034  12.177 -0.2112 -0.3768  0.1642
17077TIP3    H172722   5.543   1.995  12.125 -1.5757 -0.0573  1.7296
17077TIP3    H272723   5.694   2.001  12.137 -1.2744 -1.8526 -0.8126
17078TIP3   OH272724   0.998   0.566  15.050 -0.0337  0.7026  0.1096
17078TIP3    H172725   1.028   0.570  15.141 -0.4752 -1.0365  0.3499
17078TIP3    H272726   1.058   0.506  15.007  0.5519  2.0069 -0.9225
17079TIP3   OH272727   6.488   4.462   5.532  0.0084 -0.1827 -0.2216
17079TIP3    H172728   6.474   4.523   5.605  0.3920 -4.1049  3.3356
17079TIP3    H272729   6.582   4.465   5.516 -0.0312  0.4476 -0.3624
17080TIP3   OH272730   6.041   2.075   0.558 -0.4033 -0.5430 -0.2155
17080TIP3    H172731   5.949   2.055   0.541 -0.4039 -0.9344  0.2279
17080TIP3    H272732   6.080   2.088   0.471 -0.3764 -2.6215 -0.5354
17081TIP3   OH272733   4.540   5.712   2.558 -0.8145 -0.0775 -0.0313
17081TIP3    H172734   4.525   5.758   2.475 -0.6021  0.4870  0.2446
17081TIP3    H272735   4.521   5.620   2.538 -1.6426  0.1862 -0.4752
17082TIP3   OH272736   2.219   6.462   2.350  0.0272 -0.9122  0.1804
17082TIP3    H172737   2.291   6.410   2.314  1.1377 -0.7591  2.1435
17082TIP3    H272738   2.207   6.533   2.287  1.4438 -1.0539 -0.2607
17083TIP3   OH272739   1.896   1.723   5.328  0.5202 -0.8900  0.0972
17083TIP3    H172740   1.822   1.770   5.290  0.4862 -1.2786 -0.3136
17083TIP3    H272741   1.960   1.715   5.257  0.0783 -2.4100 -0.1522
17084TIP3   OH272742   0.199   0.144   0.737  0.1884  0.4108  0.3876
17084TIP3    H172743   0.108   0.157   0.763  0.1567 -1.2359  1.1576
17084TIP3    H272744   0.250   0.197   0.798 -0.2692  1.4428 -0.1336
17085TIP3   OH272745   1.133   6.365   5.027  0.7160 -0.4390  0.2691
17085TIP3    H172746   1.191   6.289   5.033 -2.5538 -2.9742  1.1627
17085TIP3    H272747   1.048   6.333   5.056 -1.0192  3.3407 -0.3043
17086TIP3   OH272748   4.482   0.208   4.456  0.2739  0.0618  0.2011
17086TIP3    H172749   4.474   0.304   4.451 -1.6677 -0.1040 -0.5448
17086TIP3    H272750   4.469   0.189   4.549 -0.4197  0.4521  0.1908
17087TIP3   OH272751   6.623   4.860  12.457  0.4193 -0.2744 -0.3749
17087TIP3    H172752   6.620   4.856  12.553  4.1614  1.4245 -0.0971
17087TIP3    H272753   6.568   4.935  12.434 -0.8585 -0.9652  0.4006
17088TIP3   OH272754   6.304   5.897  15.085  0.3422  0.0542  0.0690
17088TIP3    H172755   6.379   5.908  15.026  1.3749 -0.3754  1.2746
17088TIP3    H272756   6.336   5.927  15.170  0.2229 -3.1364  1.3307
17089TIP3   OH272757   6.144   5.664  11.978 -0.0078  0.0335 -0.2265
17089TIP3    H172758   6.202   5.689  11.906 -1.7246  1.4587 -1.1563
17089TIP3    H272759   6.183   5.704  12.056  0.0199  1.3301 -0.9041
17090TIP3   OH272760   6.612   0.696  16.832 -0.5588 -0.7300  0.0440
17090TIP3    H172761   6.595   0.712  16.924 -2.5936 -1.8460 -0.1003
17090TIP3    H272762   6.677   0.761  16.807 -1.0579  0.5033  1.9119
17091TIP3   OH272763   4.106   0.194  17.190  0.2265 -0.2186  0.9406
17091TIP3    H172764   4.079   0.102  17.191 -0.9928  0.0883 -1.3033
17091TIP3    H272765   4.024   0.243  17.196  0.6710  0.7238 -0.5481
17092TIP3   OH272766   3.295   5.179   6.365 -0.0237 -0.1910 -0.2057
17092TIP3    H172767   3.386   5.150   6.354 -0.1804 -0.4884 -0.7629
17092TIP3    H272768   3.289   5.205   6.456  1.0131  1.2174 -0.5225
17093TIP3   OH272769   5.845   6.598  15.215  0.4439  0.4323 -0.4828
17093TIP3    H172770   5.769   6.637  15.259  0.1912 -0.9000  0.2979
17093TIP3    H272771   5.912   6.666  15.217 -0.7727  1.6787 -1.3060
17094TIP3   OH272772   5.223   4.883   3.102  0.5859  0.4458 -0.0411
17094TIP3    H172773   5.248   4.837   3.022  0.5181  0.6190 -0.1607
17094TIP3    H272774   5.305   4.916   3.138  0.4042  2.0708 -1.0760
17095TIP3   OH272775   3.061   2.508   0.594  0.3064  0.5374 -0.2138
17095TIP3    H172776   3.088   2.529   0.684  1.8813  0.2568 -0.6068
17095TIP3    H272777   2.994   2.573   0.573 -1.6527 -0.7029  1.9255
17096TIP3   OH272778   1.058   4.013   0.004 -0.4194 -0.1203 -0.4821
17096TIP3    H172779   1.069   4.108   0.012  1.0390 -0.0588 -2.8228
17096TIP3    H272780   1.129   3.976   0.055 -1.2153  0.0185  0.7514
17097TIP3   OH272781   0.299   2.839   4.936  0.8689  0.2573 -0.3757
17097TIP3    H172782   0.394   2.834   4.922  0.6464  0.3798 -2.0934
17097TIP3    H272783   0.262   2.835   4.848 -0.8276 -1.8254  0.3849
17098TIP3   OH272784   4.995   4.175   3.853  0.1529 -0.7963  0.2715
17098TIP3    H172785   5.061   4.226   3.806 -0.4125 -0.3709 -0.0570
17098TIP3    H272786   5.025   4.084   3.843  1.2456 -0.5251  1.0070
17099TIP3   OH272787   3.276   3.749   1.863 -0.7405 -0.0494  0.6197
17099TIP3    H172788   3.271   3.670   1.917 -1.5249 -0.9222 -0.7097
17099TIP3    H272789   3.368   3.774   1.866 -0.3496 -1.4466  0.4526
17100TIP3   OH272790   6.479   4.169  13.913 -0.1112  0.3033 -0.3845
17100TIP3    H172791   6.497   4.263  13.908 -0.2901  0.4075  0.7802
17100TIP3    H272792   6.398   4.158  13.864 -1.0873  1.0612  0.9888
17101TIP3   OH272793   2.001   4.621  13.900  0.5943 -0.0172  0.2619
17101TIP3    H172794   1.944   4.626  13.824  0.8946 -0.1241  0.0264
17101TIP3    H272795   2.061   4.549  13.880 -1.1095 -1.9175  1.8268
17102TIP3   OH272796   0.664   2.283  12.096  0.4183  0.6225  0.5087
17102TIP3    H172797   0.601   2.306  12.027  2.1778 -1.4638 -1.8888
17102TIP3    H272798   0.747   2.321  12.066  1.0014  0.5336  1.9885
17103TIP3   OH272799   1.849   3.184  16.155 -0.4112 -0.3308  0.2872
17103TIP3    H172800   1.941   3.161  16.143  0.4568  3.3600 -0.6721
17103TIP3    H272801   1.849   3.244  16.230 -1.6485  1.6713 -1.2576
17104TIP3   OH272802   5.529   5.563  16.585 -0.0714  0.0290  0.0518
17104TIP3    H172803   5.508   5.490  16.644 -0.5229  1.6865  2.0008
17104TIP3    H272804   5.576   5.522  16.512  0.8042 -2.0594  1.7278
17105TIP3   OH272805   0.381   5.079  13.472  0.1675  0.1064  0.4226
17105TIP3    H172806   0.426   5.163  13.471 -0.3692  0.3859 -0.8601
17105TIP3    H272807   0.292   5.100  13.502  0.6015 -0.3036  2.0251
17106TIP3   OH272808   4.716   3.899  14.766 -0.5589  0.0952 -0.0569
17106TIP3    H172809   4.736   3.942  14.683 -0.1179  1.0903  0.5518
17106TIP3    H272810   4.634   3.852  14.750 -1.7224  2.1863 -0.3903
17107TIP3   OH272811   0.009   4.122   4.862 -0.3777  0.2720 -0.5965
17107TIP3    H172812  -0.023   4.063   4.794 -1.0359 -1.3720  1.0878
17107TIP3    H272813  -0.069   4.145   4.913  0.6392 -1.6052  1.9072
17108TIP3   OH272814   1.853   3.710   3.764  0.1990  0.0241  0.7528
17108TIP3    H172815   1.810   3.631   3.798 -0.3752 -0.7634 -1.6773
17108TIP3    H272816   1.794   3.782   3.789 -0.9331 -0.6901  0.2138
17109TIP3   OH272817   5.934   1.660   1.110 -0.0028  0.4812  0.8187
17109TIP3    H172818   5.851   1.655   1.063  1.2432 -0.3270 -1.3611
17109TIP3    H272819   5.973   1.744   1.082  0.4480  0.3108  0.9252
17110TIP3   OH272820   4.109   3.551   3.179  0.0361 -0.0375 -0.0904
17110TIP3    H172821   4.170   3.486   3.144 -0.0134  0.1674 -0.5602
17110TIP3    H272822   4.158   3.634   3.175  1.0089 -0.4261  2.8237
17111TIP3   OH272823   6.779   0.765  14.227 -0.6199 -0.2130  0.5017
17111TIP3    H172824   6.734   0.681  14.221 -0.4058 -0.4124  1.5606
17111TIP3    H272825   6.749   0.814  14.150 -0.0400 -1.5864 -0.6221
17112TIP3   OH272826   6.081   3.208   2.475  0.0207  0.2261 -0.5187
17112TIP3    H172827   6.059   3.150   2.548 -0.0050 -0.7437 -1.2888
17112TIP3    H272828   6.176   3.214   2.477  0.4262 -3.4950 -3.1476
17113TIP3   OH272829   3.112   3.100   3.770 -0.1666 -0.0942 -0.1620
17113TIP3    H172830   3.033   3.049   3.751 -0.0971 -0.1814 -0.2206
17113TIP3    H272831   3.155   3.052   3.841 -0.3771  0.1792  0.1531
17114TIP3   OH272832   6.632   4.014  16.230 -0.5791 -0.0170  0.0927
17114TIP3    H172833   6.691   4.052  16.165 -0.7458 -0.4390 -0.3092
17114TIP3    H272834   6.614   3.926  16.198 -1.5713  0.1690  0.1202
17115TIP3   OH272835   4.831   3.723   4.836  0.0613  0.0779 -0.1188
17115TIP3    H172836   4.876   3.806   4.853  0.2134 -0.3268  1.5467
17115TIP3    H272837   4.883   3.682   4.767 -0.3270  1.5993 -1.3490
17116TIP3   OH272838   5.625   6.667   6.738 -0.5252 -0.1360  0.1647
17116TIP3    H172839   5.620   6.602   6.668 -2.2483 -1.8647  1.8486
17116TIP3    H272840   5.566   6.736   6.711 -2.0616 -1.3306  0.4055
17117TIP3   OH272841   6.621   6.478   3.882  0.0044  0.1692 -0.1028
17117TIP3    H172842   6.527   6.462   3.883  0.1649 -0.8899 -0.6973
17117TIP3    H272843   6.630   6.565   3.842 -0.8027  1.0854  1.6517
17118TIP3   OH272844   6.190   4.255  17.100  0.3828  0.4307  0.4437
17118TIP3    H172845   6.206   4.207  17.019  0.0004  0.6097  0.2625
17118TIP3    H272846   6.188   4.188  17.168  0.4298  0.2530  0.2699
17119TIP3   OH272847   5.879   4.871   3.660  0.3851  0.3119 -0.2503
17119TIP3    H172848   5.845   4.954   3.693 -0.1208  0.2852 -0.7004
17119TIP3    H272849   5.800   4.820   3.639  0.6905 -0.2976  0.0692
17120TIP3   OH272850   1.781   6.413   4.095 -0.0270  0.0261  0.2526
17120TIP3    H172851   1.841   6.338   4.099  0.7464  0.6170 -0.0911
17120TIP3    H272852   1.709   6.390   4.153  0.4971 -0.7297  0.6068
17121TIP3   OH272853   2.946   6.554   3.579  0.3664  0.3459  0.3722
17121TIP3    H172854   3.040   6.568   3.569  0.9253 -2.4272  1.1860
17121TIP3    H272855   2.934   6.542   3.674 -0.6711 -0.0199  0.2023
17122TIP3   OH272856   2.596   6.195  14.929 -0.2216 -0.2540 -0.2518
17122TIP3    H172857   2.531   6.218  14.862 -0.8148  2.1252  1.0859
17122TIP3    H272858   2.643   6.120  14.891 -2.4931 -0.8613 -2.0455
17123TIP3   OH272859   3.447   4.858   1.938 -0.0773 -0.2610  0.3742
17123TIP3    H172860   3.527   4.808   1.923 -0.4518 -0.5558 -0.6436
17123TIP3    H272861   3.464   4.906   2.019  1.2566 -0.0811  0.0030
17124TIP3   OH272862   2.349   4.305   0.295  0.2229 -0.1958 -0.1294
17124TIP3    H172863   2.270   4.308   0.240 -0.4531 -0.5927  0.8106
17124TIP3    H272864   2.411   4.362   0.250  0.8403 -3.0457 -3.1001
17125TIP3   OH272865   2.562   0.329  12.110 -0.3388  0.4863 -0.7103
17125TIP3    H172866   2.564   0.322  12.206  0.2182 -0.0777 -0.7575
17125TIP3    H272867   2.508   0.406  12.093  0.8699  1.5425  0.1137
17126TIP3   OH272868   1.121   4.686  15.365  0.3999  0.3451  0.3441
17126TIP3    H172869   1.195   4.736  15.332  0.3559  0.1255 -0.0928
17126TIP3    H272870   1.054   4.694  15.298 -0.1801  1.0104  0.9968
17127TIP3   OH272871   5.290   4.680  17.054 -0.5526  0.7155 -0.0985
17127TIP3    H172872   5.263   4.745  16.989  1.3379  0.1369 -1.5218
17127TIP3    H272873   5.244   4.600  17.028  1.4088  0.0837 -1.6903
17128TIP3   OH272874   5.689   0.369  17.279 -0.4834 -0.2128  0.2729
17128TIP3    H172875   5.767   0.317  17.297 -1.2554 -1.2611  0.6048
17128TIP3    H272876   5.616   0.315  17.308 -1.4703 -0.0289 -1.7672
17129TIP3   OH272877   2.589   6.130  14.581 -0.0740 -0.2587  0.8077
17129TIP3    H172878   2.517   6.117  14.520 -0.7012  1.3973  1.1611
17129TIP3    H272879   2.632   6.210  14.550  1.4075 -1.0182  0.8142
17130TIP3   OH272880   2.441   1.750  15.463  0.0022  0.6734  0.4058
17130TIP3    H172881   2.432   1.754  15.559  1.8595  0.4543  0.6265
17130TIP3    H272882   2.487   1.667  15.448 -1.0492  0.2970 -0.7542
17131TIP3   OH272883   5.458   6.358  15.283  0.2953  0.8643  0.6747
17131TIP3    H172884   5.543   6.356  15.238 -0.4629  1.2989 -0.8199
17131TIP3    H272885   5.396   6.325  15.217 -0.3663 -1.7631  2.5189
17132TIP3   OH272886   5.799   3.591   3.508 -1.0746 -0.2304  0.0534
17132TIP3    H172887   5.742   3.658   3.546  0.6073  0.6638  1.0470
17132TIP3    H272888   5.739   3.529   3.467 -2.8172  0.2432  1.8171
17133TIP3   OH272889   3.536   4.458   0.225 -0.0504  0.0348 -0.0204
17133TIP3    H172890   3.569   4.466   0.314 -1.5341  1.5272  0.4300
17133TIP3    H272891   3.465   4.394   0.231  0.4718 -0.5848 -0.3310
17134TIP3   OH272892   6.569   5.997  11.393  0.2852  0.3014 -0.0336
17134TIP3    H172893   6.538   5.950  11.315  0.8904 -0.2319  0.0444
17134TIP3    H272894   6.622   6.069  11.358 -1.1637  1.3296 -0.1750
17135TIP3   OH272895   1.907   3.147   5.485  0.2540 -0.4567  0.2510
17135TIP3    H172896   1.856   3.195   5.551 -0.8278 -0.6538 -0.4418
17135TIP3    H272897   1.953   3.080   5.536 -1.3776 -1.2727  0.6821
17136TIP3   OH272898   6.800   4.182  11.967 -0.8599 -0.4530  0.0192
17136TIP3    H172899   6.827   4.265  11.928 -0.1372 -0.0253  1.3920
17136TIP3    H272900   6.855   4.116  11.924  0.3917  0.0863  0.7552
17137TIP3   OH272901   6.799   3.084   1.941  0.3860  0.3960 -0.1635
17137TIP3    H172902   6.805   3.179   1.927  0.9310  0.1552 -1.6572
17137TIP3    H272903   6.791   3.048   1.853 -1.3212 -0.8469  0.4848
17138TIP3   OH272904   5.085   2.789  14.566  0.0461 -0.6363  0.4628
17138TIP3    H172905   5.019   2.722  14.587  0.4221 -1.0702  0.2890
17138TIP3    H272906   5.140   2.794  14.644  0.3870 -0.9813  0.2529
17139TIP3   OH272907   1.497   3.017  15.145  0.1270  0.0216 -0.1195
17139TIP3    H172908   1.499   2.956  15.219  2.2440  1.1522  0.7856
17139TIP3    H272909   1.442   3.089  15.174  0.2220  0.0443  0.0014
17140TIP3   OH272910   5.817   2.820  13.924 -0.0970 -0.4716 -0.2797
17140TIP3    H172911   5.752   2.775  13.870  0.7981 -2.1550 -0.0078
17140TIP3    H272912   5.853   2.750  13.980  0.1295  0.9170  1.3510
17141TIP3   OH272913   3.018   2.480   2.938  0.0562 -0.4805 -0.3332
17141TIP3    H172914   3.011   2.575   2.934  0.4714 -0.4929 -1.3082
17141TIP3    H272915   3.087   2.458   2.876 -0.0414 -1.4199 -0.1150
17142TIP3   OH272916   5.069   4.838  16.416 -0.3305  0.2809 -0.2462
17142TIP3    H172917   4.995   4.843  16.477  0.2621  0.7617  0.4424
17142TIP3    H272918   5.115   4.758  16.440  0.7385  1.2169  0.9248
17143TIP3   OH272919   6.158   2.719   2.375  0.5352  0.8891  0.0656
17143TIP3    H172920   6.147   2.792   2.314  0.6908  0.9439  0.1040
17143TIP3    H272921   6.123   2.643   2.327 -1.4911  1.3258  0.7764
17144TIP3   OH272922   3.066   3.189   3.502 -0.0848 -0.3145  0.1880
17144TIP3    H172923   3.138   3.128   3.488  0.9924  0.8800  0.3889
17144TIP3    H272924   3.046   3.182   3.595  0.2405 -0.1550  0.2719
17145TIP3   OH272925   0.690   2.199  12.763 -0.1403  0.2084  0.6146
17145TIP3    H172926   0.626   2.132  12.738 -0.4636 -0.0362  2.0891
17145TIP3    H272927   0.687   2.262  12.691  0.3766 -1.4792 -0.9230
17146TIP3   OH272928   2.294   4.926  12.113  0.6621  0.3897  0.2816
17146TIP3    H172929   2.362   4.858  12.114  0.2643 -0.0294 -0.5028
17146TIP3    H272930   2.248   4.914  12.197 -0.1786 -1.1140 -0.3643
17147TIP3   OH272931   6.449   1.508  10.360 -0.4555  0.2867  0.0471
17147TIP3    H172932   6.429   1.431  10.306  1.4966  0.1403 -0.5087
17147TIP3    H272933   6.538   1.531  10.336 -0.6577  2.1076  0.9842
17148TIP3   OH272934   3.699   6.608   2.801 -0.6523  0.0098 -0.0267
17148TIP3    H172935   3.702   6.512   2.808  1.0985  0.0874  0.5549
17148TIP3    H272936   3.786   6.636   2.828 -1.4369  1.8318  0.6674
17149TIP3   OH272937   6.659   5.086   5.529  0.1054  0.3157  0.0731
17149TIP3    H172938   6.738   5.043   5.498 -0.4337 -0.2573 -0.5106
17149TIP3    H272939   6.588   5.047   5.478 -0.6009  0.5355  0.8723
17150TIP3   OH272940   4.494   3.832   4.174 -0.2503  0.2435  0.1318
17150TIP3    H172941   4.444   3.860   4.250 -1.8209  1.0244 -1.1652
17150TIP3    H272942   4.582   3.816   4.208 -1.0786 -0.0172  2.2104
17151TIP3   OH272943   1.809   3.633  12.095 -0.0166  0.2258  0.2397
17151TIP3    H172944   1.842   3.697  12.031 -1.4810 -0.9013 -1.6747
17151TIP3    H272945   1.724   3.668  12.121 -0.9006 -1.0006 -0.9412
17152TIP3   OH272946   6.073   0.251  15.049 -0.3668 -0.8794 -0.1414
17152TIP3    H172947   5.982   0.283  15.050  0.2537  1.0342 -0.9537
17152TIP3    H272948   6.125   0.331  15.049  1.2894 -1.9181 -1.9914
17153TIP3   OH272949   3.786   0.367   5.170 -0.3187  0.5728 -0.2026
17153TIP3    H172950   3.767   0.447   5.220 -1.1406  0.0925  0.2594
17153TIP3    H272951   3.875   0.343   5.197 -0.3323  0.9396  0.1794
17154TIP3   OH272952   1.026   6.017   0.203 -0.5122  0.0335  0.2400
17154TIP3    H172953   0.934   6.002   0.180 -0.9197 -0.1545  1.9086
17154TIP3    H272954   1.049   5.943   0.258  0.3125  0.6435  0.7260
17155TIP3   OH272955   1.632   4.099   0.166 -0.1561  0.2376 -0.2951
17155TIP3    H172956   1.613   4.005   0.166  0.5730  0.0867 -0.7180
17155TIP3    H272957   1.547   4.140   0.151 -0.4353 -0.3645 -0.3871
17156TIP3   OH272958   3.692   5.776   1.782  0.0789  0.3924  0.0301
17156TIP3    H172959   3.771   5.728   1.806 -0.4891 -1.2343 -1.2646
17156TIP3    H272960   3.724   5.856   1.740  1.0496 -0.1283 -0.2456
17157TIP3   OH272961   4.042   0.756  11.677 -0.1481 -0.3324  0.9756
17157TIP3    H172962   4.012   0.823  11.615  0.4946  2.8563  3.8983
17157TIP3    H272963   3.963   0.728  11.723 -0.1784 -0.2139  0.9957
17158TIP3   OH272964   5.534   3.936  10.609 -0.0966  0.2438  0.1215
17158TIP3    H172965   5.509   3.930  10.701  0.6157  0.0264  0.3025
17158TIP3    H272966   5.630   3.931  10.609 -0.0905  0.2089 -0.6318
17159TIP3   OH272967   4.132   2.792  16.777  0.8040 -0.2600 -0.4438
17159TIP3    H172968   4.219   2.822  16.802  1.3542 -1.5964 -0.6777
17159TIP3    H272969   4.099   2.747  16.854 -0.0231  0.9580 -0.0791
17160TIP3   OH272970   6.156   0.156  14.371  0.4218  0.4039 -0.3207
17160TIP3    H172971   6.251   0.154  14.359  0.4097  0.3533 -0.4095
17160TIP3    H272972   6.121   0.159  14.282  0.3446  0.6635 -0.2812
17161TIP3   OH272973   4.315   5.942  13.120 -0.4039  0.4704 -0.2731
17161TIP3    H172974   4.300   5.859  13.166  1.8473  0.8174  1.1563
17161TIP3    H272975   4.249   6.002  13.157 -0.3789  0.0127  0.5352
17162TIP3   OH272976   1.762   4.504  14.399 -0.0365 -0.1058 -0.5805
17162TIP3    H172977   1.737   4.550  14.318  1.9481  0.2942 -0.9980
17162TIP3    H272978   1.790   4.573  14.458 -1.0187 -0.4470  0.2929
17163TIP3   OH272979   3.422   5.634   3.728 -0.0849 -0.4236  0.1871
17163TIP3    H172980   3.423   5.619   3.823 -0.4397  0.5880  0.3612
17163TIP3    H272981   3.422   5.730   3.720  1.5462 -0.4912 -0.8505
17164TIP3   OH272982   2.642   5.188  14.524 -0.4223  0.3122 -0.4031
17164TIP3    H172983   2.604   5.274  14.542 -1.2991 -0.7048  2.8340
17164TIP3    H272984   2.736   5.201  14.532 -0.5417  0.9880 -0.0705
17165TIP3   OH272985   3.557   5.575   0.260 -0.5773 -0.0071  0.0575
17165TIP3    H172986   3.567   5.648   0.199 -0.1674  1.3312  1.6595
17165TIP3    H272987   3.508   5.612   0.333 -1.4042 -1.6814  0.3617
17166TIP3   OH272988   0.597   1.760   4.495 -0.0402 -0.0780  0.6629
17166TIP3    H172989   0.576   1.817   4.422  0.3727 -1.1974 -0.3535
17166TIP3    H272990   0.576   1.811   4.573 -1.4641  0.7593 -0.2438
17167TIP3   OH272991   0.062   2.463  16.206 -0.0893 -0.1921 -0.1190
17167TIP3    H172992   0.034   2.393  16.265 -0.5334  0.4918  0.4852
17167TIP3    H272993   0.111   2.523  16.262 -2.7069  1.7967  0.0928
17168TIP3   OH272994   3.078   4.179   0.124 -0.6444 -0.0931 -0.0709
17168TIP3    H172995   3.067   4.249   0.189  1.4323  0.1513  0.0310
17168TIP3    H272996   3.006   4.119   0.141 -0.8594  0.6356  1.6230
17169TIP3   OH272997   2.313   6.006  12.231 -0.6937  0.6011  0.3544
17169TIP3    H172998   2.244   5.995  12.297  0.8928 -1.1549  1.7529
17169TIP3    H272999   2.301   5.932  12.171  0.7474 -0.4575  1.3396
17170TIP3   OH273000   5.577   2.735  14.543 -0.2366 -0.5455  0.0036
17170TIP3    H173001   5.556   2.724  14.636 -0.3496  2.1575  0.3526
17170TIP3    H273002   5.670   2.757  14.541 -0.4349  0.2792 -0.4370
17171TIP3   OH273003   0.768   5.978   4.151 -0.2947  0.1453 -0.0550
17171TIP3    H173004   0.726   5.898   4.184 -1.0305  1.5840  2.6012
17171TIP3    H273005   0.847   5.987   4.204 -0.8614  1.8429  0.5240
17172TIP3   OH273006   3.838   0.292   6.026  0.2234  1.1127  0.3280
17172TIP3    H173007   3.829   0.224   6.094 -0.1722  0.0430 -0.7701
17172TIP3    H273008   3.931   0.315   6.028  0.7606 -0.8559 -0.5724
17173TIP3   OH273009   6.357   2.385  11.937 -0.6006 -0.0022 -0.5545
17173TIP3    H173010   6.437   2.335  11.924 -0.8597 -0.4291 -0.5043
17173TIP3    H273011   6.287   2.320  11.940 -0.6840  0.1543  1.8422
17174TIP3   OH273012   2.684   4.431  14.239 -0.0054 -0.2564  0.1203
17174TIP3    H173013   2.711   4.498  14.303  1.0863 -1.5451  1.0450
17174TIP3    H273014   2.600   4.399  14.271  0.0620 -0.1899  0.3650
17175TIP3   OH273015   1.348   5.268  15.959  0.2851  0.1782 -0.0882
17175TIP3    H173016   1.371   5.354  15.994 -2.1733  1.4295 -1.3746
17175TIP3    H273017   1.287   5.287  15.888 -2.8936 -2.7571  1.7124
17176TIP3   OH273018   0.873   2.645  11.987  0.2770 -0.4908 -0.4720
17176TIP3    H173019   0.785   2.619  11.961 -0.8123  3.1414 -0.6892
17176TIP3    H273020   0.869   2.741  11.996  4.0204 -0.2873  0.1573
17177TIP3   OH273021   6.173   5.570  14.520  0.3375  0.3306  0.1342
17177TIP3    H173022   6.242   5.509  14.493  0.0286  1.0123 -2.3284
17177TIP3    H273023   6.215   5.628  14.583  1.5791 -0.2568 -0.1434
17178TIP3   OH273024   0.136   1.358   5.739  0.3994 -0.7049 -0.1184
17178TIP3    H173025   0.171   1.431   5.688  0.1501 -0.5867 -0.1224
17178TIP3    H273026   0.055   1.392   5.776  0.2207 -1.0180 -0.2173
17179TIP3   OH273027   4.037   3.346   4.479  0.2858 -0.0263  0.1287
17179TIP3    H173028   4.097   3.319   4.409  0.7106  0.0082  0.4814
17179TIP3    H273029   3.971   3.399   4.434  1.1076  0.8145 -0.0919
17180TIP3   OH273030   0.292   3.454   2.375 -0.4836  0.0952  0.0611
17180TIP3    H173031   0.370   3.509   2.381  0.0522 -0.7511  0.9037
17180TIP3    H273032   0.235   3.486   2.445 -0.7527  0.4944 -0.3412
17181TIP3   OH273033   0.081   0.042   2.499 -0.2385 -0.2639 -0.7877
17181TIP3    H173034   0.119   0.102   2.435  0.4071  0.0415 -0.1248
17181TIP3    H273035   0.001   0.010   2.458 -1.4204  2.2501 -0.5095
17182TIP3   OH273036   3.896   4.298   4.350 -0.1743 -0.5909  0.0402
17182TIP3    H173037   3.920   4.378   4.397 -0.4283 -0.3311 -0.2728
17182TIP3    H273038   3.934   4.227   4.403  0.7320 -0.2258 -0.1206
17183TIP3   OH273039   1.508   5.681   1.534 -0.7044  0.2734 -0.2570
17183TIP3    H173040   1.596   5.644   1.522 -0.0338  0.7845  2.6196
17183TIP3    H273041   1.459   5.611   1.578 -1.9911 -0.2685 -2.4668
17184TIP3   OH273042   3.479   3.650   4.336 -0.4130  0.2893 -0.0642
17184TIP3    H173043   3.422   3.582   4.300 -0.7340  1.0791 -1.0724
17184TIP3    H273044   3.452   3.730   4.291  1.2604  0.7298 -0.3225
17185TIP3   OH273045   1.988   1.904   5.850  0.0008  0.1080  0.5061
17185TIP3    H173046   1.967   1.860   5.768 -0.1635 -0.2344  0.7330
17185TIP3    H273047   1.918   1.968   5.861 -1.0125 -1.1487  1.3488
17186TIP3   OH273048   6.091   0.015   3.960  0.6604 -0.1960  0.1293
17186TIP3    H173049   6.181  -0.006   3.985  0.4374 -0.4753  0.7126
17186TIP3    H273050   6.050   0.045   4.041  1.1131  3.0081 -0.7875
17187TIP3   OH273051   5.766   3.939  11.642 -0.0430 -0.4721  0.2261
17187TIP3    H173052   5.793   3.849  11.626  1.3484 -0.1854  0.8416
17187TIP3    H273053   5.695   3.954  11.581  0.0457 -1.8297 -0.2336
17188TIP3   OH273054   2.223   0.712  12.761 -0.3093  0.7538 -0.5253
17188TIP3    H173055   2.160   0.642  12.740 -1.1507  1.7595 -1.4065
17188TIP3    H273056   2.239   0.755  12.677 -0.9605  2.5678  0.2591
17189TIP3   OH273057   6.302   5.162  16.642  0.2985 -0.3158 -0.2342
17189TIP3    H173058   6.339   5.074  16.635 -1.9395 -1.2502 -0.6464
17189TIP3    H273059   6.228   5.162  16.581 -0.5485  1.4064  0.7599
17190TIP3   OH273060   1.291   1.392  10.917 -0.3082  0.1014 -0.2701
17190TIP3    H173061   1.225   1.460  10.908  1.2402  1.3517 -2.6961
17190TIP3    H273062   1.366   1.437  10.958 -0.2730 -0.8409  0.7232
17191TIP3   OH273063   1.981   5.217  16.396  0.5005  0.5507  0.0206
17191TIP3    H173064   2.076   5.225  16.385  0.5474  3.0361  1.8696
17191TIP3    H273065   1.968   5.129  16.433  2.1700  0.6463  0.8507
17192TIP3   OH273066   3.404   4.487  12.094  0.8266 -0.3549 -0.0025
17192TIP3    H173067   3.452   4.464  12.015  1.7836  0.2741  0.3902
17192TIP3    H273068   3.444   4.568  12.124 -0.4489  0.1543  0.3665
17193TIP3   OH273069   2.265   6.637   3.083 -0.5896 -0.2922 -0.4280
17193TIP3    H173070   2.181   6.630   3.129 -0.2139  0.3563  0.3703
17193TIP3    H273071   2.252   6.706   3.018 -1.3484 -1.7052 -1.8230
17194TIP3   OH273072   5.005   4.010   0.843 -0.5321  0.3080 -0.4601
17194TIP3    H173073   4.985   4.092   0.889  0.1582 -0.1651  0.6966
17194TIP3    H273074   4.943   3.947   0.879  1.3494 -0.5580  1.3246
17195TIP3   OH273075   2.169   3.699  11.436  0.1323 -0.0019  0.1715
17195TIP3    H173076   2.247   3.708  11.381  1.8554 -2.0459  2.1786
17195TIP3    H273077   2.127   3.785  11.433  2.0039  0.8864 -1.6192
17196TIP3   OH273078   6.445   3.978   5.897 -0.1829  0.4436  0.0179
17196TIP3    H173079   6.455   4.073   5.908  2.6617 -0.0293  2.1112
17196TIP3    H273080   6.533   3.946   5.879 -1.5659 -1.4961 -3.8627
17197TIP3   OH273081   1.398   3.501   0.798  1.0795 -0.2291  0.2487
17197TIP3    H173082   1.304   3.494   0.781  1.3468 -1.0806 -0.9939
17197TIP3    H273083   1.422   3.588   0.764  0.7538 -0.0212  0.5456
17198TIP3   OH273084   2.474   2.382  12.745  0.4044 -0.1433  0.3497
17198TIP3    H173085   2.412   2.453  12.725  1.0365  0.3447  0.1223
17198TIP3    H273086   2.419   2.304  12.752 -0.3306  0.4137  0.8529
17199TIP3   OH273087   3.161   1.943  16.609  0.4153 -0.0589  0.3631
17199TIP3    H173088   3.208   1.960  16.691  0.6918  0.2497  0.1396
17199TIP3    H273089   3.117   2.026  16.589  0.0242 -0.2527  0.4050
17200TIP3   OH273090   5.682   1.035  11.718 -0.2661 -0.0004 -0.1195
17200TIP3    H173091   5.660   1.123  11.689 -0.2214 -0.4410 -1.5531
17200TIP3    H273092   5.625   0.978  11.666  1.9608 -0.9817 -1.5864
17201TIP3   OH273093   3.118   4.280  13.729 -0.0708  0.3900 -0.1519
17201TIP3    H173094   3.025   4.297  13.711 -0.3624 -1.5815 -0.5881
17201TIP3    H273095   3.154   4.253  13.644  0.2414 -1.7211  0.6455
17202TIP3   OH273096   4.211   0.979  10.961 -0.1928 -0.4120 -0.2529
17202TIP3    H173097   4.245   0.979  11.051  0.2900 -0.0728 -0.4295
17202TIP3    H273098   4.117   0.992  10.970  0.0149  0.8272  0.1464
17203TIP3   OH273099   5.188   5.782  11.495 -0.1047 -0.6732 -0.4188
17203TIP3    H173100   5.228   5.777  11.409  0.0891 -1.9114 -0.2611
17203TIP3    H273101   5.261   5.796  11.555 -0.1798 -0.3771 -0.3960
17204TIP3   OH273102   3.387   4.613   3.389  0.4428  0.1186  0.1369
17204TIP3    H173103   3.323   4.667   3.436  2.1022  1.2878  1.1224
17204TIP3    H273104   3.446   4.581   3.457  2.5235  1.3490 -1.0391
17205TIP3   OH273105   3.872   2.966  14.466 -0.1868 -0.2999  0.2192
17205TIP3    H173106   3.820   2.902  14.417  0.4790 -0.0587 -0.8295
17205TIP3    H273107   3.809   3.011  14.522 -1.1889  0.2614 -1.3195
17206TIP3   OH273108   6.485   2.585   5.067 -0.1760  0.1499  0.1182
17206TIP3    H173109   6.477   2.496   5.031  0.7614 -0.0330  0.3374
17206TIP3    H273110   6.546   2.575   5.140 -2.0763  0.5190  1.7641
17207TIP3   OH273111   3.467   5.794  10.913 -0.1737 -0.0073  0.2524
17207TIP3    H173112   3.523   5.716  10.918  1.2405  0.8511 -1.5654
17207TIP3    H273113   3.407   5.775  10.840 -0.7332  0.0420  0.6975
17208TIP3   OH273114   5.219   0.132   5.262  0.2992  0.0772 -0.9608
17208TIP3    H173115   5.287   0.199   5.262  0.9744 -0.5978 -0.0498
17208TIP3    H273116   5.224   0.092   5.349 -2.4812  1.2347 -0.2165
17209TIP3   OH273117   6.426   2.888   5.858  0.2192  0.3508 -0.0382
17209TIP3    H173118   6.354   2.877   5.919  0.3488  0.3280  0.1114
17209TIP3    H273119   6.396   2.846   5.777  0.1273  0.2044  0.0726
17210TIP3   OH273120   3.558   5.281   1.057 -0.6721  0.7702  0.0007
17210TIP3    H173121   3.510   5.208   1.019  1.2684  0.8379 -2.7876
17210TIP3    H273122   3.620   5.240   1.117  0.9454 -0.0447 -2.1285
17211TIP3   OH273123   3.386   3.179  15.871 -0.3177  0.0298  0.2233
17211TIP3    H173124   3.334   3.254  15.842  0.7800 -0.0947 -2.2408
17211TIP3    H273125   3.418   3.140  15.790  1.3115 -1.5394  1.5809
17212TIP3   OH273126   6.803   4.105   0.554  0.2403 -0.3902 -0.1101
17212TIP3    H173127   6.861   4.170   0.594  1.1099 -2.3005  1.8080
17212TIP3    H273128   6.717   4.122   0.592  0.6195 -0.8192  0.9508
17213TIP3   OH273129   4.502   4.491  12.385  0.3625  0.4214  0.3762
17213TIP3    H173130   4.461   4.568  12.426 -0.2830 -0.2791  1.0624
17213TIP3    H273131   4.441   4.420  12.402 -0.1432  0.1739 -2.1683
17214TIP3   OH273132   3.308   6.146   5.272 -0.2065 -0.1255  0.1844
17214TIP3    H173133   3.384   6.168   5.218  0.1127  0.6855  0.9482
17214TIP3    H273134   3.262   6.078   5.223  0.3795  0.2125 -0.8378
17215TIP3   OH273135   5.495   2.173   2.126  0.3010 -0.2118  0.3966
17215TIP3    H173136   5.521   2.082   2.137 -0.3028 -0.4121  0.2006
17215TIP3    H273137   5.416   2.169   2.071  0.8202  0.4954 -0.4109
17216TIP3   OH273138   4.952   0.704  11.118 -0.2608  0.6204  0.8001
17216TIP3    H173139   4.915   0.667  11.197 -1.3732 -1.3667 -0.6027
17216TIP3    H273140   5.044   0.680  11.121  0.0679  1.9329  2.2222
17217TIP3   OH273141   1.587   2.945   0.907  0.9071  0.6196  0.2064
17217TIP3    H173142   1.611   3.014   0.969  0.7594 -0.4076  1.4176
17217TIP3    H273143   1.671   2.918   0.869  1.0261  1.0641  0.1424
17218TIP3   OH273144   1.600   3.792  13.291 -0.0941  0.1094  0.3477
17218TIP3    H173145   1.555   3.775  13.374 -1.7837  0.7269 -0.4193
17218TIP3    H273146   1.656   3.868  13.310  0.5105 -0.5583  1.2676
17219TIP3   OH273147   4.741   0.535  11.980  0.5259  0.0660 -0.6137
17219TIP3    H173148   4.707   0.623  11.961  0.9517  0.6498  1.2101
17219TIP3    H273149   4.669   0.476  11.960  0.6395  0.7127 -3.0439
17220TIP3   OH273150   6.372   6.545  13.282 -0.4091 -0.0084  0.8032
17220TIP3    H173151   6.413   6.518  13.364  0.2021 -2.1747 -0.1842
17220TIP3    H273152   6.372   6.466  13.228 -0.1940  1.5362 -1.5318
17221TIP3   OH273153   3.851   4.557  16.427 -0.1225  0.0211 -0.2667
17221TIP3    H173154   3.815   4.645  16.418  0.2274  0.3899  1.7244
17221TIP3    H273155   3.945   4.567  16.413  0.3104  0.4635  2.6710
17222TIP3   OH273156   3.474   2.928   0.485 -0.1937 -0.0708  0.0487
17222TIP3    H173157   3.414   2.869   0.531 -0.8308  1.3077  0.9958
17222TIP3    H273158   3.420   2.970   0.419 -0.3124  1.2700  0.9863
17223TIP3   OH273159   1.625   6.062   2.534 -0.3168 -0.2748 -0.3441
17223TIP3    H173160   1.639   5.980   2.487 -1.3054 -0.4974 -0.2755
17223TIP3    H273161   1.564   6.111   2.479  0.0974  0.3266 -0.2767
17224TIP3   OH273162   5.555   2.519  13.486  0.5636  0.0498  0.1375
17224TIP3    H173163   5.554   2.527  13.582 -1.3206 -0.4068  0.1735
17224TIP3    H273164   5.582   2.429  13.471  0.5022  0.0105  0.2555
17225TIP3   OH273165   0.435   5.662  16.635 -0.2207 -0.1546  0.0933
17225TIP3    H173166   0.452   5.756  16.635 -0.2531 -0.1061 -2.0065
17225TIP3    H273167   0.411   5.641  16.725 -1.9194  2.1685  0.2259
17226TIP3   OH273168   0.563   3.245   5.408  0.0011 -0.2155  0.0238
17226TIP3    H173169   0.520   3.245   5.322  1.4542  0.7451 -0.7186
17226TIP3    H273170   0.506   3.299   5.463 -0.4511 -0.0652 -0.5758
17227TIP3   OH273171   0.596   4.978   4.789  0.2000 -0.0241 -0.1120
17227TIP3    H173172   0.649   5.045   4.831  0.0420 -0.2254  0.4132
17227TIP3    H273173   0.550   4.935   4.861 -0.0580 -0.3846 -0.4878
17228TIP3   OH273174   5.660   4.370  16.858  0.3619  0.1140 -0.5519
17228TIP3    H173175   5.715   4.424  16.801  0.7535 -1.1488 -1.3950
17228TIP3    H273176   5.671   4.281  16.825  1.1780 -0.7654  1.9724
17229TIP3   OH273177   4.167   5.231  15.095  0.5686 -0.1700 -0.1523
17229TIP3    H173178   4.091   5.241  15.152  0.0191 -1.2525 -0.6855
17229TIP3    H273179   4.193   5.321  15.074 -1.4200  0.1988 -1.0994
17230TIP3   OH273180   3.683   3.336   0.248  0.1391 -0.0940 -0.6732
17230TIP3    H173181   3.722   3.293   0.324 -2.5676  0.2085  0.9753
17230TIP3    H273182   3.683   3.269   0.179 -0.6053 -1.5272  0.6963
17231TIP3   OH273183   1.041   1.805   0.480  0.1556  0.0098 -0.5306
17231TIP3    H173184   1.032   1.715   0.513 -0.0191 -0.2604 -1.2908
17231TIP3    H273185   1.098   1.797   0.404  0.8962  0.6879 -0.0541
17232TIP3   OH273186   1.328   5.050   0.906  0.0040 -0.1986  0.2873
17232TIP3    H173187   1.417   5.014   0.918 -0.0762 -1.6594 -3.1557
17232TIP3    H273188   1.335   5.140   0.939  3.3617  0.4137 -1.7778
17233TIP3   OH273189   5.464   1.297   2.189 -0.0334  0.0282 -0.5118
17233TIP3    H173190   5.401   1.360   2.153 -1.0187 -0.0627  1.0231
17233TIP3    H273191   5.410   1.232   2.234  1.2332  0.7556  2.1084
17234TIP3   OH273192   3.021   6.657   2.919  0.1246 -0.2458  0.6073
17234TIP3    H173193   3.095   6.654   2.859  0.1185 -0.7452  0.6280
17234TIP3    H273194   2.993   6.749   2.917 -1.1446 -0.6348 -1.6873
17235TIP3   OH273195   1.878   3.247   1.252  0.8042 -0.4747 -0.1760
17235TIP3    H173196   1.828   3.168   1.229  0.3127 -0.5148  0.9822
17235TIP3    H273197   1.825   3.289   1.319  1.1703  0.7451 -0.6400
17236TIP3   OH273198   6.726   0.382   2.334 -0.3005  0.3854  0.6519
17236TIP3    H173199   6.739   0.475   2.349  1.2657  0.2685  0.1234
17236TIP3    H273200   6.668   0.376   2.259  2.5008  0.9520 -1.6304
17237TIP3   OH273201   4.962   4.215  14.447  0.2078 -0.2709  0.5707
17237TIP3    H173202   5.028   4.187  14.511 -1.4352 -3.0158  1.1348
17237TIP3    H273203   4.898   4.144  14.445 -1.2748  1.0503 -2.0630
17238TIP3   OH273204   5.736   1.654   0.450  0.2513 -0.5392 -0.8019
17238TIP3    H173205   5.686   1.584   0.491  0.5961 -1.3491 -1.7432
17238TIP3    H273206   5.784   1.611   0.380  0.3127  0.6841 -1.5206
17239TIP3   OH273207   3.964   5.919  15.549  0.2878  0.2749 -0.0354
17239TIP3    H173208   4.048   5.963  15.533  0.4102  0.3297  0.7110
17239TIP3    H273209   3.920   5.920  15.465  0.7670  0.8326 -0.2837
17240TIP3   OH273210   0.546   4.939  14.517 -0.1074  0.2358  0.1870
17240TIP3    H173211   0.456   4.954  14.492  0.0717 -0.5679 -0.9626
17240TIP3    H273212   0.595   4.940  14.435  0.6185 -1.4584  0.5691
17241TIP3   OH273213   1.076   2.415   5.826 -0.5312  0.1924  0.8822
17241TIP3    H173214   1.089   2.509   5.838  0.6804 -0.2250  3.0955
17241TIP3    H273215   0.991   2.397   5.865  0.1335  0.0631  2.3138
17242TIP3   OH273216   5.828   3.399   5.605  0.4723  0.2898  0.1951
17242TIP3    H173217   5.861   3.321   5.560  1.6378  0.1313  1.3077
17242TIP3    H273218   5.754   3.367   5.657 -2.0152  0.7669 -2.8281
17243TIP3   OH273219   1.167   0.669  12.003 -0.2852 -0.1734  0.0547
17243TIP3    H173220   1.201   0.693  12.090  2.0379 -1.9495 -0.2956
17243TIP3    H273221   1.150   0.575  12.009  1.6494 -0.6978 -1.9249
17244TIP3   OH273222   5.510   0.982  16.459  0.2533  0.5459 -0.5179
17244TIP3    H173223   5.466   0.899  16.479 -0.6077  0.7835 -1.4130
17244TIP3    H273224   5.467   1.046  16.516 -0.4763  0.7514 -1.2895
17245TIP3   OH273225   5.807   1.558  11.539  0.0973  0.0481 -0.1586
17245TIP3    H173226   5.898   1.587  11.545  0.3720 -0.7421 -0.3926
17245TIP3    H273227   5.779   1.548  11.630  0.4982 -0.4755 -0.0907
17246TIP3   OH273228   5.734   2.946  16.396  0.0463 -0.7411 -0.3747
17246TIP3    H173229   5.819   2.934  16.355  0.2415  0.1299 -0.2304
17246TIP3    H273230   5.674   2.963  16.323  0.6056  2.0230 -0.2665
17247TIP3   OH273231   0.686   0.622  16.399 -0.4310 -0.0886  0.0754
17247TIP3    H173232   0.749   0.622  16.471 -1.1562  0.3975  0.7184
17247TIP3    H273233   0.730   0.575  16.328  0.0685 -1.0796  1.0349
17248TIP3   OH273234   4.125   5.025  13.687  0.3189 -0.1519 -0.3774
17248TIP3    H173235   4.088   5.000  13.771 -0.7681  2.0531 -0.1618
17248TIP3    H273236   4.205   4.974  13.680  0.5235 -0.2317  2.0837
17249TIP3   OH273237   1.146   3.268   1.600 -0.5954  0.5389 -0.5661
17249TIP3    H173238   1.180   3.322   1.529  0.9420 -1.6301 -1.5421
17249TIP3    H273239   1.112   3.190   1.557 -1.5991  0.1376  0.9145
17250TIP3   OH273240   2.272   0.592   3.225 -0.5372 -0.9978 -0.6559
17250TIP3    H173241   2.228   0.611   3.143  0.4689 -1.1570 -1.2483
17250TIP3    H273242   2.352   0.645   3.222  0.1295 -1.9757 -0.3641
17251TIP3   OH273243   2.765   1.659  15.778  0.9987 -0.8531  0.4490
17251TIP3    H173244   2.859   1.655  15.793  0.9783 -1.2020  0.4787
17251TIP3    H273245   2.726   1.645  15.865  0.9124 -1.1268  0.3661
17252TIP3   OH273246   4.570   0.613  10.636 -0.0683 -0.0886 -0.3802
17252TIP3    H173247   4.493   0.601  10.692 -1.8722  1.5883 -2.4238
17252TIP3    H273248   4.632   0.661  10.691 -0.5805 -1.1572  1.1739
17253TIP3   OH273249   0.909   1.717  14.690 -0.4488 -0.0021  0.4101
17253TIP3    H173250   0.878   1.775  14.761 -0.5891  1.4313 -0.8049
17253TIP3    H273251   0.984   1.763  14.653 -0.8004 -0.4232 -0.8239
17254TIP3   OH273252   4.840   4.931   1.429  0.1997  0.2285 -0.2781
17254TIP3    H173253   4.775   5.001   1.438 -0.8965 -1.1390  3.5217
17254TIP3    H273254   4.922   4.972   1.456 -0.3250  0.3005  1.3227
17255TIP3   OH273255   2.283   1.289  15.097 -0.0859  0.2230 -0.6246
17255TIP3    H173256   2.314   1.252  15.180  1.1381  0.1939 -1.0801
17255TIP3    H273257   2.300   1.383  15.104  0.8047  0.1102 -1.1647
17256TIP3   OH273258   5.294   4.379  17.120 -0.3794  0.2541  0.5422
17256TIP3    H173259   5.378   4.415  17.151  0.4468 -0.0522 -1.3019
17256TIP3    H273260   5.299   4.286  17.143  0.1075  0.0867 -0.2184
17257TIP3   OH273261   6.100   4.887  12.209  0.2614  0.3103  0.0835
17257TIP3    H173262   6.149   4.969  12.213  1.4865 -0.2098 -3.0107
17257TIP3    H273263   6.066   4.875  12.297  0.7282  3.7365  0.8030
17258TIP3   OH273264   2.532   1.857   0.947 -0.1640 -0.0477 -0.0454
17258TIP3    H173265   2.596   1.790   0.921 -0.0501  0.0317  0.0271
17258TIP3    H273266   2.455   1.839   0.894 -0.6380 -1.1195  0.9910
17259TIP3   OH273267   3.835   0.073  16.003  0.0182 -0.0862 -0.2835
17259TIP3    H173268   3.831   0.051  15.910 -1.2341  0.4815 -0.3795
17259TIP3    H273269   3.794   0.160  16.008  0.8285  0.2487  0.6822
17260TIP3   OH273270   5.666   4.916  16.786  0.2281 -0.3417  0.2534
17260TIP3    H173271   5.669   4.980  16.857  1.6003 -0.5586  0.3967
17260TIP3    H273272   5.623   4.840  16.824 -0.9977  0.3218  0.2155
17261TIP3   OH273273   6.355   1.843  14.827  0.3696 -0.3778 -0.7715
17261TIP3    H173274   6.392   1.761  14.860 -1.3205 -0.6872  0.4183
17261TIP3    H273275   6.338   1.895  14.906  0.8982  0.9020 -1.4838
17262TIP3   OH273276   1.242   2.946  14.944  0.4575 -0.3602 -0.0248
17262TIP3    H173277   1.194   2.968  14.863 -1.5288  0.2870  1.2975
17262TIP3    H273278   1.287   3.027  14.967  0.0970 -0.2055  0.1393
17263TIP3   OH273279   0.036   4.950  13.862 -0.2476  0.0300  0.4950
17263TIP3    H173280   0.046   4.930  13.768 -0.3253 -0.3130  0.5589
17263TIP3    H273281  -0.034   5.016  13.865 -0.4632 -0.1899  0.3368
17264TIP3   OH273282   4.752   6.337   2.163 -0.1319  0.3113  0.0971
17264TIP3    H173283   4.735   6.256   2.211 -0.8362 -0.9967 -2.2286
17264TIP3    H273284   4.726   6.407   2.222  1.6798 -1.0779  2.6513
17265TIP3   OH273285   2.013   4.297   1.586  0.3707  0.0272  0.2796
17265TIP3    H173286   1.968   4.253   1.513 -0.0752  0.3266  0.3706
17265TIP3    H273287   1.948   4.298   1.656  1.3852 -1.8307  1.2894
17266TIP3   OH273288   0.782   5.069  11.765  0.0386 -0.0933  0.6436
17266TIP3    H173289   0.795   5.138  11.700 -0.2067  0.8933  1.6258
17266TIP3    H273290   0.833   4.995  11.732  0.7630  0.7386 -0.1332
17267TIP3   OH273291   3.390   4.927  10.957 -0.1105 -0.0954  0.2415
17267TIP3    H173292   3.307   4.967  10.983 -0.5690 -0.6061 -0.4514
17267TIP3    H273293   3.367   4.863  10.890  0.4923 -2.3343  2.0985
17268TIP3   OH273294   1.453   5.063  14.002 -0.4700  0.2027 -0.2286
17268TIP3    H173295   1.471   5.037  13.911 -1.1454 -0.0403 -0.2929
17268TIP3    H273296   1.487   5.152  14.008  0.1003  0.0117 -0.5569
17269TIP3   OH273297   2.743   3.430  11.581 -0.3814 -0.0512  0.1827
17269TIP3    H173298   2.656   3.392  11.595 -0.1920 -1.2500 -1.6637
17269TIP3    H273299   2.797   3.394  11.650 -0.8621 -1.0125  0.0726
17270TIP3   OH273300   5.536   5.152   4.815  0.0394 -0.1318 -0.4280
17270TIP3    H173301   5.477   5.099   4.869 -0.6800  1.0612 -0.0160
17270TIP3    H273302   5.608   5.094   4.793 -1.8213 -1.9561 -1.8287
17271TIP3   OH273303   0.692   5.886  13.338 -0.3789 -0.2274  0.1294
17271TIP3    H173304   0.752   5.912  13.407 -1.6084 -1.2429  1.6153
17271TIP3    H273305   0.628   5.957  13.334 -0.4865 -0.3166  0.2611
17272TIP3   OH273306   6.295   5.975   0.669 -0.1964  0.4101 -0.1381
17272TIP3    H173307   6.235   5.949   0.738 -0.4381 -0.1161 -0.5438
17272TIP3    H273308   6.371   6.011   0.715  0.0839 -0.8797  0.4134
17273TIP3   OH273309   1.920   5.694   5.826  0.0579 -0.5170 -0.6035
17273TIP3    H173310   1.984   5.633   5.788  0.5382  0.0128 -0.6549
17273TIP3    H273311   1.968   5.776   5.836 -0.5702 -0.1581 -0.4867
17274TIP3   OH273312   1.051   3.134  13.871 -0.2455 -0.0119 -0.3169
17274TIP3    H173313   1.054   3.220  13.830  0.7946 -0.2454 -0.7499
17274TIP3    H273314   1.105   3.143  13.950 -2.0535  0.3747  0.9079
17275TIP3   OH273315   0.412   3.147   6.025 -0.1540 -0.1096  0.0605
17275TIP3    H173316   0.337   3.112   5.976 -0.2657  0.6015 -0.2781
17275TIP3    H273317   0.374   3.214   6.081 -0.0346 -0.9631  1.1855
17276TIP3   OH273318   6.331   1.818   2.961 -0.1822 -0.5185  0.2581
17276TIP3    H173319   6.392   1.832   3.033  0.4102  1.0875 -0.5386
17276TIP3    H273320   6.320   1.904   2.922  0.3145 -1.5357 -2.2117
17277TIP3   OH273321   5.293   5.426   6.171  0.1695  0.3152 -0.3120
17277TIP3    H173322   5.299   5.442   6.077 -0.1167  3.4442  0.1744
17277TIP3    H273323   5.384   5.421   6.201  0.2556  0.2654 -0.5844
17278TIP3   OH273324   5.748   3.145  17.217 -0.8634  0.1724  0.2289
17278TIP3    H173325   5.720   3.071  17.271 -1.2360  0.1836  0.0473
17278TIP3    H273326   5.691   3.142  17.140 -0.7013  0.4892  0.0973
17279TIP3   OH273327   2.933   5.245   0.210 -0.3818  0.7393  0.0379
17279TIP3    H173328   2.879   5.181   0.165 -1.5762  2.0873 -0.4961
17279TIP3    H273329   2.871   5.298   0.260  0.5056  1.8878 -0.0475
17280TIP3   OH273330   3.985   3.966  13.957 -0.1283  0.3626 -0.1540
17280TIP3    H173331   3.928   4.038  13.983 -0.5504  0.6041 -1.6569
17280TIP3    H273332   4.035   3.945  14.035 -1.5729  0.8114  0.9209
17281TIP3   OH273333   0.029   1.152   4.315  0.3840 -0.3895  0.0971
17281TIP3    H173334   0.032   1.102   4.233 -0.0818 -1.4933  0.7476
17281TIP3    H273335   0.121   1.170   4.336  0.5741 -1.3140  0.0669
17282TIP3   OH273336   5.758   5.536  13.628 -0.0872 -0.6140  0.0095
17282TIP3    H173337   5.753   5.460  13.686  0.4138 -0.7128 -0.0690
17282TIP3    H273338   5.840   5.579  13.653 -0.9079  0.5152  0.8012
17283TIP3   OH273339   5.986   6.698  12.131  0.2764 -0.2920 -0.4950
17283TIP3    H173340   5.928   6.774  12.119  0.8715  0.2303 -0.0814
17283TIP3    H273341   5.967   6.642  12.056 -1.8094 -0.7974  0.3849
17284TIP3   OH273342   5.999   2.201  15.451  0.0483  0.3089 -0.1518
17284TIP3    H173343   6.047   2.141  15.508 -0.5936 -1.4788 -1.4359
17284TIP3    H273344   6.044   2.195  15.366 -2.5447 -1.6455 -1.4691
17285TIP3   OH273345   1.617   3.142  15.707 -0.3709 -0.1335 -0.0127
17285TIP3    H173346   1.599   3.235  15.689 -0.1111 -0.4771 -2.2421
17285TIP3    H273347   1.530   3.103  15.719 -0.6335 -0.0163 -1.3838
17286TIP3   OH273348   3.037   1.813   1.009  0.1955 -0.4765 -0.3062
17286TIP3    H173349   3.128   1.799   0.980  0.1170 -2.0105  0.1148
17286TIP3    H273350   3.041   1.801   1.104 -0.4145 -0.4070 -0.2707
17287TIP3   OH273351   4.027   3.194  16.390  0.1907  0.2795  0.2294
17287TIP3    H173352   3.981   3.136  16.329  1.1745  1.1431 -1.3660
17287TIP3    H273353   4.025   3.147  16.473 -1.7209 -0.6457 -0.3015
17288TIP3   OH273354   0.032   0.325   6.175  0.1386 -0.7783  0.5048
17288TIP3    H173355   0.020   0.408   6.128  0.9388 -0.6198  0.5561
17288TIP3    H273356  -0.011   0.338   6.259  1.3660  0.0716  1.0256
17289TIP3   OH273357   0.517   1.918   0.550 -0.1634 -0.2876  0.6188
17289TIP3    H173358   0.604   1.958   0.541 -0.0411  0.0139  2.9190
17289TIP3    H273359   0.457   1.987   0.520  0.4063 -0.9870 -2.3422
17290TIP3   OH273360   0.325   0.264  13.397 -0.1112  0.1819  0.5271
17290TIP3    H173361   0.317   0.202  13.324 -1.3487  1.0588 -0.0738
17290TIP3    H273362   0.258   0.237  13.459  1.4039 -1.0134  1.7114
17291TIP3   OH273363   0.572   6.205   2.746  0.3621 -0.3193 -0.0108
17291TIP3    H173364   0.532   6.153   2.676 -1.7408  0.5124  0.5108
17291TIP3    H273365   0.563   6.295   2.716  1.1479 -0.0790  0.4874
17292TIP3   OH273366   0.666   3.343   6.675 -0.1032  0.6493  0.0085
17292TIP3    H173367   0.733   3.292   6.722  0.5478  0.9212 -0.6128
17292TIP3    H273368   0.683   3.325   6.582 -0.7598  0.8888 -0.1615
17293TIP3   OH273369   3.709   1.852   1.210 -0.2143  0.4065 -0.1022
17293TIP3    H173370   3.753   1.937   1.210  0.4599  0.0631 -0.4796
17293TIP3    H273371   3.624   1.869   1.169  1.1720  0.2955 -3.1734
17294TIP3   OH273372   5.936   0.556   1.295  0.1742  0.3793 -0.5383
17294TIP3    H173373   5.964   0.551   1.204 -0.2712  1.6727 -0.7560
17294TIP3    H273374   5.940   0.465   1.326  0.2168 -0.0905 -1.8746
17295TIP3   OH273375   0.718   2.005   3.133 -0.6389  0.4150  0.4141
17295TIP3    H173376   0.701   1.917   3.099 -1.6744  1.0344 -0.7473
17295TIP3    H273377   0.777   1.992   3.206 -1.5086 -1.3421  0.8297
17296TIP3   OH273378   2.183   0.800  10.615  0.0636 -0.4833  0.2471
17296TIP3    H173379   2.126   0.798  10.692  0.6868  0.0025  0.7151
17296TIP3    H273380   2.145   0.735  10.556 -0.3439 -0.9374  1.0092
17297TIP3   OH273381   5.948   2.109  13.607 -1.1021 -0.0913 -0.6224
17297TIP3    H173382   5.909   2.030  13.569 -0.1930 -0.1197 -1.5183
17297TIP3    H273383   5.954   2.090  13.700  0.1589 -1.5447 -0.9805
17298TIP3   OH273384   2.336   1.675  16.410  1.0054 -0.1072 -0.2305
17298TIP3    H173385   2.292   1.720  16.338  1.5765  1.5164  0.4056
17298TIP3    H273386   2.265   1.642  16.465  0.5378  2.6220  0.8786
17299TIP3   OH273387   6.044   5.183   3.741  0.1432 -0.1736  0.1206
17299TIP3    H173388   6.121   5.126   3.732 -0.1244 -0.4265 -0.6659
17299TIP3    H273389   6.005   5.183   3.653 -0.9393 -0.3066  0.5995
17300TIP3   OH273390   2.655   3.938  13.580 -0.4250 -0.3139 -0.0419
17300TIP3    H173391   2.728   3.911  13.636 -1.4132 -1.4170  0.7331
17300TIP3    H273392   2.697   3.971  13.501  0.9359 -0.3813  0.6339
17301TIP3   OH273393   0.389   6.156   3.776  0.3655  0.4084  0.3230
17301TIP3    H173394   0.454   6.160   3.706  2.1495  0.6940  1.9637
17301TIP3    H273395   0.310   6.123   3.733  1.4751  0.3933 -1.7754
17302TIP3   OH273396   1.874   1.817   2.747  0.2315 -0.3775 -0.5000
17302TIP3    H173397   1.803   1.761   2.715 -0.3846  0.0645  0.0681
17302TIP3    H273398   1.950   1.791   2.696 -0.0881 -1.6075 -0.3763
17303TIP3   OH273399   0.689   2.603  11.036  0.1430  0.3038 -0.2919
17303TIP3    H173400   0.716   2.537  10.973 -0.3019  1.3603 -1.6167
17303TIP3    H273401   0.768   2.656  11.050  0.7971 -1.1306  1.5873
17304TIP3   OH273402   4.315   0.141   0.933  0.7807 -0.7134  0.0378
17304TIP3    H173403   4.383   0.201   0.964  0.3024  0.5357 -1.2771
17304TIP3    H273404   4.355   0.097   0.858 -0.5253  1.5303 -2.0416
17305TIP3   OH273405   4.398   1.794  13.487  0.0462  0.3121  0.2170
17305TIP3    H173406   4.303   1.802  13.486 -0.1308 -1.6094 -0.2901
17305TIP3    H273407   4.417   1.743  13.566  0.5480 -0.3238 -0.3003
17306TIP3   OH273408   6.153   5.433   5.047  0.4099 -0.1145  0.4143
17306TIP3    H173409   6.175   5.410   4.957  2.4335  2.1653  0.2374
17306TIP3    H273410   6.202   5.371   5.101 -1.0552 -1.6792 -0.0401
17307TIP3   OH273411   1.082   6.353   2.445  0.4456 -0.4114 -0.1710
17307TIP3    H173412   1.118   6.273   2.485 -1.0627 -0.1810  1.7702
17307TIP3    H273413   1.158   6.407   2.426  1.4161 -1.8318 -0.4078
17308TIP3   OH273414   0.737   1.383  14.362 -0.2808  0.2563  0.6011
17308TIP3    H173415   0.737   1.342  14.449  0.0165 -0.1180  0.4287
17308TIP3    H273416   0.652   1.426  14.356 -1.5888 -2.2970 -0.1027
17309TIP3   OH273417   5.845   0.655  11.284  0.0029  0.3841  0.2453
17309TIP3    H173418   5.776   0.718  11.268  0.0464  1.1823  2.9829
17309TIP3    H273419   5.868   0.667  11.376  2.8142 -0.8223 -0.2354
17310TIP3   OH273420   5.667   3.142  14.913  0.1869  0.2764 -0.5817
17310TIP3    H173421   5.652   3.214  14.975 -2.5915 -1.4001  0.8410
17310TIP3    H273422   5.602   3.156  14.844  1.6010  0.7307 -1.8463
17311TIP3   OH273423   0.097   4.677  10.485 -0.5842 -0.0083  0.3489
17311TIP3    H173424   0.123   4.597  10.530  0.9405  0.1370 -0.2445
17311TIP3    H273425   0.025   4.651  10.428  0.6360 -1.2025 -0.6707
17312TIP3   OH273426   2.689   4.259   0.228 -0.4117 -0.1237 -0.6481
17312TIP3    H173427   2.643   4.342   0.215 -0.9802 -0.1695  0.9706
17312TIP3    H273428   2.682   4.214   0.144 -2.7901  0.1325 -0.6055
17313TIP3   OH273429   2.789   5.655   2.711  0.1362 -0.0687  0.4285
17313TIP3    H173430   2.845   5.662   2.788  1.9474 -0.8629 -0.7614
17313TIP3    H273431   2.814   5.730   2.656 -2.7885  1.8416  1.5960
17314TIP3   OH273432   4.196   5.883  11.975  0.0077 -0.1875 -0.4021
17314TIP3    H173433   4.176   5.792  11.952 -1.6843 -0.1302  0.7814
17314TIP3    H273434   4.111   5.924  11.989  0.8211  1.0350  1.1268
17315TIP3   OH273435   6.432   3.046   3.342 -0.4980  0.0040  0.0854
17315TIP3    H173436   6.350   3.017   3.383 -0.7547  0.7007  0.0791
17315TIP3    H273437   6.491   3.063   3.415  0.1020 -1.8141  0.0425
17316TIP3   OH273438   2.283   4.395   3.426  0.4120  0.1156 -0.7014
17316TIP3    H173439   2.274   4.451   3.503 -2.0312  0.6543 -1.3475
17316TIP3    H273440   2.373   4.411   3.395 -0.0237  3.2282 -0.4987
17317TIP3   OH273441   2.126   1.063   5.495 -0.3635 -0.2039  0.1476
17317TIP3    H173442   2.203   1.107   5.460 -0.0508 -0.4798  0.4777
17317TIP3    H273443   2.058   1.076   5.429  0.6725 -2.1204 -1.3721
17318TIP3   OH273444   1.038   0.372   2.853  0.1363 -0.7682 -0.2718
17318TIP3    H173445   1.041   0.426   2.931  0.9713 -0.0258 -0.8058
17318TIP3    H273446   1.070   0.286   2.882 -0.4442 -0.7611  0.4011
17319TIP3   OH273447   6.601   1.780   5.214  0.2665 -0.4387  0.5773
17319TIP3    H173448   6.659   1.713   5.250 -1.0968 -1.8818  0.1109
17319TIP3    H273449   6.513   1.749   5.234 -0.4033  0.8913 -0.2333
17320TIP3   OH273450   3.572   0.489   2.457 -0.1711 -0.4154  0.2384
17320TIP3    H173451   3.663   0.518   2.447 -0.4621 -0.2675 -2.2893
17320TIP3    H273452   3.545   0.521   2.543  2.2643 -0.7366  1.1538
17321TIP3   OH273453   2.587   6.494   6.242 -0.3172  0.5329  0.7381
17321TIP3    H173454   2.526   6.475   6.170  0.7673  0.7277 -0.2473
17321TIP3    H273455   2.545   6.567   6.289 -0.4260  1.2793 -0.4756
17322TIP3   OH273456   2.291   3.610  14.427 -0.3935  0.2931  0.1960
17322TIP3    H173457   2.263   3.682  14.370 -0.1337  0.1599 -0.1068
17322TIP3    H273458   2.326   3.653  14.505 -0.0827  0.5011 -0.0557
17323TIP3   OH273459   0.588   3.223   5.826 -0.1937  0.1638 -0.1977
17323TIP3    H173460   0.527   3.211   5.899 -0.7724  1.4178 -0.4581
17323TIP3    H273461   0.542   3.188   5.750  0.1401 -0.5185 -0.0965
17324TIP3   OH273462   4.813   2.383  17.290 -0.3998 -0.2398 -0.4316
17324TIP3    H173463   4.856   2.320  17.348 -0.2275  0.0217 -0.2737
17324TIP3    H273464   4.769   2.444  17.349 -0.6770 -0.2899 -0.5860
17325TIP3   OH273465   2.669   4.055  13.160  0.0821  0.0868  0.0724
17325TIP3    H173466   2.709   4.116  13.099  0.1454 -0.8684 -0.8494
17325TIP3    H273467   2.698   4.085  13.246  2.3040 -0.2101 -0.5285
17326TIP3   OH273468   6.482   2.289   3.175 -0.0347  0.1045 -0.6634
17326TIP3    H173469   6.454   2.377   3.199  0.2541 -0.0711  0.3268
17326TIP3    H273470   6.467   2.285   3.080  0.3562  1.3628 -0.7955
17327TIP3   OH273471   5.948   0.619   0.366  0.5369  0.5350 -0.7498
17327TIP3    H173472   5.905   0.602   0.282  1.4877  1.5201 -1.4669
17327TIP3    H273473   5.883   0.665   0.418  0.3873  1.1355 -1.4583
17328TIP3   OH273474   4.554   0.483  15.908 -0.1045  0.3709  0.0846
17328TIP3    H173475   4.513   0.398  15.892 -1.1449  0.6110  1.4234
17328TIP3    H273476   4.549   0.495  16.002  0.5911  1.6520 -0.0260
17329TIP3   OH273477   5.676   0.375   1.726  0.1987 -0.2390  0.1986
17329TIP3    H173478   5.718   0.309   1.670 -0.7715  0.0209 -0.8515
17329TIP3    H273479   5.738   0.448   1.728  0.3253 -0.3339 -0.3700
17330TIP3   OH273480   3.034   0.139   0.456  0.4499 -1.1033  0.2555
17330TIP3    H173481   2.999   0.117   0.370 -0.0120  1.0280 -0.1407
17330TIP3    H273482   3.127   0.120   0.451  0.7183  0.4713 -1.2684
17331TIP3   OH273483   4.356   5.890   3.629 -0.1440  0.0908  0.1420
17331TIP3    H173484   4.450   5.872   3.626 -0.3492 -0.8360 -1.0109
17331TIP3    H273485   4.327   5.850   3.712  0.6739  1.4270  1.0860
17332TIP3   OH273486   1.957   5.157  16.828 -0.6287  0.2942 -0.3124
17332TIP3    H173487   1.920   5.167  16.916 -2.0345  0.2299 -0.8740
17332TIP3    H273488   1.975   5.246  16.799  0.1397  0.2953  0.1654
17333TIP3   OH273489   1.740   1.537   2.116  0.3827  0.2171  0.1515
17333TIP3    H173490   1.819   1.484   2.109  0.3110  0.1955 -0.4818
17333TIP3    H273491   1.702   1.512   2.201  0.5542 -0.4664  0.0297
17334TIP3   OH273492   3.615   4.781   3.363  0.0059 -0.3049  0.5286
17334TIP3    H173493   3.524   4.753   3.347  0.4872 -1.4153 -0.3633
17334TIP3    H273494   3.608   4.875   3.379 -1.4505 -0.6101  1.7900
17335TIP3   OH273495   1.074   1.664   1.232  0.0615  0.3322 -0.4502
17335TIP3    H173496   1.043   1.748   1.199 -0.5415  0.5421  0.6527
17335TIP3    H273497   1.025   1.649   1.313  2.7117  0.6371  1.2897
17336TIP3   OH273498   1.916   6.146  13.621  0.3140  0.0294  0.4378
17336TIP3    H173499   2.003   6.128  13.585 -0.5626 -0.7444 -1.3655
17336TIP3    H273500   1.858   6.146  13.544 -1.6634 -2.0018  1.8775
17337TIP3   OH273501   4.096   2.801   4.349  0.6007  0.4729  0.6712
17337TIP3    H173502   4.032   2.843   4.291  1.0101  0.7480  0.4196
17337TIP3    H273503   4.047   2.731   4.392  0.3065  0.2385 -0.0425
17338TIP3   OH273504   4.208   4.564  16.539 -0.2046  0.0093 -0.1511
17338TIP3    H173505   4.271   4.496  16.517 -0.2272 -0.1696  0.3386
17338TIP3    H273506   4.202   4.618  16.459 -2.2730 -2.1550 -1.5032
17339TIP3   OH273507   5.636   6.262  15.727  0.6163  0.3051  0.7086
17339TIP3    H173508   5.705   6.240  15.665 -0.8538  1.1507 -1.2803
17339TIP3    H273509   5.642   6.357  15.737 -1.8088  0.7516 -1.4567
17340TIP3   OH273510   5.895   2.167  11.496  0.5880  0.1729  0.2107
17340TIP3    H173511   5.877   2.088  11.445  0.7288  0.4191 -0.2225
17340TIP3    H273512   5.853   2.237  11.447  0.6097  0.3919  0.5043
17341TIP3   OH273513   0.812   2.158   3.668 -0.5162 -0.0454 -0.2710
17341TIP3    H173514   0.857   2.109   3.737 -0.5914  0.0638 -0.1455
17341TIP3    H273515   0.841   2.248   3.680 -0.0505 -0.1220 -0.7590
17342TIP3   OH273516   5.121   4.642  13.163  0.0097 -0.3535 -0.0635
17342TIP3    H173517   5.093   4.730  13.140  0.2269 -0.5350 -1.0262
17342TIP3    H273518   5.169   4.610  13.086 -1.2064 -1.8117 -0.2521
17343TIP3   OH273519   0.243   0.789   0.779  0.4066 -0.0447 -0.2654
17343TIP3    H173520   0.291   0.862   0.818  2.3520 -0.6671 -1.4167
17343TIP3    H273521   0.170   0.830   0.733  0.9200  1.0957 -0.0903
17344TIP3   OH273522   1.956   5.562  15.186  0.5981 -0.1929 -0.2553
17344TIP3    H173523   2.006   5.541  15.107  0.6915  0.7816 -0.4597
17344TIP3    H273524   2.021   5.594  15.248  0.3866  0.0309 -0.1486
17345TIP3   OH273525   6.153   6.200   2.673  0.0442  0.8095 -0.0059
17345TIP3    H173526   6.099   6.205   2.594  0.6802  0.9726 -0.4338
17345TIP3    H273527   6.189   6.111   2.672  0.1208  0.8398  0.0532
17346TIP3   OH273528   6.784   0.281  15.563 -0.5639 -0.0122 -0.9893
17346TIP3    H173529   6.746   0.256  15.478 -0.3042 -0.0151 -1.1067
17346TIP3    H273530   6.722   0.248  15.627  0.0159 -1.3861 -1.1250
17347TIP3   OH273531   3.670   1.227   1.980  0.4479 -0.3702  0.0312
17347TIP3    H173532   3.660   1.280   1.901  0.0542 -1.2189 -0.4956
17347TIP3    H273533   3.611   1.153   1.967  0.8044 -0.8133  0.8731
17348TIP3   OH273534   2.338   4.045  15.900 -0.3320 -0.2160 -0.0080
17348TIP3    H173535   2.260   4.042  15.845 -0.3535 -2.7509  0.0735
17348TIP3    H273536   2.306   4.041  15.990 -0.1468 -0.8908  0.0360
17349TIP3   OH273537   0.002   1.971  11.312 -0.0525 -0.4596 -0.6016
17349TIP3    H173538   0.027   2.047  11.258 -0.7371 -0.4544 -0.9251
17349TIP3    H273539  -0.078   2.000  11.357  0.5500 -0.4522  0.4565
17350TIP3   OH273540   0.742   5.516  17.176  0.2968  0.9394  0.4684
17350TIP3    H173541   0.662   5.494  17.224  0.4977  0.5078  0.6012
17350TIP3    H273542   0.805   5.450  17.203 -0.2266 -0.6356 -2.0862
17351TIP3   OH273543   5.822   4.560  14.389 -0.4255 -0.5771  0.1326
17351TIP3    H173544   5.914   4.580  14.407 -0.1655 -0.8845 -0.8470
17351TIP3    H273545   5.822   4.470  14.358 -1.1093 -0.7044  0.4960
17352TIP3   OH273546   4.238   1.271   1.173  0.0599  0.5933 -0.3265
17352TIP3    H173547   4.206   1.224   1.096  1.0921 -0.7541  0.0340
17352TIP3    H273548   4.164   1.272   1.234 -0.5057  0.9522 -1.0156
17353TIP3   OH273549   4.046   5.295   2.912  0.3914  0.0140 -0.2172
17353TIP3    H173550   4.111   5.364   2.902 -0.7249  0.9941 -0.8643
17353TIP3    H273551   4.070   5.250   2.993  2.2386 -0.0474 -0.7722
17354TIP3   OH273552   2.187   5.640  14.289 -0.2451  0.1481  0.4553
17354TIP3    H173553   2.210   5.669  14.200 -1.2712  1.0022  0.4454
17354TIP3    H273554   2.144   5.717  14.328  0.2100 -0.2185  1.6982
17355TIP3   OH273555   0.371   5.442   5.217 -0.8333 -0.0181 -0.9766
17355TIP3    H173556   0.366   5.510   5.285 -0.2027  0.7102 -1.6578
17355TIP3    H273557   0.292   5.455   5.164 -2.1748 -1.6131  0.5556
17356TIP3   OH273558   5.370   1.171   0.315 -1.1969  0.3063 -0.2261
17356TIP3    H173559   5.335   1.256   0.341  1.5495  0.7796  2.1812
17356TIP3    H273560   5.381   1.124   0.398 -0.2600 -1.4344 -1.3193
17357TIP3   OH273561   1.323   1.847   3.873 -0.0904 -0.5037  0.0498
17357TIP3    H173562   1.267   1.771   3.887 -2.9917  0.9223 -2.9595
17357TIP3    H273563   1.374   1.826   3.795 -0.7147  0.5029 -0.6403
17358TIP3   OH273564   2.857   3.140   3.302  0.2457 -0.3128 -0.1302
17358TIP3    H173565   2.777   3.179   3.335  0.7015  0.8978 -0.4265
17358TIP3    H273566   2.922   3.156   3.371  0.4233 -0.6049 -0.2263
17359TIP3   OH273567   3.183   5.202   3.766 -0.0297 -0.1337 -0.3159
17359TIP3    H173568   3.251   5.142   3.737  0.9274  0.5308  0.5086
17359TIP3    H273569   3.194   5.279   3.710 -0.0933 -0.0227 -0.1756
17360TIP3   OH273570   4.482   4.589   0.256 -0.0288  0.0134 -0.9841
17360TIP3    H173571   4.500   4.495   0.257 -1.7140 -0.3302  0.7715
17360TIP3    H273572   4.403   4.599   0.311 -0.1010  2.3920 -1.4649
17361TIP3   OH273573   0.521   6.443  12.887  0.0359 -0.2671 -0.3146
17361TIP3    H173574   0.472   6.514  12.928  1.2414  1.2701 -1.4525
17361TIP3    H273575   0.604   6.440  12.935 -0.1552 -1.1577 -0.0356
17362TIP3   OH273576   2.402   0.170   1.300  0.2075 -0.3672 -1.0401
17362TIP3    H173577   2.481   0.160   1.247  0.3193 -1.2546 -0.7004
17362TIP3    H273578   2.391   0.086   1.345 -0.8002 -0.1746 -0.9077
17363TIP3   OH273579   5.333   2.899  16.718 -0.0360 -0.1331  0.5412
17363TIP3    H173580   5.319   2.838  16.790 -2.2650 -1.1995 -0.7477
17363TIP3    H273581   5.280   2.975  16.741  1.1569  0.5299  1.1654
17364TIP3   OH273582   5.049   0.616   3.823 -0.0296  0.1539 -0.0485
17364TIP3    H173583   5.129   0.663   3.799  0.7928 -1.0512  0.2851
17364TIP3    H273584   4.988   0.636   3.753  1.1576 -0.3632 -1.2526
17365TIP3   OH273585   2.262   1.737  14.117  0.4024 -0.3197  0.5593
17365TIP3    H173586   2.242   1.818  14.164  0.6979 -0.0450  0.2150
17365TIP3    H273587   2.285   1.675  14.186  0.8855  0.0969  0.7853
17366TIP3   OH273588   6.476   3.293  14.600 -0.0621 -0.3495 -0.2202
17366TIP3    H173589   6.454   3.201  14.593  0.6168 -0.6854  1.8578
17366TIP3    H273590   6.537   3.309  14.527  1.6440 -2.1069  0.7967
17367TIP3   OH273591   1.677   4.115  12.649 -0.3168  0.6443  0.3095
17367TIP3    H173592   1.658   4.064  12.728  0.3149  0.7387  0.5220
17367TIP3    H273593   1.624   4.073  12.581  0.1742 -0.2993  0.4888
17368TIP3   OH273594   1.152   4.031  15.064  0.9004 -0.2898 -0.1427
17368TIP3    H173595   1.066   4.053  15.029  0.7204  1.0021  1.0615
17368TIP3    H273596   1.197   4.115  15.072  1.9524 -0.8623  0.0685
17369TIP3   OH273597   1.488   0.550   2.194  0.0229 -0.0620  0.1012
17369TIP3    H173598   1.439   0.500   2.259  0.7149  1.7919  2.1320
17369TIP3    H273599   1.565   0.496   2.175 -0.1382 -0.5867  0.8981
17370TIP3   OH273600   5.421   6.653  13.013  0.3406  0.2206  0.3338
17370TIP3    H173601   5.415   6.679  13.106  1.4398 -0.6206  0.6475
17370TIP3    H273602   5.514   6.657  12.993  0.4205 -2.4033  0.0757
17371TIP3   OH273603   6.406   1.840  17.024  0.4412 -0.3839 -0.7800
17371TIP3    H173604   6.455   1.767  16.988  2.1940  1.4047 -2.1213
17371TIP3    H273605   6.458   1.917  17.003  0.0820  1.0233  3.0855
17372TIP3   OH273606   2.368   4.892   1.333 -0.3557  0.5326 -0.1045
17372TIP3    H173607   2.376   4.896   1.428  1.3600  0.2877 -0.2141
17372TIP3    H273608   2.284   4.850   1.317 -0.6770  0.6312  1.3068
17373TIP3   OH273609   0.483   2.790  12.610  0.3998 -0.5464  0.2293
17373TIP3    H173610   0.470   2.737  12.531 -1.0441  0.5119 -0.2570
17373TIP3    H273611   0.471   2.880  12.581  4.2559  0.2285  0.7452
17374TIP3   OH273612   2.653   0.284  13.658  0.0652 -0.2477  0.3290
17374TIP3    H173613   2.623   0.227  13.729  0.4567 -2.9419 -1.6091
17374TIP3    H273614   2.582   0.280  13.593  0.9785 -0.1305 -0.6895
17375TIP3   OH273615   6.007   2.336  12.361 -1.0993 -0.1701  0.0400
17375TIP3    H173616   5.926   2.381  12.339 -0.9769 -0.5584 -1.2204
17375TIP3    H273617   6.046   2.312  12.277  0.7423  0.7295  0.5980
17376TIP3   OH273618   5.299   1.998   2.874 -0.3450  0.1419  0.1022
17376TIP3    H173619   5.243   2.037   2.941  0.9913  0.9593  0.7682
17376TIP3    H273620   5.242   1.937   2.828 -1.5213  0.2204  1.4096
17377TIP3   OH273621   4.568   4.331  16.468 -0.3736 -0.2093  0.0472
17377TIP3    H173622   4.627   4.395  16.428  0.5269 -0.3683  1.0758
17377TIP3    H273623   4.481   4.357  16.439  0.2260 -0.2080 -1.8227
17378TIP3   OH273624   2.981   1.240   5.438 -0.5455  0.0462  0.2855
17378TIP3    H173625   3.066   1.234   5.482 -0.0246 -1.1636 -0.8303
17378TIP3    H273626   2.950   1.329   5.456  0.7213  0.3233  1.1341
17379TIP3   OH273627   0.690   1.532  11.587  0.3356  0.3338 -0.4132
17379TIP3    H173628   0.611   1.559  11.633  1.4186  1.3556  0.8857
17379TIP3    H273629   0.711   1.606  11.529  0.9360  0.5255  0.0422
17380TIP3   OH273630   0.939   6.810  16.564 -0.5455  0.3621 -0.1701
17380TIP3    H173631   0.868   6.793  16.626 -0.1891  3.6302  1.2332
17380TIP3    H273632   1.018   6.808  16.617 -0.0296  1.2021 -0.9029
17381TIP3   OH273633   2.280   2.093  11.708  0.1007  0.5597  0.2605
17381TIP3    H173634   2.207   2.145  11.740  0.4090  1.3093 -0.2109
17381TIP3    H273635   2.354   2.154  11.708  0.7470 -0.2160  0.8346
17382TIP3   OH273636   5.348   5.314  12.392  0.1895 -0.7345 -0.3356
17382TIP3    H173637   5.276   5.268  12.437 -1.1135  1.3176 -0.2715
17382TIP3    H273638   5.419   5.316  12.456 -1.1357  0.8392  1.1423
17383TIP3   OH273639   2.229   1.861   3.689 -0.0031 -0.0324 -0.1173
17383TIP3    H173640   2.168   1.796   3.722 -0.3635 -0.2694 -1.2571
17383TIP3    H273641   2.243   1.838   3.597  2.3829 -0.4416  0.3058
17384TIP3   OH273642   1.823   2.113   5.380 -0.2267  0.1654 -0.1282
17384TIP3    H173643   1.908   2.070   5.388 -0.2224  0.1815 -0.0884
17384TIP3    H273644   1.809   2.154   5.465 -0.3057  0.1045 -0.1117
17385TIP3   OH273645   0.718   5.406   1.110 -0.3010 -0.4040 -0.0598
17385TIP3    H173646   0.752   5.487   1.148 -0.7996  0.0335 -0.5339
17385TIP3    H273647   0.737   5.415   1.016  2.2609 -2.1230  0.2464
17386TIP3   OH273648   2.807   2.278  15.893 -0.4032  0.0697  0.3249
17386TIP3    H173649   2.717   2.246  15.899 -0.7756  0.8953 -0.5999
17386TIP3    H273650   2.860   2.200  15.877 -1.0649 -0.3168 -0.0126
17387TIP3   OH273651   6.360   6.463   4.215 -0.3588  0.1608 -0.1986
17387TIP3    H173652   6.311   6.440   4.294  0.7645 -1.5543  0.0214
17387TIP3    H273653   6.321   6.409   4.146  0.4219 -0.3141 -0.2710
17388TIP3   OH273654   3.209   5.513  16.828 -0.0712 -0.8274  0.7600
17388TIP3    H173655   3.159   5.592  16.810 -0.2993 -0.5692  2.5263
17388TIP3    H273656   3.296   5.531  16.790 -0.2993  0.0332  0.6398
17389TIP3   OH273657   2.969   0.676   0.910  0.3349  0.1423 -0.0960
17389TIP3    H173658   2.994   0.677   0.818 -0.4098 -0.9714 -0.3216
17389TIP3    H273659   3.002   0.593   0.944 -0.5090 -0.0457  0.3031
17390TIP3   OH273660   1.919   2.311  15.462 -0.0498 -0.0927 -0.4583
17390TIP3    H173661   1.836   2.310  15.509  0.2077  0.2719  0.0109
17390TIP3    H273662   1.897   2.347  15.376 -0.5553 -0.9314 -0.6790
17391TIP3   OH273663   3.761   4.449   6.453  0.3329 -0.3105 -0.3671
17391TIP3    H173664   3.797   4.535   6.433  1.7171 -1.1538 -1.6206
17391TIP3    H273665   3.704   4.429   6.379  0.3311 -0.6452 -0.2770
17392TIP3   OH273666   1.936   5.337   6.152  0.1930  0.2023 -0.1590
17392TIP3    H173667   1.990   5.350   6.230 -0.2357 -0.7961  0.3192
17392TIP3    H273668   1.868   5.404   6.158 -0.6525 -0.7362  1.0663
17393TIP3   OH273669   4.397   2.041  12.786  0.3617  0.2903 -0.2178
17393TIP3    H173670   4.354   1.994  12.715 -0.5916  0.6531  0.1192
17393TIP3    H273671   4.357   2.006  12.866  1.9531 -0.6568  0.1969
17394TIP3   OH273672   0.617   0.485   5.783 -0.3942 -0.2755  0.5272
17394TIP3    H173673   0.650   0.421   5.847 -0.6324 -0.0109  0.9203
17394TIP3    H273674   0.522   0.475   5.787 -0.4617  0.5876  1.0927
17395TIP3   OH273675   1.294   1.995  15.787 -0.0211  0.1597  0.0597
17395TIP3    H173676   1.278   1.924  15.850  1.2507  0.7459  1.0719
17395TIP3    H273677   1.285   2.075  15.839  1.6122  0.6332 -0.3388
17396TIP3   OH273678   0.236   5.231   5.920 -0.5763  0.3932 -0.4427
17396TIP3    H173679   0.288   5.280   5.984 -0.1258  0.8819 -1.1683
17396TIP3    H273680   0.224   5.145   5.959 -0.1261  0.6197  0.2034
17397TIP3   OH273681   5.664   2.261  13.580 -0.7783  0.7137  0.6880
17397TIP3    H173682   5.642   2.206  13.505 -1.4201  0.8881  0.7404
17397TIP3    H273683   5.751   2.233  13.606 -2.4199 -2.6539  2.8512
17398TIP3   OH273684   3.067   6.510   3.823  0.1369 -0.2292 -0.1524
17398TIP3    H173685   3.028   6.549   3.901 -2.4437  1.0162 -1.9834
17398TIP3    H273686   3.154   6.549   3.819  0.3970 -0.4847  2.2034
17399TIP3   OH273687   1.052   4.257   3.729  0.2438 -0.7079 -0.2052
17399TIP3    H173688   1.051   4.315   3.653 -2.6318 -0.4257 -0.0192
17399TIP3    H273689   0.960   4.248   3.753  1.0434 -1.3013  2.8723
17400TIP3   OH273690   4.657   3.870  15.868  0.1297 -0.6808 -0.5433
17400TIP3    H173691   4.633   3.812  15.796  0.9740  0.9228 -2.1658
17400TIP3    H273692   4.597   3.848  15.939 -2.0081 -0.9435 -2.4065
17401TIP3   OH273693   1.256   6.106   2.459 -0.6531  0.1583  0.0461
17401TIP3    H173694   1.216   6.095   2.545 -1.7160  0.8498 -0.3550
17401TIP3    H273695   1.286   6.018   2.436 -0.7215 -0.1099  0.9422
17402TIP3   OH273696   3.126   3.525  10.737  0.7436  0.2455 -0.1728
17402TIP3    H173697   3.188   3.576  10.685  3.2071 -1.9562  0.4819
17402TIP3    H273698   3.105   3.450  10.682  1.3123 -0.7533  0.9700
17403TIP3   OH273699   0.908   5.603   6.109  0.1190  0.1262  0.4140
17403TIP3    H173700   0.908   5.530   6.171  1.1118 -0.8231 -0.6852
17403TIP3    H273701   0.856   5.671   6.152  0.1889 -0.7838  1.9651
17404TIP3   OH273702   4.283   2.915  16.441  0.1847 -0.9246 -0.1036
17404TIP3    H173703   4.263   3.008  16.441 -0.9844 -1.1367 -1.6479
17404TIP3    H273704   4.300   2.893  16.532 -0.1502  0.6608  0.3503
17405TIP3   OH273705   1.539   1.290   3.246  0.1068 -0.1063 -0.0907
17405TIP3    H173706   1.588   1.372   3.245  0.5402 -0.3278  1.5285
17405TIP3    H273707   1.601   1.225   3.212  0.4090 -0.1093  0.4698
17406TIP3   OH273708   6.222   4.696  14.327 -0.2272 -0.1260  0.1678
17406TIP3    H173709   6.209   4.620  14.384  3.2958 -1.0113 -0.1378
17406TIP3    H273710   6.200   4.771  14.383  0.4824 -1.1391  1.8328
17407TIP3   OH273711   5.387   5.516  12.867  1.0044  0.5782  0.9391
17407TIP3    H173712   5.329   5.443  12.844  1.3871  0.6709 -0.3574
17407TIP3    H273713   5.469   5.495  12.822  1.5154  1.1663  1.6055
17408TIP3   OH273714   2.045   3.465   2.683 -0.0219  0.3111  0.0969
17408TIP3    H173715   2.041   3.523   2.607  0.2660 -1.1107 -1.0307
17408TIP3    H273716   2.038   3.523   2.758 -0.0135  1.7760 -1.0155
17409TIP3   OH273717   3.891   3.118   1.602 -0.0453 -0.4086  0.1184
17409TIP3    H173718   3.943   3.107   1.681  1.6218 -2.1904 -1.1688
17409TIP3    H273719   3.844   3.200   1.615 -0.1253 -0.8746  3.1072
17410TIP3   OH273720   2.899   0.665  13.313  0.2746 -0.3523  0.0141
17410TIP3    H173721   2.982   0.704  13.286 -1.4704  2.9353 -0.8225
17410TIP3    H273722   2.901   0.668  13.409  0.7154  0.6771 -0.0180
17411TIP3   OH273723   5.534   3.733  12.188 -0.1476  0.4410  0.1431
17411TIP3    H173724   5.456   3.779  12.159 -0.7965 -0.7511 -0.0031
17411TIP3    H273725   5.509   3.641  12.192  1.5681 -0.1241 -1.0452
17412TIP3   OH273726   4.440   1.187  16.234 -0.2617 -0.4142 -0.2411
17412TIP3    H173727   4.422   1.107  16.184 -1.3931 -0.2605 -0.0794
17412TIP3    H273728   4.355   1.212  16.270  0.4477 -0.2045  1.3011
17413TIP3   OH273729   2.994   1.810  14.597 -0.1169 -0.3393 -0.0166
17413TIP3    H173730   3.079   1.792  14.557  0.2605 -0.4569  0.8210
17413TIP3    H273731   2.988   1.749  14.670 -0.8481 -0.2163  0.0301
17414TIP3   OH273732   2.084   0.284   1.760  0.7709  0.4696 -0.6504
17414TIP3    H173733   2.018   0.260   1.694 -0.0581 -0.6795  0.5737
17414TIP3    H273734   2.162   0.236   1.733  1.1021  1.7600 -2.0549
17415TIP3   OH273735   3.458   3.593   1.281  0.0972 -0.6845 -0.0817
17415TIP3    H173736   3.519   3.613   1.210  1.1439 -2.1766  0.3588
17415TIP3    H273737   3.495   3.636   1.358 -1.1180  1.0611 -0.4336
17416TIP3   OH273738   5.730   5.170  14.603  0.6095  0.0090  0.3003
17416TIP3    H173739   5.673   5.094  14.594  0.0220  0.4639  0.1562
17416TIP3    H273740   5.795   5.144  14.667 -0.0378 -0.3478  0.8148
17417TIP3   OH273741   0.850   5.594  13.593  0.0481 -0.0886 -0.4002
17417TIP3    H173742   0.871   5.687  13.584 -0.4251  0.1604  0.9851
17417TIP3    H273743   0.935   5.550  13.592  0.6945  0.8325  4.1757
17418TIP3   OH273744   2.026   4.826  14.628  0.2405  0.5309  0.3472
17418TIP3    H173745   2.034   4.918  14.653  0.4589  1.1000 -1.7524
17418TIP3    H273746   1.940   4.819  14.587  0.8947  0.1521 -0.9661
17419TIP3   OH273747   1.926   6.046  13.298  0.7927 -0.1590  0.2396
17419TIP3    H173748   1.918   5.972  13.237 -1.1694  0.7729 -0.6845
17419TIP3    H273749   1.838   6.056  13.334  1.5711  0.3005  2.1002
17420TIP3   OH273750   4.092   5.161  11.509  0.0699  0.0632 -0.1712
17420TIP3    H173751   4.058   5.071  11.512  0.0170 -0.0158 -2.3019
17420TIP3    H273752   4.063   5.194  11.424  0.4565  1.9636  0.4265
17421TIP3   OH273753   6.472   1.219  13.339  0.4682  0.3831  0.6450
17421TIP3    H173754   6.458   1.313  13.351  0.6707  0.5129 -0.0701
17421TIP3    H273755   6.553   1.214  13.288 -0.5690 -0.0982 -1.0039
17422TIP3   OH273756   1.795   0.917   4.309 -0.2695  0.5109 -0.4159
17422TIP3    H173757   1.740   0.959   4.243 -1.2269 -0.9304 -0.5518
17422TIP3    H273758   1.883   0.918   4.271 -0.6323  0.6297 -1.2604
17423TIP3   OH273759   1.540   3.136  10.825  0.4689 -0.0402 -0.6548
17423TIP3    H173760   1.572   3.117  10.914 -0.5999 -0.9238 -0.4600
17423TIP3    H273761   1.582   3.070  10.770  1.2723  0.6183 -0.8422
17424TIP3   OH273762   2.880   3.625  14.643 -0.3599  0.2092  0.2246
17424TIP3    H173763   2.815   3.664  14.702 -0.2261  0.4413  0.2190
17424TIP3    H273764   2.828   3.587  14.572 -0.5458 -0.3623  0.6566
17425TIP3   OH273765   1.634   3.171  13.180  0.0331  0.0222 -0.3366
17425TIP3    H173766   1.670   3.179  13.091 -4.5201 -0.5557 -2.3643
17425TIP3    H273767   1.572   3.098  13.174 -1.9789  1.3948  2.7461
17426TIP3   OH273768   5.165   4.029   3.667 -0.1596  0.1576 -0.0863
17426TIP3    H173769   5.143   3.994   3.580  1.3435 -0.2384 -0.3197
17426TIP3    H273770   5.216   4.108   3.648 -2.0411  1.5438  0.4463
17427TIP3   OH273771   0.375   4.222   1.384  1.1706 -0.7320  0.6065
17427TIP3    H173772   0.288   4.211   1.424  1.2732 -1.3370  0.6714
17427TIP3    H273773   0.362   4.197   1.293  0.0568  4.2751 -0.7508
17428TIP3   OH273774   5.058   5.123  16.416 -0.3409 -0.2951  0.3264
17428TIP3    H173775   4.966   5.146  16.405  0.2014  1.0163 -1.6397
17428TIP3    H273776   5.059   5.027  16.419 -1.8597 -0.2883  1.3598
17429TIP3   OH273777   2.124   4.957  11.152  0.0911 -0.0251 -0.0030
17429TIP3    H173778   2.101   4.881  11.099 -0.2248 -1.3458  1.9675
17429TIP3    H273779   2.041   5.000  11.171  0.2445  0.6835 -0.8981
17430TIP3   OH273780   4.134   3.210   0.332  0.2559 -0.6312 -0.4391
17430TIP3    H173781   4.124   3.301   0.305 -1.8950 -1.5341 -2.8985
17430TIP3    H273782   4.178   3.168   0.258  0.2552 -1.8210  0.2330
17431TIP3   OH273783   2.871   5.102  12.536  0.8479  0.1756  0.0573
17431TIP3    H173784   2.818   5.057  12.470 -2.4514  1.9585  1.3145
17431TIP3    H273785   2.893   5.035  12.600 -1.0379 -0.3835  0.1404
17432TIP3   OH273786   2.837   3.145  14.317  0.2313  0.3879 -0.6833
17432TIP3    H173787   2.784   3.068  14.298 -0.5315  0.6373  0.3864
17432TIP3    H273788   2.774   3.213  14.341  0.9356  1.1430 -0.9163
17433TIP3   OH273789   2.180   0.034   1.147  0.5380 -0.0471  0.1300
17433TIP3    H173790   2.189  -0.025   1.222 -1.4284  0.1013  0.5085
17433TIP3    H273791   2.255   0.094   1.155  1.1497 -0.9236  1.1589
17434TIP3   OH273792   6.521   3.116  11.518  0.0476  0.0113 -0.3274
17434TIP3    H173793   6.438   3.074  11.495  0.0043  0.9129 -1.8226
17434TIP3    H273794   6.500   3.209  11.525  0.3331 -0.0734  2.1545
17435TIP3   OH273795   6.587   6.440   5.283  0.9157 -0.2540 -0.2402
17435TIP3    H173796   6.657   6.424   5.219  0.1593 -1.4273 -0.7964
17435TIP3    H273797   6.632   6.446   5.367  1.6782 -1.0498 -0.5809
17436TIP3   OH273798   5.775   5.193  15.134 -0.1299 -0.1058  0.2352
17436TIP3    H173799   5.775   5.249  15.056  0.3403  2.0452  1.7205
17436TIP3    H273800   5.705   5.130  15.118  1.9438 -1.6352 -3.2218
17437TIP3   OH273801   3.143   1.938  11.783  0.0883 -0.5184 -0.0835
17437TIP3    H173802   3.196   1.981  11.716  0.5104 -1.2676 -0.2326
17437TIP3    H273803   3.109   2.010  11.836 -0.5919  0.1171 -1.3493
17438TIP3   OH273804   3.384   1.977  12.280  0.4791 -0.0363  0.3850
17438TIP3    H173805   3.301   1.953  12.239  0.5834 -0.0825  0.1997
17438TIP3    H273806   3.386   1.926  12.362  0.4934 -0.3187  0.2111
17439TIP3   OH273807   1.854   5.416   2.679  0.1940 -0.4278  0.3783
17439TIP3    H173808   1.863   5.341   2.739 -0.7385 -0.2557  0.7418
17439TIP3    H273809   1.762   5.440   2.685  0.6195  1.1453  0.7336
17440TIP3   OH273810   6.230   1.991   1.160  0.3537  0.0293  0.5649
17440TIP3    H173811   6.206   2.029   1.245 -1.0635  2.1043 -0.7294
17440TIP3    H273812   6.147   1.972   1.117  1.0608 -1.1558 -0.3073
17441TIP3   OH273813   4.214   5.801   0.453  0.2555 -0.6365 -0.3066
17441TIP3    H173814   4.268   5.880   0.462 -0.7182  0.1159 -0.8743
17441TIP3    H273815   4.200   5.772   0.543  1.2525 -0.6023 -0.1307
17442TIP3   OH273816   3.905   4.591   1.557 -0.2429 -0.1538 -0.4608
17442TIP3    H173817   3.979   4.634   1.601 -0.6068 -1.1608  1.1995
17442TIP3    H273818   3.912   4.499   1.583  0.6898 -1.2280 -4.1846
17443TIP3   OH273819   4.033   0.348   4.048 -0.0947 -0.2448 -0.1823
17443TIP3    H173820   4.037   0.437   4.082 -0.4323 -0.9808  1.8377
17443TIP3    H273821   4.055   0.292   4.122  0.3403 -1.8500 -1.4750
17444TIP3   OH273822   5.850   3.364   0.059  0.1632 -0.3322  0.5784
17444TIP3    H173823   5.844   3.325   0.147 -0.7498  0.4604  0.8709
17444TIP3    H273824   5.822   3.294   0.000 -0.9903 -0.2980  1.0654
17445TIP3   OH273825   3.951   2.725   1.249  0.0857 -1.0593 -0.1709
17445TIP3    H173826   3.931   2.817   1.267 -1.7965 -1.4209 -0.3066
17445TIP3    H273827   4.043   2.726   1.221 -0.0228  0.8362 -0.5696
17446TIP3   OH273828   0.054   4.841   3.686  0.1058 -0.1051 -0.1167
17446TIP3    H173829   0.014   4.761   3.653 -0.6828 -0.0981  0.8024
17446TIP3    H273830   0.141   4.842   3.646 -0.9893  0.1725 -2.5994
17447TIP3   OH273831   4.502   1.075  17.228 -0.3154 -0.4348  0.1479
17447TIP3    H173832   4.577   1.091  17.285 -0.6299  0.9742  0.1954
17447TIP3    H273833   4.493   0.980  17.226  0.9403 -0.5818  0.8254
17448TIP3   OH273834   0.883   1.303   0.150 -0.0296 -0.0228 -0.2206
17448TIP3    H173835   0.900   1.213   0.178  0.1185  0.2239  0.4921
17448TIP3    H273836   0.831   1.294   0.070  0.6437 -0.7515 -0.5891
17449TIP3   OH273837   2.135   5.388   2.882  0.6176  0.0287 -0.1735
17449TIP3    H173838   2.149   5.370   2.789 -0.5312  2.2416 -0.7823
17449TIP3    H273839   2.211   5.440   2.908  1.0350 -0.7497  0.1921
17450TIP3   OH273840   4.042   1.663   0.141 -0.0622 -0.7517 -0.2106
17450TIP3    H173841   4.099   1.696   0.211 -0.7366 -1.3122  0.6193
17450TIP3    H273842   3.980   1.734   0.126  0.9358 -0.0849 -1.2156
17451TIP3   OH273843   5.027   3.927  12.555  0.3005  0.5070  0.8055
17451TIP3    H173844   4.973   4.006  12.566 -0.4043  0.2904 -0.9551
17451TIP3    H273845   4.991   3.865  12.619 -0.1165  1.0958  1.1518
17452TIP3   OH273846   6.469   5.786  16.704 -0.0584  0.0324 -0.3750
17452TIP3    H173847   6.525   5.716  16.669 -0.6699  0.4442 -2.2332
17452TIP3    H273848   6.388   5.741  16.729  0.4055 -0.2728  0.6386
17453TIP3   OH273849   6.615   6.371  15.978  0.2162  0.1655  0.1597
17453TIP3    H173850   6.646   6.459  15.999  2.8806 -0.6329 -0.1674
17453TIP3    H273851   6.588   6.334  16.062 -0.7433  1.2296  0.3222
17454TIP3   OH273852   4.666   2.772  12.553 -0.1065 -0.5843  1.1943
17454TIP3    H173853   4.652   2.678  12.563 -1.5302 -0.5357 -0.0227
17454TIP3    H273854   4.602   2.813  12.612 -1.0016 -0.3841  0.1076
17455TIP3   OH273855   3.132   2.050   2.103 -0.1562  0.2006 -0.2272
17455TIP3    H173856   3.143   1.956   2.118  1.0362  0.4948  0.8233
17455TIP3    H273857   3.055   2.074   2.156  0.8342  0.2147  1.2170
17456TIP3   OH273858   5.562   1.752   3.143  0.4131  0.3355 -0.0300
17456TIP3    H173859   5.492   1.708   3.097 -0.4661  0.7168  0.9229
17456TIP3    H273860   5.538   1.845   3.140  0.9816  0.4904  0.1219
17457TIP3   OH273861   3.567   0.065   0.037 -1.0117  0.0477  0.0850
17457TIP3    H173862   3.490   0.113   0.008 -1.5447 -0.8826 -0.0480
17457TIP3    H273863   3.621   0.055  -0.042 -1.6247 -0.9133 -0.2214
17458TIP3   OH273864   6.327   2.836  15.579 -0.6664  0.4041 -0.6837
17458TIP3    H173865   6.247   2.879  15.548 -1.3896  0.5465  1.2728
17458TIP3    H273866   6.299   2.788  15.657  0.7544 -1.1925 -1.1326
17459TIP3   OH273867   0.135   0.408   3.898 -0.1470  0.2455 -0.1189
17459TIP3    H173868   0.219   0.447   3.874  0.0704 -0.4825 -0.5856
17459TIP3    H273869   0.093   0.388   3.814 -0.6334  0.2855  0.1108
17460TIP3   OH273870   2.002   2.375   1.593  0.0438  0.4186 -0.3067
17460TIP3    H173871   1.996   2.377   1.688 -1.2488 -0.5214 -0.3550
17460TIP3    H273872   2.056   2.451   1.570  0.1544  0.7829  1.1493
17461TIP3   OH273873   2.250   4.391  13.364 -0.7538 -0.2758  0.5723
17461TIP3    H173874   2.313   4.410  13.294  1.3492  1.5581  2.8541
17461TIP3    H273875   2.173   4.357  13.318  1.3266 -1.1653 -2.4390
17462TIP3   OH273876   1.756   1.046  13.028 -0.1010  0.1891 -0.2320
17462TIP3    H173877   1.771   1.138  13.046  0.8066  0.2211 -1.0856
17462TIP3    H273878   1.736   1.043  12.934  0.5625 -0.5563 -0.3580
17463TIP3   OH273879   6.445   0.105   0.261 -0.5057 -0.5213  0.0486
17463TIP3    H173880   6.426   0.011   0.268  0.2979 -0.6645  0.4001
17463TIP3    H273881   6.443   0.137   0.351 -1.5689 -0.0346 -0.1410
17464TIP3   OH273882   0.960   4.832   0.978  0.0912 -0.1037  0.4182
17464TIP3    H173883   0.889   4.823   1.042 -0.5248 -0.3731 -0.3056
17464TIP3    H273884   1.034   4.786   1.019 -0.6974 -1.4981  0.3289
17465TIP3   OH273885   5.243   2.884  10.816  0.3283 -0.0904  0.1883
17465TIP3    H173886   5.154   2.849  10.823 -0.8902  2.7960  0.0812
17465TIP3    H273887   5.242   2.934  10.734  2.1834 -0.3273  0.0004
17466TIP3   OH273888   3.344   5.395   4.555  0.4389  0.3920 -0.0212
17466TIP3    H173889   3.352   5.488   4.532  0.4433  1.1285  2.7114
17466TIP3    H273890   3.257   5.370   4.524  0.4059  1.3318 -0.7136
17467TIP3   OH273891   5.349   2.961   0.645 -0.4269  0.1964 -0.1481
17467TIP3    H173892   5.369   2.973   0.552 -0.0807 -0.6617 -0.1925
17467TIP3    H273893   5.422   2.909   0.678 -1.0522 -0.3510  0.3793
17468TIP3   OH273894   4.040   4.024   5.074  0.3533 -0.1443 -0.2848
17468TIP3    H173895   3.997   4.076   5.006 -0.4023 -2.0638 -1.2892
17468TIP3    H273896   4.127   4.065   5.083 -0.5066  1.7871 -0.4726
17469TIP3   OH273897   4.223   0.597   2.379  0.1577  0.3026 -0.1206
17469TIP3    H173898   4.207   0.678   2.428  1.6307  1.7357 -1.9182
17469TIP3    H273899   4.248   0.533   2.445 -0.8223  1.3590  1.3181
17470TIP3   OH273900   3.172   0.905  17.281 -0.3033 -0.4486  0.0962
17470TIP3    H173901   3.128   0.990  17.276 -0.2356 -0.4081  0.1865
17470TIP3    H273902   3.212   0.904  17.368 -0.7005 -0.7668  0.2817
17471TIP3   OH273903   6.162   2.986   4.231 -0.4136  0.0122  0.5608
17471TIP3    H173904   6.211   3.066   4.250 -0.4963 -0.1383  1.4060
17471TIP3    H273905   6.156   2.940   4.315 -0.6461 -0.7271  0.1475
17472TIP3   OH273906   6.791   3.515   4.117  0.2219  0.1197 -0.0162
17472TIP3    H173907   6.770   3.424   4.096 -0.1027  0.1008  0.3903
17472TIP3    H273908   6.886   3.517   4.122  0.2029 -0.3541  0.6557
17473TIP3   OH273909   1.605   5.102   1.656  0.4427 -0.0616 -0.2515
17473TIP3    H173910   1.556   5.100   1.738  0.4000  0.6055 -0.2576
17473TIP3    H273911   1.542   5.135   1.592  0.0118 -1.9885 -0.8767
17474TIP3   OH273912   3.994   5.069   4.675 -0.8411 -0.6630 -0.0332
17474TIP3    H173913   4.028   5.030   4.756  1.0044 -0.4785 -0.7049
17474TIP3    H273914   4.029   5.014   4.605 -0.4636  0.5826 -0.8396
17475TIP3   OH273915   6.087   4.433   3.548  0.1383  0.0633  0.3128
17475TIP3    H173916   6.138   4.359   3.515  0.2601  0.6120 -0.7776
17475TIP3    H273917   6.070   4.487   3.470 -1.3805  0.3275  0.8034
17476TIP3   OH273918   3.571   0.776   5.817 -0.0647  0.4996 -0.8150
17476TIP3    H173919   3.649   0.728   5.791 -0.1222 -0.7061  1.1700
17476TIP3    H273920   3.604   0.850   5.868 -0.0456  2.0121 -2.9333
17477TIP3   OH273921   3.945   4.385   1.327  0.9524  0.1257  0.4124
17477TIP3    H173922   3.920   4.398   1.235 -2.3997 -1.5997  0.9755
17477TIP3    H273923   3.925   4.469   1.369  1.6712  0.6416 -0.2693
17478TIP3   OH273924   0.524   1.565  12.557 -0.6749  0.4533  0.2005
17478TIP3    H173925   0.509   1.642  12.502 -0.3819  0.3043 -0.0857
17478TIP3    H273926   0.567   1.502  12.499 -0.9166  0.0748  0.4367
17479TIP3   OH273927   2.008   0.156  15.171 -0.6141 -0.0283  0.0431
17479TIP3    H173928   2.088   0.201  15.198 -0.6253 -0.2629  0.4758
17479TIP3    H273929   1.979   0.203  15.093 -1.8679  2.1545  1.7417
17480TIP3   OH273930   0.623   1.669   3.502  0.6053 -0.1671 -0.2826
17480TIP3    H173931   0.689   1.684   3.570  2.4536 -0.5768 -1.9098
17480TIP3    H273932   0.596   1.756   3.475  1.3139  0.0351 -0.3620
17481TIP3   OH273933   0.893   4.191  15.036 -0.5878 -0.1192 -0.1574
17481TIP3    H173934   0.902   4.285  15.019 -3.1447 -0.0306 -1.3147
17481TIP3    H273935   0.882   4.185  15.131  1.1876  0.5887  0.1096
17482TIP3   OH273936   1.699   1.290  15.308  0.5936  0.3457  0.1688
17482TIP3    H173937   1.715   1.384  15.316 -0.8103  0.6881 -0.8291
17482TIP3    H273938   1.742   1.264  15.226 -0.6515  0.5105 -0.5457
17483TIP3   OH273939   5.284   5.440  15.262  0.6201  0.2857 -0.2725
17483TIP3    H173940   5.300   5.345  15.267  1.6000  0.4172 -0.7371
17483TIP3    H273941   5.207   5.454  15.317 -0.0313 -0.8972 -0.8559
17484TIP3   OH273942   0.824   4.886  16.128  0.0030 -0.3632  0.4386
17484TIP3    H173943   0.758   4.857  16.066 -1.1713  0.6225  1.2241
17484TIP3    H273944   0.805   4.836  16.208  1.2859 -1.3580  0.1528
17485TIP3   OH273945   4.085   2.778   0.870  0.0147 -0.3183 -0.0499
17485TIP3    H173946   4.133   2.725   0.934 -0.4238  1.8149  2.1056
17485TIP3    H273947   3.993   2.761   0.890 -0.1345  1.5890  0.9936
17486TIP3   OH273948   3.967   1.422   0.843  0.3954 -0.5104  0.5114
17486TIP3    H173949   4.016   1.342   0.831 -0.0176 -0.4118 -2.0132
17486TIP3    H273950   3.876   1.399   0.821  0.5306  0.9904 -1.8279
17487TIP3   OH273951   1.548   2.127   1.192  0.3187 -0.0639 -0.0505
17487TIP3    H173952   1.632   2.127   1.146 -0.2217  0.5576 -1.0424
17487TIP3    H273953   1.567   2.168   1.277  0.7948  1.0662 -0.6904
17488TIP3   OH273954   0.480   1.238  12.353 -0.2162  0.1990 -0.0501
17488TIP3    H173955   0.505   1.224  12.445 -0.2581  1.6038  0.2014
17488TIP3    H273956   0.520   1.166  12.305  0.3136 -0.2133  0.9985
17489TIP3   OH273957   2.682   3.949   3.187  0.1666  0.1180  0.4417
17489TIP3    H173958   2.613   3.933   3.123  0.3097 -0.4461  0.4260
17489TIP3    H273959   2.668   4.039   3.215 -0.2112  0.2000 -0.0032
17490TIP3   OH273960   0.642   5.214  17.029 -0.9032 -0.4104 -0.1002
17490TIP3    H173961   0.598   5.230  17.112 -1.3221 -0.4959 -0.3059
17490TIP3    H273962   0.585   5.253  16.963 -1.6442 -2.2038 -0.5493
17491TIP3   OH273963   4.676   3.118  10.203 -0.0011  0.1222 -0.3229
17491TIP3    H173964   4.730   3.195  10.222  0.1885 -0.4207  1.4842
17491TIP3    H273965   4.636   3.137  10.118  1.6119  1.3178 -0.8420
17492TIP3   OH273966   2.979   0.427   4.928  0.2236 -0.3977 -0.0236
17492TIP3    H173967   2.960   0.480   4.851 -0.5218  1.1241  1.1738
17492TIP3    H273968   3.047   0.366   4.899 -0.2265 -0.0264 -1.9366
17493TIP3   OH273969   4.083   6.662   2.628 -0.3965  0.4836 -0.1286
17493TIP3    H173970   4.169   6.705   2.629  0.2867 -0.8814  1.3935
17493TIP3    H273971   4.052   6.675   2.538  0.3250  3.0552 -0.0567
17494TIP3   OH273972   0.322   3.382  14.636 -0.3292 -0.6084  0.9930
17494TIP3    H173973   0.325   3.338  14.721 -1.0125  0.7811  1.7459
17494TIP3    H273974   0.262   3.456  14.649 -0.6398 -0.5246 -0.7586
17495TIP3   OH273975   0.397   4.197  13.016 -0.0853  0.4394  0.5705
17495TIP3    H173976   0.306   4.170  12.999 -0.4060  1.7674  0.1670
17495TIP3    H273977   0.432   4.216  12.929  0.7368 -0.5511  0.6822
17496TIP3   OH273978   5.515   2.281  15.595  0.2046  0.1622  0.0026
17496TIP3    H173979   5.576   2.210  15.580  0.8231  0.8142 -0.5887
17496TIP3    H273980   5.546   2.352  15.538 -0.5079  0.8373  0.4487
17497TIP3   OH273981   0.214   3.001   0.294  0.4198  0.0136 -0.7250
17497TIP3    H173982   0.171   2.925   0.256 -0.1216 -0.6447  1.1977
17497TIP3    H273983   0.287   3.019   0.234  0.0005 -1.4418 -1.6893
17498TIP3   OH273984   4.144   5.933  14.236  0.2049 -0.0701  0.4328
17498TIP3    H173985   4.050   5.946  14.226  0.1489 -0.9385 -0.2806
17498TIP3    H273986   4.153   5.841  14.262  1.0632 -1.2654 -3.6766
17499TIP3   OH273987   5.668   3.130   2.757 -0.0253 -0.0469  0.8736
17499TIP3    H173988   5.658   3.126   2.662  1.2838 -0.4223  0.7430
17499TIP3    H273989   5.582   3.158   2.789 -0.1837  1.0796 -0.4871
17500TIP3   OH273990   0.958   5.730  14.024  0.1321 -0.2148 -0.2662
17500TIP3    H173991   0.897   5.730  14.098 -0.8963  0.3406 -1.1104
17500TIP3    H273992   0.903   5.743  13.947  1.4063  1.2939 -0.9609
17501TIP3   OH273993   4.358   1.103   4.555  0.0020  0.4777 -0.5766
17501TIP3    H173994   4.392   1.144   4.476  1.2432 -0.6120 -0.6234
17501TIP3    H273995   4.371   1.167   4.624  2.8066 -0.1523 -0.4603
17502TIP3   OH273996   5.272   1.023  14.600 -0.1161  0.1759  0.4251
17502TIP3    H173997   5.254   0.979  14.518  0.2712  2.4334 -0.9159
17502TIP3    H273998   5.226   1.107  14.593  1.1777  1.0380  1.8649
17503TIP3   OH273999   1.375   1.280   2.048  0.1802  0.2398 -0.1484
17503TIP3    H174000   1.419   1.364   2.039  0.4123  0.2462  1.0454
17503TIP3    H274001   1.435   1.216   2.009 -0.0612  0.6278 -1.1880
17504TIP3   OH274002   6.067   6.594   1.603  0.1691 -0.2455 -0.1577
17504TIP3    H174003   6.130   6.660   1.632 -0.4187  0.1146  0.3115
17504TIP3    H274004   6.121   6.516   1.585  0.7795  0.1388 -0.0297
17505TIP3   OH274005   4.829   1.773   2.054 -0.4132  0.3453 -0.4736
17505TIP3    H174006   4.809   1.705   2.119 -0.4062  1.0369  0.2553
17505TIP3    H274007   4.851   1.724   1.974 -2.0710 -0.4880 -0.4413
17506TIP3   OH274008   0.570   6.687  16.140 -0.1118  0.0049 -0.8230
17506TIP3    H174009   0.509   6.624  16.178  0.1534  0.2449  0.0199
17506TIP3    H274010   0.526   6.771  16.150 -0.9137 -0.1516 -2.8778
17507TIP3   OH274011   6.606   0.945   4.381 -0.3344  0.3654  0.2839
17507TIP3    H174012   6.577   1.035   4.367 -1.2751  0.1531  0.8211
17507TIP3    H274013   6.699   0.952   4.399 -0.7617  1.4438  2.2624
17508TIP3   OH274014   1.554   6.684   1.150  0.0339  0.4569 -0.4444
17508TIP3    H174015   1.630   6.641   1.189  0.7890  2.5186  0.4242
17508TIP3    H274016   1.560   6.664   1.057  0.9302 -0.4540 -0.1956
17509TIP3   OH274017   1.963   0.942  13.175  0.2545  0.2835  0.5448
17509TIP3    H174018   1.884   0.967  13.127 -0.0862  1.6684  1.7757
17509TIP3    H274019   1.997   0.867  13.128 -1.8125 -0.3374 -0.0095
17510TIP3   OH274020   0.968   3.938  16.982 -0.3743  0.5438 -0.1914
17510TIP3    H174021   1.034   3.922  16.914  0.0742  0.0627  0.3509
17510TIP3    H274022   0.887   3.904  16.945  0.2547 -1.5417  0.2953
17511TIP3   OH274023   3.560   2.276   4.292  0.3601  0.5705  0.0200
17511TIP3    H174024   3.488   2.219   4.262 -0.5998  0.7281  1.9517
17511TIP3    H274025   3.537   2.297   4.382  2.4027  1.3735  0.3637
17512TIP3   OH274026   1.920   2.193   4.158  0.2300  0.5867  0.0425
17512TIP3    H174027   2.003   2.200   4.205 -0.6985 -0.2546  1.8620
17512TIP3    H274028   1.926   2.111   4.110 -0.9575 -1.4054  3.1325
17513TIP3   OH274029   2.484   5.795   0.010  0.4345 -0.5175  0.2182
17513TIP3    H174030   2.558   5.737  -0.008 -0.1693 -1.3984  0.5600
17513TIP3    H274031   2.508   5.840   0.091  1.0624 -0.0147 -0.2436
17514TIP3   OH274032   4.803   5.765   5.744  0.1788 -0.3987 -0.2156
17514TIP3    H174033   4.811   5.834   5.811  0.0934 -0.0792 -0.5352
17514TIP3    H274034   4.852   5.798   5.669  0.0515 -0.6426 -0.4063
17515TIP3   OH274035   3.931   3.836  12.218 -0.2704  0.5828 -0.6463
17515TIP3    H174036   3.910   3.750  12.183 -0.0877  0.7638 -1.1966
17515TIP3    H274037   3.896   3.898  12.154 -0.0363  0.9168 -0.4555
17516TIP3   OH274038   4.178   1.283   3.631  0.5289 -0.0199  0.0657
17516TIP3    H174039   4.163   1.375   3.608  2.3869  0.7907  1.8767
17516TIP3    H274040   4.093   1.252   3.663 -0.8878  0.1422 -3.3621
17517TIP3   OH274041   1.899   1.583   1.088  0.6570  0.1903  0.0965
17517TIP3    H174042   1.868   1.526   1.018 -0.6733  0.3816  0.5263
17517TIP3    H274043   1.838   1.568   1.160 -0.3921  2.9768 -0.1568
17518TIP3   OH274044   3.584   0.678  16.467 -0.0856 -0.0271 -0.5842
17518TIP3    H174045   3.513   0.739  16.448 -0.4051  0.3715  1.6921
17518TIP3    H274046   3.662   0.734  16.473 -0.1006 -0.0548 -0.1106
17519TIP3   OH274047   2.835   3.883   3.959 -0.0971  0.3479 -0.5322
17519TIP3    H174048   2.847   3.952   3.893  1.1530  0.3209 -0.3389
17519TIP3    H274049   2.816   3.805   3.908  0.1106  0.4878 -0.8270
17520TIP3   OH274050   0.909   4.326   6.012  0.0708  0.7715 -0.3525
17520TIP3    H174051   0.957   4.274   6.076  1.1057 -0.4812 -2.1051
17520TIP3    H274052   0.849   4.379   6.064  0.4132 -0.7106  1.6001
17521TIP3   OH274053   3.045   0.495   4.305 -0.4246 -0.0229 -0.5841
17521TIP3    H174054   3.073   0.406   4.284  1.8415  0.3896  0.5553
17521TIP3    H274055   3.112   0.528   4.365 -0.8252  2.7056 -1.5420
17522TIP3   OH274056   5.411   2.800   5.048  0.2265 -0.2614 -0.2127
17522TIP3    H174057   5.429   2.886   5.011 -0.9026  0.6690  1.3418
17522TIP3    H274058   5.343   2.815   5.113 -0.6429 -2.4679 -0.5344
17523TIP3   OH274059   3.767   4.678   4.921  0.2894 -0.2564  0.0047
17523TIP3    H174060   3.809   4.612   4.977  0.7762 -0.9650 -1.1846
17523TIP3    H274061   3.836   4.706   4.862 -0.4855 -0.2307 -0.8920
17524TIP3   OH274062   1.154   5.799   4.813 -0.1617 -0.2060 -0.5936
17524TIP3    H174063   1.231   5.761   4.855 -0.8885  0.9580  1.8630
17524TIP3    H274064   1.173   5.893   4.808 -1.6742  0.1833  0.6539
17525TIP3   OH274065   3.075   3.050   0.927 -0.0125 -0.1983 -0.0718
17525TIP3    H174066   3.078   3.144   0.905 -1.1796 -0.7644 -2.8584
17525TIP3    H274067   3.150   3.037   0.985  0.8874  2.2394 -0.6315
17526TIP3   OH274068   0.055   5.663  13.879  0.3328  0.1268 -0.0693
17526TIP3    H174069   0.122   5.695  13.819  1.6179 -3.3299 -0.6181
17526TIP3    H274070   0.093   5.675  13.966  1.1653 -0.6491 -0.3169
17527TIP3   OH274071   5.618   5.065  17.018 -0.6645 -0.0978 -0.3316
17527TIP3    H174072   5.569   5.147  17.012  0.4594  0.5579 -0.7013
17527TIP3    H274073   5.592   5.028  17.102  0.6281  1.8444  0.9672
17528TIP3   OH274074   1.191   4.454   5.569 -0.2668 -0.3504  0.1661
17528TIP3    H174075   1.211   4.541   5.603 -1.9660  0.7250 -1.5238
17528TIP3    H274076   1.121   4.421   5.626 -0.6796  0.0195 -0.1245
17529TIP3   OH274077   4.357   4.186  11.177  0.3035  0.1316  0.5580
17529TIP3    H174078   4.377   4.277  11.152 -0.7041 -0.0132 -0.8828
17529TIP3    H274079   4.264   4.176  11.154  0.4032 -1.2473  0.7576
17530TIP3   OH274080   1.625   6.302   0.164 -0.2690 -0.3205  0.5586
17530TIP3    H174081   1.649   6.374   0.223  1.0720 -0.2465 -0.0612
17530TIP3    H274082   1.705   6.284   0.114 -0.5482 -2.3482  0.8028
17531TIP3   OH274083   2.217   3.526  14.999 -0.0645  0.3316 -0.5513
17531TIP3    H174084   2.125   3.544  15.014  0.2414  0.7619  0.9060
17531TIP3    H274085   2.263   3.605  15.028  0.7639  0.0905 -1.1775
17532TIP3   OH274086   6.646   0.173   0.063  0.3316 -0.4492 -0.3386
17532TIP3    H174087   6.692   0.090   0.051 -0.6796 -0.7664 -2.0783
17532TIP3    H274088   6.589   0.158   0.139  1.1010 -0.9233  0.1468
17533TIP3   OH274089   0.885   0.901  13.487  0.0693  0.0631 -0.1876
17533TIP3    H174090   0.844   0.830  13.438 -1.0712  1.1223 -0.8167
17533TIP3    H274091   0.977   0.899  13.461  0.1160 -1.4048  0.0874
17534TIP3   OH274092   4.926   1.221  12.165  0.1226  0.5162  0.3371
17534TIP3    H174093   4.834   1.214  12.191  0.0893 -0.2475  0.0499
17534TIP3    H274094   4.928   1.291  12.100 -0.5273 -0.4979 -0.8117
17535TIP3   OH274095   4.926   0.681  14.321 -0.4392  0.5215 -0.5482
17535TIP3    H174096   4.844   0.686  14.369 -0.4572  0.9983 -0.6316
17535TIP3    H274097   4.936   0.767  14.279 -1.1045 -0.3182 -2.5023
17536TIP3   OH274098   2.398   1.769   0.231  0.1177 -0.8366  0.2453
17536TIP3    H174099   2.359   1.697   0.280  0.9373 -1.4830 -0.0555
17536TIP3    H274100   2.472   1.798   0.285 -0.0411 -0.3997  0.2337
17537TIP3   OH274101   5.305   6.167   3.705 -0.4426 -0.1518  0.5513
17537TIP3    H174102   5.381   6.152   3.649  0.7461 -3.0984  2.7664
17537TIP3    H274103   5.263   6.245   3.669  2.0777 -0.0452 -2.3864
17538TIP3   OH274104   3.005   3.720   3.417 -0.6227 -0.5254 -0.1099
17538TIP3    H174105   2.981   3.628   3.404 -0.3862 -0.5630 -0.2805
17538TIP3    H274106   3.100   3.719   3.420 -0.6706 -0.6446  2.4308
17539TIP3   OH274107   5.151   1.758   4.889  0.7863 -0.2039  0.1275
17539TIP3    H174108   5.074   1.739   4.942  0.4699 -0.0871 -0.2913
17539TIP3    H274109   5.124   1.738   4.799  1.7406 -1.7231  0.1493
17540TIP3   OH274110   0.682   1.233   3.949  0.2004  0.0779 -0.2938
17540TIP3    H174111   0.762   1.281   3.967 -1.2900  2.5516 -0.0193
17540TIP3    H274112   0.682   1.160   4.011  1.6114  0.7820  0.5356
17541TIP3   OH274113   1.068   2.573  16.926 -0.4563 -0.1824  0.2192
17541TIP3    H174114   1.084   2.499  16.986 -1.0256 -0.4555  0.0457
17541TIP3    H274115   1.117   2.646  16.964 -0.5776 -0.4293  0.8670
17542TIP3   OH274116   4.671   1.057  16.330  0.3587 -0.5029  0.4441
17542TIP3    H174117   4.589   1.107  16.335  1.2782  1.2710 -1.3175
17542TIP3    H274118   4.643   0.966  16.323 -1.4743  0.1121 -0.6683
17543TIP3   OH274119   5.777   2.909  15.949  0.0422 -1.0085 -0.0418
17543TIP3    H174120   5.710   2.933  15.885  0.2420 -0.7832 -0.1672
17543TIP3    H274121   5.730   2.903  16.032 -0.0642 -0.4797 -0.0615
17544TIP3   OH274122   2.561   0.432  11.632  0.1653  0.6824  0.3127
17544TIP3    H174123   2.647   0.462  11.661  1.6694 -1.5587 -1.6318
17544TIP3    H274124   2.550   0.346  11.673 -0.0484 -0.1233 -1.3898
17545TIP3   OH274125   2.457   3.948   5.545 -0.0375 -0.2515  0.2293
17545TIP3    H174126   2.534   3.937   5.601 -0.5340 -2.1306  0.5495
17545TIP3    H274127   2.420   4.032   5.573  0.2606 -0.7018  2.0750
17546TIP3   OH274128   2.548   5.162   5.305 -0.7128  0.2754 -0.5387
17546TIP3    H174129   2.578   5.124   5.222  0.4009  0.6630 -0.3334
17546TIP3    H274130   2.613   5.231   5.324 -2.4321  1.9674 -0.6737
17547TIP3   OH274131   2.282   6.515  15.065  0.1319 -0.2802 -0.4940
17547TIP3    H174132   2.327   6.466  15.134  0.4536  1.4308  0.5701
17547TIP3    H274133   2.191   6.522  15.096  0.3056  0.6006 -0.1647
17548TIP3   OH274134   2.630   0.036  12.390 -0.3648 -0.0764 -0.1725
17548TIP3    H174135   2.619   0.130  12.384 -1.6450 -0.3113 -2.0490
17548TIP3    H274136   2.717   0.019  12.353 -0.2100  0.3535  0.0010
17549TIP3   OH274137   4.297   4.960   4.130  0.2135  0.9406  0.2415
17549TIP3    H174138   4.220   4.909   4.156 -0.0032  1.1768  0.0653
17549TIP3    H274139   4.298   4.955   4.035 -0.8880  2.8288  0.1084
17550TIP3   OH274140   4.602   2.719   0.274 -0.3303 -0.3974 -0.1878
17550TIP3    H174141   4.524   2.773   0.287 -0.2360 -0.4759  0.7259
17550TIP3    H274142   4.674   2.781   0.270 -0.2180 -0.4448  0.8910
17551TIP3   OH274143   5.032   3.816   1.314 -0.0838 -0.0493 -0.4487
17551TIP3    H174144   5.095   3.849   1.250 -0.7514 -0.3519 -1.2738
17551TIP3    H274145   5.050   3.722   1.318  2.4644  0.4922  2.6106
17552TIP3   OH274146   4.608   3.212   3.684  0.7210  0.0312  0.3519
17552TIP3    H174147   4.681   3.178   3.633 -0.9159 -0.5968 -1.6499
17552TIP3    H274148   4.623   3.307   3.688 -0.0041  0.3344 -2.8467
17553TIP3   OH274149   6.372   4.109  14.594 -0.3213 -0.4015  0.4321
17553TIP3    H174150   6.432   4.177  14.562 -0.5437  0.4400  1.7422
17553TIP3    H274151   6.420   4.027  14.583  0.8141  0.1935  0.8346
17554TIP3   OH274152   6.402   2.802  11.170  0.4751 -0.5126  0.1497
17554TIP3    H174153   6.428   2.753  11.248 -0.1044 -1.3803 -0.1998
17554TIP3    H274154   6.309   2.784  11.159 -0.0851  1.8323  0.8427
17555TIP3   OH274155   4.473   6.365  15.747  0.4637 -0.2252  0.2798
17555TIP3    H174156   4.516   6.280  15.736  1.1997  0.0972  0.6620
17555TIP3    H274157   4.544   6.429  15.742 -0.0835  0.3705  0.0349
17556TIP3   OH274158   0.307   5.804   1.183 -0.0160  0.8209 -0.2673
17556TIP3    H174159   0.271   5.761   1.105 -1.0468  0.3062  0.4746
17556TIP3    H274160   0.385   5.753   1.204 -0.8614 -0.3021  0.2112
17557TIP3   OH274161   5.916   5.728  16.374 -0.0330  0.3525 -0.5838
17557TIP3    H174162   5.868   5.777  16.307  1.7669  1.2810 -1.2243
17557TIP3    H274163   5.973   5.794  16.414  1.6996 -1.0317 -0.7646
17558TIP3   OH274164   4.450   3.349  11.080  0.6107  0.2513 -0.4942
17558TIP3    H174165   4.431   3.255  11.083  0.4685  0.3387  1.5669
17558TIP3    H274166   4.499   3.360  10.998  3.1129 -2.0537  0.6262
17559TIP3   OH274167   2.335   5.204  12.146 -0.6453  0.9849 -0.3605
17559TIP3    H174168   2.339   5.109  12.158  1.6948  0.9130 -1.4061
17559TIP3    H274169   2.420   5.236  12.175 -1.2961  2.7487 -0.3088
17560TIP3   OH274170   4.695   1.326  15.117 -0.0513  0.2637  0.7220
17560TIP3    H174171   4.704   1.410  15.161 -3.0116  1.6037 -1.0918
17560TIP3    H274172   4.719   1.342  15.026 -1.3559 -0.6301  0.1939
17561TIP3   OH274173   0.878   2.412   2.242 -0.1359  0.3094  0.5679
17561TIP3    H174174   0.831   2.401   2.325  0.8574  0.7796  1.1956
17561TIP3    H274175   0.941   2.482   2.259 -0.4018  0.9054 -0.7931
17562TIP3   OH274176   1.288   0.709  14.929  0.2715  0.0847 -0.0302
17562TIP3    H174177   1.317   0.618  14.924  0.4605  0.2290 -1.6930
17562TIP3    H274178   1.352   0.751  14.987  1.5055 -0.3423 -1.0602
17563TIP3   OH274179   4.811   2.528  10.832  0.2332  0.4204 -0.1972
17563TIP3    H174180   4.759   2.459  10.790 -0.5452  1.3423 -0.7617
17563TIP3    H274181   4.852   2.575  10.760  1.0812  0.3135  0.2061
17564TIP3   OH274182   1.606   4.002  15.195  0.0940 -0.0453 -0.6243
17564TIP3    H174183   1.561   3.920  15.175  1.0136 -0.4092 -1.2298
17564TIP3    H274184   1.649   4.027  15.113  0.1200  0.8579 -0.3498
17565TIP3   OH274185   0.062   5.436   1.511 -0.0116  0.2725 -0.2450
17565TIP3    H174186  -0.005   5.407   1.572  0.5118 -1.7545 -0.5749
17565TIP3    H274187   0.101   5.513   1.552 -1.7025  0.7383  0.5177
17566TIP3   OH274188   3.245   4.526  14.291 -0.5704 -0.0380  0.6654
17566TIP3    H174189   3.317   4.550  14.232 -1.3796 -1.3210 -0.8847
17566TIP3    H274190   3.288   4.489  14.368  0.4459 -0.5970 -0.1580
17567TIP3   OH274191   0.770   3.089   1.848 -0.4120  0.4466 -0.1405
17567TIP3    H174192   0.816   3.040   1.915 -0.1720 -0.4159 -0.9249
17567TIP3    H274193   0.735   3.022   1.789  0.8650  1.2533 -1.8475
17568TIP3   OH274194   3.290   6.334   2.603 -0.3775  0.1667 -0.2231
17568TIP3    H174195   3.319   6.420   2.575 -0.6562  1.1656  2.4495
17568TIP3    H274196   3.273   6.343   2.697 -0.7781 -2.6867  0.0331
17569TIP3   OH274197   1.420   2.408   4.247  0.0010 -0.1767 -0.4981
17569TIP3    H174198   1.370   2.337   4.207 -1.0339 -0.5969  1.4425
17569TIP3    H274199   1.510   2.375   4.249 -0.0581 -0.4339 -1.7822
17570TIP3   OH274200   0.726   4.548   2.020  0.0907 -0.0847 -0.6922
17570TIP3    H174201   0.797   4.486   2.034  0.4812  0.4669 -0.2146
17570TIP3    H274202   0.716   4.551   1.924 -0.3653 -1.3547 -0.6929
17571TIP3   OH274203   0.092   1.463  12.091 -0.6743  0.1080  0.9733
17571TIP3    H174204   0.116   1.529  12.026 -0.4187 -0.5954  0.3531
17571TIP3    H274205   0.171   1.450  12.143  0.0150 -1.4812 -0.4406
17572TIP3   OH274206   6.644   4.429   6.442 -0.9206  0.2721  0.0341
17572TIP3    H174207   6.704   4.495   6.474 -0.0852 -0.4079 -0.1154
17572TIP3    H274208   6.562   4.476   6.427  0.0631  1.5718 -1.4343
17573TIP3   OH274209   3.899   4.187  14.759 -0.3184 -0.3560 -0.0826
17573TIP3    H174210   3.930   4.099  14.737 -0.2149  0.1370 -1.9693
17573TIP3    H274211   3.805   4.177  14.768 -0.2486 -0.7590  0.2659
17574TIP3   OH274212   2.531   6.104   5.194  0.1382  0.3554 -0.3765
17574TIP3    H174213   2.466   6.174   5.197  0.1221  0.3519 -0.6275
17574TIP3    H274214   2.615   6.149   5.182  0.1313  0.3337 -0.5078
17575TIP3   OH274215   2.147   6.810   4.679 -0.0482 -0.0744 -0.5517
17575TIP3    H174216   2.081   6.741   4.686 -0.5672  0.4472 -0.2815
17575TIP3    H274217   2.160   6.822   4.585  1.3291 -1.7566 -0.6134
17576TIP3   OH274218   6.452   1.454   4.381 -0.1358  0.3526  0.3167
17576TIP3    H174219   6.433   1.367   4.345 -0.1458  0.8582 -0.9225
17576TIP3    H274220   6.538   1.443   4.422  0.1028 -0.1103 -0.2931
17577TIP3   OH274221   5.563   3.570   1.343  0.0545 -0.2931 -0.4807
17577TIP3    H174222   5.531   3.485   1.374  2.3321 -1.3885 -0.9911
17577TIP3    H274223   5.511   3.588   1.265 -0.8331 -0.9592 -0.0540
17578TIP3   OH274224   5.583   2.352   3.728 -0.6392 -0.0841  0.2426
17578TIP3    H174225   5.554   2.333   3.817 -0.3378 -1.8161 -0.0077
17578TIP3    H274226   5.549   2.439   3.709 -1.9542 -0.3114  1.5209
17579TIP3   OH274227   0.595   6.008  15.713 -0.3934  0.1516  0.1024
17579TIP3    H174228   0.563   5.925  15.748  0.2201  0.1622  0.6867
17579TIP3    H274229   0.609   6.063  15.790 -1.9690  1.2235 -0.3553
17580TIP3   OH274230   5.718   0.814   0.172 -0.1638  0.1418 -0.2545
17580TIP3    H174231   5.755   0.868   0.103  0.5023 -1.4310 -1.1707
17580TIP3    H274232   5.663   0.750   0.125  0.6381 -1.2098  0.6120
17581TIP3   OH274233   3.858   4.326  15.938  0.0309 -0.3084  0.1495
17581TIP3    H174234   3.784   4.386  15.950  0.3792  0.3212 -0.7350
17581TIP3    H274235   3.933   4.383  15.924  0.6041 -0.9502  0.5917
17582TIP3   OH274236   6.549   6.554  11.361  0.5431 -0.2928  0.1417
17582TIP3    H174237   6.530   6.496  11.287 -0.8050  0.0090  0.2338
17582TIP3    H274238   6.616   6.509  11.411  0.7307 -0.9760 -0.7132
17583TIP3   OH274239   4.715   0.559  14.954 -0.6920  0.4458 -0.4487
17583TIP3    H174240   4.716   0.597  14.866  1.9563  0.0038 -0.6405
17583TIP3    H274241   4.739   0.632  15.012 -4.2022  1.2105  0.1733
17584TIP3   OH274242   0.283   3.415  16.075 -0.1054 -0.6188 -0.3739
17584TIP3    H174243   0.341   3.344  16.046 -0.2060 -1.1576  0.7354
17584TIP3    H274244   0.195   3.380  16.065 -0.2168 -0.1308 -1.1751
17585TIP3   OH274245   1.438   4.233  16.374 -0.0103  0.5302 -0.3507
17585TIP3    H174246   1.427   4.212  16.281  2.1316 -1.8894 -0.1298
17585TIP3    H274247   1.392   4.163  16.420  0.5154  0.6834  0.4184
17586TIP3   OH274248   1.583   4.643  13.433  0.3092 -0.0474 -0.1894
17586TIP3    H174249   1.538   4.666  13.351 -0.5053 -3.1431 -0.6529
17586TIP3    H274250   1.674   4.666  13.417  0.1748 -0.7050 -2.0009
17587TIP3   OH274251   0.820   5.547  12.432 -0.4364 -0.4811  0.2387
17587TIP3    H174252   0.842   5.595  12.352  0.5906  0.8800  1.3205
17587TIP3    H274253   0.834   5.455  12.409 -0.2551 -0.1087 -1.1787
17588TIP3   OH274254   4.319   2.877  13.993  0.2725 -0.2418  0.5850
17588TIP3    H174255   4.387   2.841  14.049 -0.9934 -2.3382  0.8098
17588TIP3    H274256   4.237   2.856  14.037 -0.6132  0.7134 -0.5603
17589TIP3   OH274257   4.208   1.212   5.004  0.4290 -0.0469  0.1332
17589TIP3    H174258   4.249   1.126   4.993 -0.7209 -0.6323  0.3745
17589TIP3    H274259   4.115   1.193   5.019  0.5025  1.1076  2.3596
17590TIP3   OH274260   0.868   0.689  13.868 -0.8486  0.2515  0.4997
17590TIP3    H174261   0.854   0.598  13.842 -0.3149 -0.0396  1.2474
17590TIP3    H274262   0.937   0.686  13.934 -3.1640  0.8575  3.0115
17591TIP3   OH274263   6.585   3.418   1.712  0.2347 -0.1248  0.7993
17591TIP3    H174264   6.643   3.477   1.760 -0.4435  0.1858  1.2425
17591TIP3    H274265   6.537   3.475   1.652  2.9551 -0.8168 -2.1996
17592TIP3   OH274266   6.540   2.364  12.166 -0.1887 -0.1666  0.2899
17592TIP3    H174267   6.579   2.435  12.115  1.0978 -0.6295  0.6266
17592TIP3    H274268   6.450   2.393  12.183 -0.4407  0.2701 -1.6991
17593TIP3   OH274269   5.165   3.734   0.062  0.6671 -0.4187 -0.3472
17593TIP3    H174270   5.075   3.735   0.093  0.7289  1.3694 -0.1693
17593TIP3    H274271   5.172   3.811   0.005  1.5861 -1.5489 -1.8134
17594TIP3   OH274272   4.813   0.483   1.453  0.2986  0.4542  0.0461
17594TIP3    H174273   4.840   0.566   1.413  1.4406  0.0801  0.0289
17594TIP3    H274274   4.887   0.424   1.439 -0.9997 -0.9718 -1.0898
17595TIP3   OH274275   4.522   4.779  15.391 -0.6845 -0.1139 -0.5765
17595TIP3    H174276   4.509   4.874  15.396  3.9397  0.6758 -1.2345
17595TIP3    H274277   4.542   4.763  15.299 -1.9910 -1.8367 -0.5656
17596TIP3   OH274278   3.507   6.794  14.910 -0.2830 -0.4360 -0.0667
17596TIP3    H174279   3.501   6.890  14.915  1.1728 -0.1641 -2.7338
17596TIP3    H274280   3.488   6.765  14.999  2.1754  2.4890  1.5117
17597TIP3   OH274281   1.743   4.008  11.086 -0.3678 -0.8206  0.1972
17597TIP3    H174282   1.702   4.075  11.031  2.3841 -0.8417 -1.9784
17597TIP3    H274283   1.837   4.016  11.067  0.3469 -2.8851  2.6384
17598TIP3   OH274284   5.505   5.735  17.100  0.0428 -0.3024  0.2154
17598TIP3    H174285   5.433   5.674  17.083 -0.4659  0.5380 -0.6946
17598TIP3    H274286   5.469   5.797  17.163  0.5543 -0.9228  1.1298
17599TIP3   OH274287   5.369   6.348   5.641 -0.0084  0.1105  0.3786
17599TIP3    H174288   5.323   6.342   5.558 -1.1286 -2.2465  1.1256
17599TIP3    H274289   5.461   6.359   5.617 -0.0719 -2.4273 -1.2268
17600TIP3   OH274290   5.007   3.340   0.881  0.0496  0.4887  0.3691
17600TIP3    H174291   5.015   3.399   0.806 -0.1734 -0.9650 -0.8228
17600TIP3    H274292   5.098   3.318   0.904  0.0829  0.0640 -0.1736
17601TIP3   OH274293   0.138   0.967  11.606 -0.6884  0.0026  0.3630
17601TIP3    H174294   0.134   1.042  11.547 -0.0790  0.6864  1.1868
17601TIP3    H274295   0.050   0.961  11.643 -0.4883  0.8682  0.9839
17602TIP3   OH274296   0.481   6.414  17.018  0.4882  0.3265 -0.1588
17602TIP3    H174297   0.489   6.319  17.005  1.5448  0.0702  2.0401
17602TIP3    H274298   0.408   6.423  17.079  1.6996  0.7686  1.2492
17603TIP3   OH274299   1.599   2.544   5.988  0.0299 -0.0444 -0.4891
17603TIP3    H174300   1.563   2.516   6.073 -1.7680 -0.0465 -1.2372
17603TIP3    H274301   1.629   2.633   6.003 -1.5493  0.4532 -0.1923
17604TIP3   OH274302   5.607   4.437   2.241  0.0900  0.5286  0.1704
17604TIP3    H174303   5.699   4.453   2.224  0.6175 -0.5059  1.8794
17604TIP3    H274304   5.584   4.499   2.310 -0.1843  0.0209  0.5442
17605TIP3   OH274305   3.841   3.431   3.289 -0.3321 -0.1297 -0.1213
17605TIP3    H174306   3.906   3.457   3.224 -0.6484  0.6659 -0.1331
17605TIP3    H274307   3.795   3.356   3.251 -1.7922  1.4889 -1.6512
17606TIP3   OH274308   1.131   5.121  15.564 -0.0814 -0.2730 -0.2624
17606TIP3    H174309   1.058   5.067  15.535 -1.7198  2.2437 -1.0384
17606TIP3    H274310   1.168   5.073  15.638 -4.1457 -0.4253  1.8396
17607TIP3   OH274311   5.165   0.418  14.795 -0.1117  0.0994  0.7904
17607TIP3    H174312   5.203   0.456  14.716  1.4271 -4.3627 -0.7665
17607TIP3    H274313   5.215   0.457  14.866  0.7253  1.7081 -0.6332
17608TIP3   OH274314   3.073   3.318   0.868 -0.1743  0.0735 -0.1178
17608TIP3    H174315   3.125   3.394   0.843 -0.5987  0.5662  0.4786
17608TIP3    H274316   2.990   3.355   0.900  0.2622 -0.5459  1.7721
17609TIP3   OH274317   4.603   4.511   3.674 -0.2780  0.0068 -0.2516
17609TIP3    H174318   4.598   4.589   3.729  2.4056  0.6927 -0.9132
17609TIP3    H274319   4.516   4.473   3.679 -1.1309  2.0754  1.5036
17610TIP3   OH274320   0.290   6.172  17.049  0.1146  0.4248 -0.1351
17610TIP3    H174321   0.228   6.141  16.983  0.4482 -1.3901  0.3822
17610TIP3    H274322   0.340   6.094  17.073  1.0502  1.3985  1.1232
17611TIP3   OH274323   3.747   1.432  15.298 -0.5233  0.9028 -0.0042
17611TIP3    H174324   3.689   1.455  15.226 -1.0121  0.6744  0.3151
17611TIP3    H274325   3.720   1.488  15.370 -0.7867  0.3275  0.3467
17612TIP3   OH274326   6.013   3.352   5.268 -0.0116  0.7292 -0.2697
17612TIP3    H174327   5.921   3.325   5.263 -0.6758  2.5555  1.5672
17612TIP3    H274328   6.010   3.442   5.299  2.3816  1.1341 -1.1226
17613TIP3   OH274329   2.781   3.968   0.715  0.2423  0.4294  0.2639
17613TIP3    H174330   2.856   3.908   0.709 -1.8649 -2.0670 -2.4728
17613TIP3    H274331   2.816   4.053   0.690  2.1851 -0.6869 -0.8958
17614TIP3   OH274332   6.316   1.415  10.608 -0.3179  0.2117  0.4532
17614TIP3    H174333   6.367   1.457  10.538 -2.2405 -0.4089 -1.3577
17614TIP3    H274334   6.336   1.322  10.600 -0.6843  0.1196  0.6015
17615TIP3   OH274335   5.054   4.009   0.320  0.1453 -0.2317  0.0229
17615TIP3    H174336   5.147   3.999   0.303  0.1711 -0.9779  0.6224
17615TIP3    H274337   5.049   4.041   0.410 -0.1474  0.6503 -0.2901
17616TIP3   OH274338   2.884   6.571   1.538  0.2248  0.8489  0.2081
17616TIP3    H174339   2.939   6.604   1.609  0.2426 -0.6229  0.9129
17616TIP3    H274340   2.946   6.532   1.476  0.1421  1.2477 -0.1211
17617TIP3   OH274341   2.485   1.242   6.771  0.3477  0.3680  0.1776
17617TIP3    H174342   2.536   1.284   6.702 -0.0013  0.4958 -0.0030
17617TIP3    H274343   2.542   1.247   6.849  0.3646  1.0663  0.1308
17618TIP3   OH274344   2.286   6.148  16.539 -0.1046  0.0221 -0.2851
17618TIP3    H174345   2.195   6.132  16.513 -0.1336 -2.6994  1.2208
17618TIP3    H274346   2.279   6.184  16.628  0.2854 -1.2966  0.2989
17619TIP3   OH274347   5.394   3.367  15.894  0.3188 -0.0994 -0.2747
17619TIP3    H174348   5.414   3.348  15.985  1.9481 -0.8143 -0.7596
17619TIP3    H274349   5.338   3.445  15.897 -0.7850 -0.9249  1.3865
17620TIP3   OH274350   2.638   3.630   0.227  0.1912  0.2696 -0.1613
17620TIP3    H174351   2.664   3.666   0.142  1.5346  0.2738  0.2366
17620TIP3    H274352   2.716   3.582   0.257 -0.7587 -0.9424  0.4070
17621TIP3   OH274353   2.355   1.325   6.509  0.2050 -0.5664  0.0368
17621TIP3    H174354   2.292   1.339   6.579 -0.2560  3.4063 -1.0502
17621TIP3    H274355   2.439   1.355   6.545  0.2620 -0.0053 -0.5429
17622TIP3   OH274356   6.750   0.666  12.790  0.4578 -0.0858  0.5753
17622TIP3    H174357   6.709   0.596  12.740 -1.7060  0.4653  1.5230
17622TIP3    H274358   6.749   0.742  12.731 -0.4507  0.0881  0.8127
17623TIP3   OH274359   3.815   6.093  15.044  0.2740 -0.1884 -0.1476
17623TIP3    H174360   3.797   6.053  15.129 -0.3444 -0.3878 -0.3662
17623TIP3    H274361   3.757   6.169  15.041  0.0855 -0.3441 -0.5044
17624TIP3   OH274362   6.493   5.985   3.597  0.5713 -0.6337  0.5192
17624TIP3    H174363   6.498   6.001   3.503  1.5438 -1.7299  0.3640
17624TIP3    H274364   6.540   6.058   3.637 -1.4003  0.7883  0.2613
17625TIP3   OH274365   2.397   3.006   4.935  0.9858  0.0818  0.1793
17625TIP3    H174366   2.358   2.997   4.848  2.3992  0.1390 -0.4750
17625TIP3    H274367   2.325   2.989   4.995 -0.7856  3.1396 -0.9689
17626TIP3   OH274368   4.102   1.235  14.915 -0.1938  0.2028  0.2981
17626TIP3    H174369   4.107   1.155  14.863 -0.9600  0.8554 -0.8063
17626TIP3    H274370   4.188   1.277  14.903  0.4151 -0.7434  1.3579
17627TIP3   OH274371   4.775   2.447   5.200 -0.1698  0.1357  0.2126
17627TIP3    H174372   4.761   2.354   5.185 -0.5429  0.4110 -1.2513
17627TIP3    H274373   4.687   2.483   5.209  0.0241  0.0583  2.7476
17628TIP3   OH274374   6.009   5.948  12.112  0.4081  0.3191  0.4993
17628TIP3    H174375   6.081   5.937  12.050  0.3412 -0.0242  0.4824
17628TIP3    H274376   5.962   5.865  12.109 -0.1674  0.6465  0.2766
17629TIP3   OH274377   1.669   5.305   1.990 -0.5132  0.2722  0.1168
17629TIP3    H174378   1.668   5.389   2.035 -1.9858 -0.2917  1.2053
17629TIP3    H274379   1.710   5.245   2.053 -0.0728  0.0515 -0.3837
17630TIP3   OH274380   3.194   3.231  15.424  0.0646 -0.7063 -0.2139
17630TIP3    H174381   3.261   3.295  15.448  0.4929 -1.5026  0.7443
17630TIP3    H274382   3.238   3.173  15.362  0.2621 -1.2065  0.3872
17631TIP3   OH274383   4.154   6.299  16.639 -0.3955  0.2481  0.7103
17631TIP3    H174384   4.090   6.234  16.667 -0.4915 -0.2923 -0.7644
17631TIP3    H274385   4.131   6.320  16.549  0.3364  1.4791  0.7915
17632TIP3   OH274386   4.816   2.820   4.658 -0.1860 -0.0590  0.1315
17632TIP3    H174387   4.744   2.786   4.605 -0.0317 -1.8248  1.0293
17632TIP3    H274388   4.835   2.750   4.721  0.1982  1.6631  1.9727
17633TIP3   OH274389   5.605   1.108  16.243 -0.4317  0.3472 -0.4583
17633TIP3    H174390   5.576   1.198  16.258 -2.8887 -0.4880  0.1058
17633TIP3    H274391   5.580   1.061  16.323  1.8195 -0.6231 -0.2935
17634TIP3   OH274392   6.242   6.647  15.176 -0.0267  0.3794  0.2460
17634TIP3    H174393   6.331   6.638  15.211  0.2469 -0.0907 -0.5598
17634TIP3    H274394   6.206   6.558  15.179 -0.1798  0.4272 -0.1889
17635TIP3   OH274395   1.992   5.206   2.517 -0.0217 -0.3252  0.3773
17635TIP3    H174396   2.015   5.294   2.550  0.5336 -0.5355  0.5566
17635TIP3    H274397   1.958   5.221   2.429  0.2140  0.0536  0.3517
17636TIP3   OH274398   2.504   3.080  14.851  0.2498 -0.1406 -0.3585
17636TIP3    H174399   2.413   3.054  14.861  0.5196 -1.1002 -0.3185
17636TIP3    H274400   2.529   3.115  14.937 -1.0682  3.3899 -1.3452
17637TIP3   OH274401   2.966   5.507  13.869 -0.2132  0.5552 -0.1063
17637TIP3    H174402   2.958   5.424  13.822 -1.1485  0.5630  0.0251
17637TIP3    H274403   2.880   5.521  13.908  0.4019  0.8114  1.1727
17638TIP3   OH274404   0.949   2.666   4.633 -0.2126 -0.3734 -0.0949
17638TIP3    H174405   1.032   2.681   4.679 -0.7051  0.6577  0.4970
17638TIP3    H274406   0.892   2.627   4.699 -0.4465 -0.3056 -0.2560
17639TIP3   OH274407   6.132   5.883  16.235 -0.1027  0.5153 -0.2895
17639TIP3    H174408   6.160   5.793  16.223 -1.0184  0.3610 -1.3419
17639TIP3    H274409   6.193   5.934  16.182  0.2815  0.5060  0.1373
17640TIP3   OH274410   2.027   3.310  16.544 -0.2897  0.0714 -0.4234
17640TIP3    H174411   2.060   3.248  16.479  0.3687  0.1213 -0.1398
17640TIP3    H274412   2.051   3.396  16.509  0.9216  0.0541  0.3590
17641TIP3   OH274413   3.305   0.026  16.772 -0.2293 -0.5755  0.2725
17641TIP3    H174414   3.282  -0.065  16.752  1.0982 -0.6628 -0.9029
17641TIP3    H274415   3.308   0.070  16.686  0.0720  0.3480  0.7429
17642TIP3   OH274416   2.071   3.908  14.133 -0.4054  1.1449  0.5578
17642TIP3    H174417   2.063   3.870  14.220  0.5218  0.2600  0.2605
17642TIP3    H274418   1.980   3.925  14.105 -0.8298 -0.7809  0.7176
17643TIP3   OH274419   0.495   2.306   5.861  0.4641 -0.1378 -0.3339
17643TIP3    H174420   0.449   2.331   5.781  1.3805  1.3743 -0.4039
17643TIP3    H274421   0.470   2.374   5.925  0.1454 -1.0468  0.5153
17644TIP3   OH274422   2.698   4.411   6.446  0.0741 -0.0935 -0.3926
17644TIP3    H174423   2.687   4.337   6.506  1.6888  0.2139  0.3082
17644TIP3    H274424   2.741   4.373   6.369 -0.4811 -0.1656 -0.6720
17645TIP3   OH274425   4.374   0.795  17.211  0.0496 -0.1287  0.5015
17645TIP3    H174426   4.448   0.734  17.206 -1.3503 -1.8863  0.9762
17645TIP3    H274427   4.337   0.797  17.123 -0.4818 -0.7053  0.7088
17646TIP3   OH274428   0.330   1.186   5.806 -0.1405 -0.4143  0.4520
17646TIP3    H174429   0.259   1.193   5.741  1.7114 -0.2558 -1.6193
17646TIP3    H274430   0.315   1.102   5.848 -2.0292 -0.0229  0.6134
17647TIP3   OH274431   0.258   5.715  15.843 -0.1591 -0.4965 -0.0941
17647TIP3    H174432   0.323   5.753  15.902 -1.2053  0.1745  0.6428
17647TIP3    H274433   0.175   5.757  15.868 -0.0939  2.4405 -4.3051
17648TIP3   OH274434   6.043   0.196   5.675  0.4439 -0.3097 -0.0320
17648TIP3    H174435   6.134   0.196   5.702  0.0741  2.3689  1.3127
17648TIP3    H274436   5.999   0.141   5.741  0.9701 -1.1426 -0.3634
17649TIP3   OH274437   3.123   3.176   1.747 -0.7470  0.4284 -0.7334
17649TIP3    H174438   3.148   3.083   1.748 -0.9563  0.3765  0.0680
17649TIP3    H274439   3.029   3.175   1.764 -0.2775  0.9170  2.3070
17650TIP3   OH274440   1.301   3.096   2.704 -0.0952 -0.4373 -0.2991
17650TIP3    H174441   1.286   3.046   2.624  1.1210 -0.9926 -0.1945
17650TIP3    H274442   1.385   3.139   2.690  0.5732 -1.2829  1.0480
17651TIP3   OH274443   0.528   0.998  13.067 -0.6993 -0.0445  0.2621
17651TIP3    H174444   0.543   1.086  13.033  2.1603  0.0834  1.7329
17651TIP3    H274445   0.460   1.009  13.133 -1.7788  0.7118 -0.9519
17652TIP3   OH274446   4.917   5.902  16.310  0.4857 -0.1798 -0.8389
17652TIP3    H174447   4.915   5.816  16.267  1.2804 -0.7869  0.3210
17652TIP3    H274448   4.826   5.918  16.335 -0.1391  0.5611 -3.4453
17653TIP3   OH274449   1.808   2.618   6.485  0.0755 -0.0378 -0.1066
17653TIP3    H174450   1.727   2.630   6.436  1.2335  1.9745 -1.5659
17653TIP3    H274451   1.790   2.658   6.571 -0.2972  0.9233 -0.6245
17654TIP3   OH274452   2.071   2.603  16.118  0.3644 -0.5508 -0.5309
17654TIP3    H174453   1.984   2.594  16.080  0.3065  1.8408 -1.0153
17654TIP3    H274454   2.128   2.618  16.042  1.0371 -0.9661 -0.1125
17655TIP3   OH274455   4.006   2.127   0.631  0.3048  0.9147  0.1995
17655TIP3    H174456   4.078   2.178   0.594  2.6085 -1.4455  1.2388
17655TIP3    H274457   4.017   2.135   0.726 -1.5940  1.5878  0.3719
17656TIP3   OH274458   3.484   5.815  14.062  0.0329 -0.2475 -0.3427
17656TIP3    H174459   3.459   5.903  14.032  0.5256  0.0265  0.0364
17656TIP3    H274460   3.472   5.818  14.157 -1.6504 -1.1535 -0.5056
17657TIP3   OH274461   2.954   3.746   0.836  0.6311 -0.1856  0.3263
17657TIP3    H174462   2.940   3.679   0.903  1.5973  0.0186  0.7418
17657TIP3    H274463   2.932   3.702   0.754  1.0806 -0.9665  0.6168
17658TIP3   OH274464   6.418   1.101   4.601 -0.4821  0.3782  0.4611
17658TIP3    H174465   6.405   1.044   4.677  1.5518  1.5781  1.7585
17658TIP3    H274466   6.462   1.178   4.637 -1.3750  1.8852 -1.6051
17659TIP3   OH274467   5.251   3.924   4.906  0.8635  0.7742 -0.1903
17659TIP3    H174468   5.229   3.938   4.814  0.4067 -0.3931 -0.2640
17659TIP3    H274469   5.231   4.008   4.948  0.3313  1.0630 -1.0111
17660TIP3   OH274470   6.790   4.593   4.047  0.2091 -0.5816  0.0219
17660TIP3    H174471   6.695   4.606   4.039 -0.0207 -2.1901 -0.0363
17660TIP3    H274472   6.825   4.681   4.058 -1.1732  0.1437 -1.1846
17661TIP3   OH274473   2.958   4.888   0.913 -0.0434  0.1533 -0.0066
17661TIP3    H174474   2.947   4.794   0.895 -1.0794  0.4386 -0.9113
17661TIP3    H274475   2.871   4.918   0.937  0.4190  0.7631  0.9593
17662TIP3   OH274476   2.168   2.941   4.164  0.3141  0.3282 -0.0474
17662TIP3    H174477   2.109   2.974   4.231  2.4833 -0.1308  2.1739
17662TIP3    H274478   2.244   2.999   4.167  0.5475  0.1653 -1.9542
17663TIP3   OH274479   3.747   2.980  15.046  0.2107 -0.6481 -0.1910
17663TIP3    H174480   3.755   3.045  14.977  1.0897 -1.3681 -0.7805
17663TIP3    H274481   3.725   2.899  15.001 -2.5803 -0.4436  0.6919
17664TIP3   OH274482   2.633   3.797   2.189 -0.1806  0.5612 -0.5433
17664TIP3    H174483   2.689   3.724   2.161  1.3904  1.8409 -0.8114
17664TIP3    H274484   2.619   3.849   2.110 -1.5258  0.4114 -0.4123
17665TIP3   OH274485   5.210   4.455  16.855  0.0347  0.4247 -0.2715
17665TIP3    H174486   5.237   4.403  16.931  0.0737  1.2795  0.3089
17665TIP3    H274487   5.261   4.420  16.782 -1.6969 -1.9569 -0.3902
17666TIP3   OH274488   3.309   2.393   3.207 -0.3859 -1.2083 -0.3762
17666TIP3    H174489   3.219   2.360   3.204 -1.1090  0.7769 -1.3482
17666TIP3    H274490   3.359   2.334   3.150 -1.5008 -1.0998 -1.4866
17667TIP3   OH274491   6.232   4.122  16.868 -0.2684  0.5657 -0.3870
17667TIP3    H174492   6.144   4.084  16.857  0.1191 -0.8154  1.0306
17667TIP3    H274493   6.291   4.048  16.855  0.5357  0.7955  1.8578
17668TIP3   OH274494   5.891   6.346   2.890  0.2035 -0.0600 -0.1702
17668TIP3    H174495   5.976   6.311   2.918 -0.0852 -0.7300 -0.1006
17668TIP3    H274496   5.834   6.269   2.887 -0.9944  0.6994  1.9910
17669TIP3   OH274497   4.624   2.452   4.761  0.5340  0.3773  0.0141
17669TIP3    H174498   4.605   2.369   4.806 -2.1258  1.3849  0.8230
17669TIP3    H274499   4.583   2.443   4.675  1.2708  0.4090 -0.3458
17670TIP3   OH274500   0.004   2.919  16.867 -0.2228  0.1904  0.1730
17670TIP3    H174501  -0.084   2.956  16.872  0.2972  1.9119 -2.4638
17670TIP3    H274502   0.059   2.981  16.915  0.0667  0.9192 -1.0841
17671TIP3   OH274503   3.885   5.301  12.096 -0.5152  0.5682 -0.0740
17671TIP3    H174504   3.940   5.379  12.090 -0.1637  0.2394 -1.2608
17671TIP3    H274505   3.936   5.233  12.051 -1.8206  0.2089 -1.0204
17672TIP3   OH274506   2.263   3.051  16.753  0.1637 -0.2248 -0.1248
17672TIP3    H174507   2.305   3.129  16.718  2.0319  0.2121  2.8063
17672TIP3    H274508   2.306   2.978  16.707  0.2523  0.3995 -1.0375
17673TIP3   OH274509   6.536   5.394   4.909 -0.4000 -0.1136 -0.8433
17673TIP3    H174510   6.483   5.317   4.931 -1.5360  0.6533 -0.8445
17673TIP3    H274511   6.546   5.389   4.814 -0.6261 -0.1669 -0.8651
17674TIP3   OH274512   3.243   1.333   1.361  0.3233  0.8310 -0.0513
17674TIP3    H174513   3.258   1.248   1.402  0.9676  0.3655 -1.2090
17674TIP3    H274514   3.149   1.347   1.368 -0.0039 -0.6507 -1.0914
17675TIP3   OH274515   6.765   5.207   6.155  0.0674 -0.1737  0.7177
17675TIP3    H174516   6.749   5.252   6.072 -0.7708  1.0385  1.5047
17675TIP3    H274517   6.818   5.131   6.132 -0.0917  0.1902 -0.9103
17676TIP3   OH274518   3.870   5.976   0.105 -0.0595  0.1997  0.1595
17676TIP3    H174519   3.965   5.968   0.117 -0.1309  1.9156  2.1780
17676TIP3    H274520   3.855   5.947   0.015  2.2750 -0.8040  0.0342
17677TIP3   OH274521   4.695   5.483  15.393  0.2590  0.1787 -0.1930
17677TIP3    H174522   4.680   5.537  15.471 -0.7658 -0.4275  0.0263
17677TIP3    H274523   4.608   5.461  15.361  0.6704 -1.4324 -0.2333
17678TIP3   OH274524   6.616   1.382  11.504 -0.0197 -0.2533  0.0961
17678TIP3    H174525   6.613   1.341  11.418  1.1375 -0.9262  0.3492
17678TIP3    H274526   6.595   1.474  11.489 -1.9089 -0.7839 -0.5925
17679TIP3   OH274527   2.621   2.981  16.729  0.1622 -0.7020 -0.0986
17679TIP3    H174528   2.572   2.988  16.647 -1.0776 -0.8947  0.6110
17679TIP3    H274529   2.624   2.887  16.747  0.3444 -0.6519  0.1254
17680TIP3   OH274530   2.108   1.463   0.133 -0.5135  0.2286  0.1547
17680TIP3    H174531   2.082   1.405   0.204 -0.4622 -1.1273 -0.9198
17680TIP3    H274532   2.193   1.431   0.104 -0.4749  0.8448 -0.4488
17681TIP3   OH274533   1.667   2.642  16.644 -0.5614 -0.0413 -0.6261
17681TIP3    H174534   1.707   2.648  16.558 -1.9764 -0.7332 -1.3576
17681TIP3    H274535   1.728   2.686  16.703 -0.3050  1.7774 -2.2143
17682TIP3   OH274536   1.758   1.374  13.686  0.4247  0.3996  0.0392
17682TIP3    H174537   1.826   1.434  13.718  0.6498 -0.3252  0.9522
17682TIP3    H274538   1.680   1.399  13.736  0.8439 -0.9150  1.3688
17683TIP3   OH274539   5.983   5.813  12.677  0.5070 -0.0905  1.2085
17683TIP3    H174540   5.968   5.859  12.595  1.9409 -1.5291  0.1007
17683TIP3    H274541   5.896   5.790  12.708 -0.0454  0.5191  0.1275
17684TIP3   OH274542   3.655   0.802  14.850  0.3042 -0.1463  0.2582
17684TIP3    H174543   3.595   0.769  14.783  0.1411  0.2226  0.2163
17684TIP3    H274544   3.617   0.886  14.876  0.9142  0.1896  0.0789
17685TIP3   OH274545   2.710   5.085   6.580  0.2263  0.0645 -0.2827
17685TIP3    H174546   2.708   5.164   6.526  0.3101  0.3590  0.1380
17685TIP3    H274547   2.709   5.118   6.670  1.8304 -0.3644 -0.0967
17686TIP3   OH274548   0.581   6.013  10.680 -0.0495  0.3288 -0.5111
17686TIP3    H174549   0.603   6.058  10.598 -1.0503  1.3630 -0.2243
17686TIP3    H274550   0.580   6.083  10.746 -1.0949 -0.1927  0.0415
17687TIP3   OH274551   2.531   6.430  15.857  0.3232 -0.2984 -0.0196
17687TIP3    H174552   2.618   6.408  15.823  0.7519 -2.2839  2.1574
17687TIP3    H274553   2.523   6.377  15.936 -1.8396  1.8229  1.2497
17688TIP3   OH274554   3.622   0.043   2.241 -0.0307  0.2761  0.5762
17688TIP3    H174555   3.683   0.114   2.219 -1.0188  0.8850 -0.2316
17688TIP3    H274556   3.666  -0.037   2.212  0.9284  0.5806  1.1531
17689TIP3   OH274557   0.444   3.887   3.625 -0.2311  0.0100  0.0746
17689TIP3    H174558   0.406   3.905   3.711 -0.0878  0.4824  0.0395
17689TIP3    H274559   0.371   3.901   3.564 -0.3208 -0.2802  0.1138
17690TIP3   OH274560   3.579   0.348   0.923  0.1804  0.2825  0.6489
17690TIP3    H174561   3.585   0.444   0.925  1.4291  0.2080  1.6943
17690TIP3    H274562   3.544   0.325   1.009  0.8650 -0.2482  0.7896
17691TIP3   OH274563   5.133   2.753  12.009  0.3582  0.1406  0.6626
17691TIP3    H174564   5.188   2.687  12.050  0.9811 -0.2365 -0.7482
17691TIP3    H274565   5.162   2.755  11.918 -1.6915  0.2094 -0.0140
17692TIP3   OH274566   0.138   4.874  17.041 -0.5577  0.1465  0.4639
17692TIP3    H174567   0.061   4.820  17.057 -0.1805 -0.5208  0.0925
17692TIP3    H274568   0.109   4.941  16.979 -0.7690 -0.2722  0.1079
17693TIP3   OH274569   5.125   1.440   3.675  0.5512 -0.1125  0.4429
17693TIP3    H174570   5.186   1.402   3.612  0.0512 -1.3997  0.7139
17693TIP3    H274571   5.116   1.374   3.744  0.0706  0.7190  1.2037
17694TIP3   OH274572   3.556   1.555   3.910 -0.0893  0.9841  0.1299
17694TIP3    H174573   3.577   1.632   3.963  0.8890  0.6448  0.2594
17694TIP3    H274574   3.463   1.564   3.890 -0.5285  1.0219  2.0768
17695TIP3   OH274575   1.826   1.379   4.178 -0.3671 -0.3192 -0.4294
17695TIP3    H174576   1.894   1.390   4.245 -0.8571 -1.6836  0.3041
17695TIP3    H274577   1.790   1.467   4.167  2.3165  0.6773 -1.7314
17696TIP3   OH274578   3.972   5.804   3.739 -0.3960 -0.6098 -0.1689
17696TIP3    H174579   3.991   5.896   3.722 -1.5530 -0.1051  1.1677
17696TIP3    H274580   3.931   5.773   3.658  0.1122  0.0168 -0.6685
17697TIP3   OH274581   3.377   3.411  14.100 -0.2596 -0.1901 -0.1211
17697TIP3    H174582   3.426   3.490  14.076 -0.2908 -0.1601 -0.0867
17697TIP3    H274583   3.326   3.437  14.177 -0.2883 -0.2372 -0.1246
17698TIP3   OH274584   4.694   2.106   6.308 -0.3681 -0.3760 -0.3232
17698TIP3    H174585   4.621   2.106   6.369 -2.1569  0.1531 -2.3940
17698TIP3    H274586   4.766   2.148   6.355 -1.6563 -0.1282  1.4474
17699TIP3   OH274587   3.670   1.884  11.859  0.1376  0.6495  0.2887
17699TIP3    H174588   3.627   1.969  11.851  1.9657  1.6644  0.8579
17699TIP3    H274589   3.763   1.903  11.842  0.4520 -1.3442 -0.2281
17700TIP3   OH274590   3.811   0.744   3.473  0.1748  0.1342 -0.0208
17700TIP3    H174591   3.891   0.695   3.489  0.2096  0.5432  1.0685
17700TIP3    H274592   3.764   0.692   3.408 -0.6882 -2.3457  2.5149
17701TIP3   OH274593   0.320   5.228  12.202  0.4720 -0.5488 -0.0037
17701TIP3    H174594   0.289   5.284  12.273  2.3589 -0.4808  0.7988
17701TIP3    H274595   0.341   5.289  12.131 -0.7130 -0.5496 -0.3536
17702TIP3   OH274596   5.713   4.556   5.190 -0.2886  0.2066  0.3599
17702TIP3    H174597   5.694   4.646   5.217 -0.5300  0.4233 -0.4915
17702TIP3    H274598   5.637   4.506   5.217 -0.1673  0.2687  0.8091
17703TIP3   OH274599   2.214   0.587   5.655 -0.0526  0.1436  0.3020
17703TIP3    H174600   2.255   0.502   5.640  2.0786  1.1355  0.3270
17703TIP3    H274601   2.123   0.566   5.676  0.5935 -2.1761  0.9618
17704TIP3   OH274602   6.074   4.466  14.446 -0.1224  0.6821 -0.3542
17704TIP3    H174603   6.114   4.471  14.533 -1.3966 -2.0457  0.4598
17704TIP3    H274604   6.145   4.439  14.388  0.1545 -0.1383  0.3485
17705TIP3   OH274605   2.369   2.405  10.520 -0.1298  0.2464 -0.5510
17705TIP3    H174606   2.304   2.475  10.517 -0.0653  0.4073  1.0688
17705TIP3    H274607   2.336   2.338  10.460 -1.3335  0.7068 -0.4134
17706TIP3   OH274608   6.080   3.555  17.007  0.4808 -0.2627  0.8208
17706TIP3    H174609   6.001   3.542  17.060 -0.4444  0.8624 -0.2645
17706TIP3    H274610   6.142   3.598  17.066  0.2216 -0.9762  1.6178
17707TIP3   OH274611   3.886   3.070   2.333 -0.7232  0.2499 -0.1183
17707TIP3    H174612   3.914   3.009   2.265  1.4802  0.0545  0.9262
17707TIP3    H274613   3.806   3.031   2.369  0.2528 -1.6377  0.0458
17708TIP3   OH274614   0.563   4.551   0.916  0.1600 -0.4407  0.8078
17708TIP3    H174615   0.585   4.463   0.885  0.2581  0.4178 -1.6989
17708TIP3    H274616   0.469   4.559   0.902  0.4169  0.4194 -0.6074
17709TIP3   OH274617   2.172   0.126   4.157 -0.2236 -0.0388 -0.2307
17709TIP3    H174618   2.259   0.106   4.123 -0.3284  1.3722 -1.3999
17709TIP3    H274619   2.188   0.186   4.230 -0.2261  0.5554 -0.7126
17710TIP3   OH274620   3.502   6.117  12.635  0.1034  0.0423  0.0276
17710TIP3    H174621   3.582   6.071  12.607  2.1156  2.6039  1.3722
17710TIP3    H274622   3.431   6.054  12.617  2.7132 -3.6549  1.9883
17711TIP3   OH274623   4.790   2.072  12.271 -0.2669  0.6540 -0.4092
17711TIP3    H174624   4.799   2.075  12.366  1.9986 -1.0157 -0.5415
17711TIP3    H274625   4.754   1.985  12.252 -2.8884  1.8083 -0.9633
17712TIP3   OH274626   3.946   3.694   2.795 -0.1431  0.1779 -0.3423
17712TIP3    H174627   4.037   3.703   2.824  0.1068  0.3104 -1.1321
17712TIP3    H274628   3.894   3.731   2.865  0.3261 -1.1915  0.7579
17713TIP3   OH274629   4.626   2.059   1.130 -0.2277 -0.0829  0.0896
17713TIP3    H174630   4.541   2.101   1.146  0.5391  0.9052  1.6577
17713TIP3    H274631   4.672   2.119   1.072  0.9528  1.4355  2.5025
17714TIP3   OH274632   5.547   0.757  15.869 -0.0415 -0.0745  0.3914
17714TIP3    H174633   5.588   0.671  15.877  1.0432  0.2360 -1.4374
17714TIP3    H274634   5.616   0.819  15.894  0.2092  0.3807 -1.3208
17715TIP3   OH274635   6.531   2.853  15.978 -0.5029  0.1541 -0.4020
17715TIP3    H174636   6.551   2.890  16.064 -0.7973 -2.1782  0.7064
17715TIP3    H274637   6.565   2.763  15.982  0.6347  0.4130 -3.1773
17716TIP3   OH274638   0.703   4.645  14.097  0.0821  0.3500  0.5213
17716TIP3    H174639   0.768   4.576  14.081 -1.6015 -0.6108 -2.7703
17716TIP3    H274640   0.742   4.724  14.060 -0.1544  0.0084 -0.4727
17717TIP3   OH274641   4.064   0.721   1.851  0.4705  0.1992  0.5330
17717TIP3    H174642   4.141   0.768   1.819 -0.9932  0.3121 -3.1251
17717TIP3    H274643   4.005   0.717   1.775 -2.3025 -1.6104  2.6565
17718TIP3   OH274644   1.819   3.971  14.038 -0.1238 -0.6742  0.3983
17718TIP3    H174645   1.778   4.057  14.036  0.5178 -0.4023 -1.7942
17718TIP3    H274646   1.747   3.910  14.052 -0.7959  0.0827  0.2512
17719TIP3   OH274647   5.704   3.762  17.226  0.0103  0.3149  0.2707
17719TIP3    H174648   5.777   3.740  17.283 -1.0527 -2.4766  0.6238
17719TIP3    H274649   5.704   3.693  17.159 -0.9605  1.5112 -0.9920
17720TIP3   OH274650   3.448   5.224   3.877  0.0376 -0.0146  0.2518
17720TIP3    H174651   3.414   5.195   3.962 -0.7872 -0.2197 -0.1469
17720TIP3    H274652   3.420   5.156   3.815  0.3462  0.3063 -0.2416
17721TIP3   OH274653   0.784   4.081   1.524 -0.1203 -0.6325  0.0978
17721TIP3    H174654   0.769   4.175   1.513 -0.8745 -0.7755 -0.1338
17721TIP3    H274655   0.796   4.048   1.436 -1.0535 -0.9414  0.0732
17722TIP3   OH274656   6.788   4.846   2.856  0.5326  0.4118  0.0653
17722TIP3    H174657   6.797   4.900   2.934 -1.9987 -0.5470  1.0913
17722TIP3    H274658   6.781   4.908   2.784 -0.2264  1.3909  0.9733
17723TIP3   OH274659   2.974   0.351  11.668  0.9510 -0.4799 -0.1586
17723TIP3    H174660   2.961   0.391  11.581  1.7233  2.0958  0.8419
17723TIP3    H274661   2.951   0.259  11.656 -0.9806  0.2604 -2.5904
17724TIP3   OH274662   3.148   0.798   1.696 -0.2362 -0.2868 -0.8088
17724TIP3    H174663   3.112   0.796   1.607  0.0689  0.5049 -0.9531
17724TIP3    H274664   3.131   0.711   1.731  0.2751 -0.8280 -1.8960
17725TIP3   OH274665   2.362   1.388   0.018 -0.0931 -0.5458 -0.0155
17725TIP3    H174666   2.421   1.342   0.078  1.4759 -0.2469 -1.2878
17725TIP3    H274667   2.392   1.363  -0.069  1.3471  3.4498 -0.7609
17726TIP3   OH274668   2.569   0.014   4.871 -0.5623  0.0305  0.4833
17726TIP3    H174669   2.571  -0.033   4.788  0.7183 -0.2488  0.6551
17726TIP3    H274670   2.487  -0.011   4.912 -0.0297 -1.8058  0.4410
17727TIP3   OH274671   6.487   1.124   3.943 -0.3097  0.0942  0.5427
17727TIP3    H174672   6.498   1.106   3.850  0.8232 -0.3516  0.7513
17727TIP3    H274673   6.395   1.145   3.953 -0.0428  2.1396 -1.0188
17728TIP3   OH274674   6.009   3.899   0.611 -0.5845 -0.3326 -0.0252
17728TIP3    H174675   5.927   3.867   0.650 -0.8798  0.1084 -0.2872
17728TIP3    H274676   6.076   3.841   0.647 -0.7791  0.4105  1.6036
17729TIP3   OH274677   2.006   0.658   0.443  0.2640  0.0836 -0.3026
17729TIP3    H174678   1.953   0.728   0.404  0.2781  0.4279  0.2832
17729TIP3    H274679   2.077   0.704   0.487 -0.7591 -0.1582  1.6860
17730TIP3   OH274680   2.116   6.091   2.530 -0.0242  0.1866 -0.0738
17730TIP3    H174681   2.084   6.139   2.453 -0.0115 -1.9570 -1.4770
17730TIP3    H274682   2.059   6.015   2.536 -0.0142  0.3340  2.0761
17731TIP3   OH274683   2.990   2.814  12.364 -0.0157 -0.5593 -0.5386
17731TIP3    H174684   2.996   2.898  12.319  2.4970 -1.3711 -1.8524
17731TIP3    H274685   3.043   2.825  12.443  0.3363 -0.9210 -0.7240
17732TIP3   OH274686   4.045   4.812   4.150  0.2547  0.3693 -0.2588
17732TIP3    H174687   4.001   4.766   4.221  0.9229  0.0973 -0.0171
17732TIP3    H274688   4.002   4.898   4.147  1.0689  0.8498  1.3234
17733TIP3   OH274689   4.016   1.694  10.781  0.8233 -0.1371 -0.3396
17733TIP3    H174690   4.089   1.754  10.789 -0.9446  1.7739  2.1617
17733TIP3    H274691   3.948   1.744  10.735  0.0289 -0.8948 -0.0194
17734TIP3   OH274692   2.553   0.127   4.516 -0.4161  0.2991  0.5628
17734TIP3    H174693   2.476   0.182   4.528 -0.9806 -0.0934 -1.2020
17734TIP3    H274694   2.615   0.158   4.582 -0.7853  2.9228 -0.2868
17735TIP3   OH274695   4.616   1.823   3.532  0.2480  0.2097 -0.0064
17735TIP3    H174696   4.573   1.898   3.493 -0.8087  0.0046  0.7347
17735TIP3    H274697   4.630   1.762   3.459  1.2456  1.1677 -0.6312
17736TIP3   OH274698   0.432   1.793  11.971  0.3956 -0.0508  0.2361
17736TIP3    H174699   0.418   1.887  11.959 -2.1626 -0.7025 -2.4296
17736TIP3    H274700   0.488   1.768  11.898  1.4408 -0.5299  1.1976
17737TIP3   OH274701   4.540   3.928  12.678  0.2021 -0.4628 -0.5822
17737TIP3    H174702   4.450   3.914  12.647  0.2120  0.8012 -1.1977
17737TIP3    H274703   4.535   4.008  12.729  1.1558  0.0849 -1.3470
17738TIP3   OH274704   0.075   6.765  13.132  0.3978 -0.2397 -0.3210
17738TIP3    H174705   0.070   6.676  13.169  1.2465 -0.0650  0.2251
17738TIP3    H274706   0.016   6.817  13.187  0.2806 -0.3559 -0.3359
17739TIP3   OH274707   4.553   3.791  16.826  0.3738  0.1393 -0.3035
17739TIP3    H174708   4.497   3.745  16.888  0.4720  0.9949  0.4404
17739TIP3    H274709   4.592   3.723  16.773 -2.1054 -0.4484 -1.4636
17740TIP3   OH274710   0.285   0.521   0.152 -0.1789  0.0359  0.0286
17740TIP3    H174711   0.198   0.505   0.188  0.2940 -0.0964  1.1368
17740TIP3    H274712   0.338   0.448   0.184 -0.1540 -1.0378 -2.4072
17741TIP3   OH274713   3.136   6.044  15.321  0.3758  0.0597 -0.3791
17741TIP3    H174714   3.192   6.070  15.394  3.3446 -0.3512 -2.3990
17741TIP3    H274715   3.074   5.982  15.359  2.3574 -0.7378  1.6825
17742TIP3   OH274716   2.619   2.783   5.380 -0.2209  0.3543  0.0800
17742TIP3    H174717   2.571   2.705   5.352  0.5091 -0.0964  0.0773
17742TIP3    H274718   2.587   2.800   5.469 -1.3298  0.8218 -0.4064
17743TIP3   OH274719   2.326   4.727   1.068 -0.0812  0.0646  0.1611
17743TIP3    H174720   2.308   4.725   0.974 -1.7902 -1.2556  0.4966
17743TIP3    H274721   2.301   4.816   1.095 -0.2634  0.2170 -0.4974
17744TIP3   OH274722   0.123   1.636  13.561  0.2967  0.4611 -0.8736
17744TIP3    H174723   0.047   1.605  13.511 -0.3192  1.1478 -0.3646
17744TIP3    H274724   0.103   1.727  13.582  0.7581  0.3283  0.2089
17745TIP3   OH274725   3.421   3.536   5.129  0.0924  0.0234  0.4407
17745TIP3    H174726   3.484   3.471   5.098 -0.8527 -0.5895 -0.1792
17745TIP3    H274727   3.471   3.618   5.130  0.6214 -0.2670 -1.0188
17746TIP3   OH274728   0.303   2.702   3.886 -0.1472 -0.3471  0.4384
17746TIP3    H174729   0.384   2.704   3.836 -0.1334  1.4583  0.5047
17746TIP3    H274730   0.325   2.658   3.968  0.4454 -0.9968 -0.0651
17747TIP3   OH274731   0.009   3.276   3.429 -0.2596  0.2942  0.3252
17747TIP3    H174732  -0.059   3.312   3.487 -1.2369 -0.0689 -0.5868
17747TIP3    H274733  -0.033   3.269   3.344  1.2571  1.0874 -0.5128
17748TIP3   OH274734   3.273   0.009  12.556  0.2735  0.2869 -0.1563
17748TIP3    H174735   3.274  -0.050  12.631  1.6506  1.5157  0.8017
17748TIP3    H274736   3.206  -0.027  12.498  0.6233 -1.8154  0.7307
17749TIP3   OH274737   1.073   4.207  11.995  0.5931 -0.4365 -0.1202
17749TIP3    H174738   1.140   4.218  11.928 -2.4317  1.2056 -3.0319
17749TIP3    H274739   1.063   4.293  12.035 -2.3373  0.3682 -2.3739
17750TIP3   OH274740   1.898   1.459  13.119 -0.0371  0.5445  0.1235
17750TIP3    H174741   1.891   1.468  13.214  1.6709  0.8533  0.2395
17750TIP3    H274742   1.966   1.522  13.094  0.6556 -0.6520 -1.0868
17751TIP3   OH274743   5.490   4.191   2.143 -0.8208 -0.2264  0.4559
17751TIP3    H174744   5.562   4.199   2.205 -0.6443 -0.1103  0.2378
17751TIP3    H274745   5.475   4.281   2.113 -0.4077 -0.3788 -0.2285
17752TIP3   OH274746   2.338   5.858   4.643  0.3999 -0.5579  0.0839
17752TIP3    H174747   2.343   5.861   4.548 -1.0698 -1.1152 -0.0133
17752TIP3    H274748   2.245   5.846   4.662  0.8086 -1.4127  1.5686
17753TIP3   OH274749   5.826   5.929   3.075 -0.2260 -0.4085 -0.1489
17753TIP3    H174750   5.779   5.846   3.069  0.2787 -0.6535 -0.7845
17753TIP3    H274751   5.890   5.916   3.144 -0.8606 -0.1850  0.4891
17754TIP3   OH274752   2.396   0.528   5.305  0.0732 -0.0564 -0.4060
17754TIP3    H174753   2.431   0.488   5.385 -2.2116  1.4058  1.3917
17754TIP3    H274754   2.330   0.465   5.275 -1.4531  0.9292  0.7912
17755TIP3   OH274755   3.504   6.422   1.090 -0.4507  0.4037 -0.1847
17755TIP3    H174756   3.531   6.380   1.008  1.2870  0.0736  0.5493
17755TIP3    H274757   3.460   6.353   1.139 -1.9271  0.7208 -1.0108
17756TIP3   OH274758   6.500   0.487   4.669 -0.3029 -0.0632  0.0001
17756TIP3    H174759   6.450   0.410   4.696 -0.9881  0.2011 -0.5135
17756TIP3    H274760   6.478   0.554   4.734 -0.7419  0.0993 -0.3129
17757TIP3   OH274761   0.039   6.447  11.274  0.1272 -0.2971 -0.3227
17757TIP3    H174762  -0.010   6.522  11.241  1.3176 -0.5290 -2.7067
17757TIP3    H274763   0.024   6.378  11.210 -1.3167 -2.3065  2.0570
17758TIP3   OH274764   0.130   5.365  16.627  0.5500 -0.0659  1.0020
17758TIP3    H174765   0.040   5.332  16.629  1.0625 -1.6651 -1.1254
17758TIP3    H274766   0.155   5.371  16.719 -1.3411 -0.6658  1.5864
17759TIP3   OH274767   5.887   6.646  13.083  0.1554 -0.3188 -0.1562
17759TIP3    H174768   5.873   6.558  13.046 -2.2763  0.5500 -1.3891
17759TIP3    H274769   5.982   6.653  13.090  0.4450 -2.6250 -1.1347
17760TIP3   OH274770   5.157   1.952  16.402 -0.0086  0.1453 -0.0173
17760TIP3    H174771   5.119   2.038  16.387  0.6166  0.5706  0.7823
17760TIP3    H274772   5.162   1.944  16.497  0.3525 -0.5791 -0.0912
17761TIP3   OH274773   1.155   5.016   2.598 -0.2537 -0.0038  0.5381
17761TIP3    H174774   1.225   5.078   2.583  0.6483 -1.1098  0.1216
17761TIP3    H274775   1.129   5.030   2.689 -0.5512  1.4529  0.2476
17762TIP3   OH274776   3.893   2.818  17.167 -0.3080 -0.2469  0.0331
17762TIP3    H174777   3.897   2.888  17.103 -3.8387  0.2389  0.1996
17762TIP3    H274778   3.828   2.757  17.131 -1.2357 -0.7128  2.3737
17763TIP3   OH274779   3.232   3.368  11.046 -0.4524  0.1061  0.1977
17763TIP3    H174780   3.298   3.437  11.041 -1.6197  1.2708  0.6079
17763TIP3    H274781   3.149   3.412  11.029 -1.4583 -0.7665  2.5561
17764TIP3   OH274782   0.882   4.696  12.422  0.4965  0.1224  0.6080
17764TIP3    H174783   0.788   4.694  12.406  0.3951  1.3111  1.0154
17764TIP3    H274784   0.899   4.783  12.459  1.7558 -0.0592  0.5025
17765TIP3   OH274785   5.718   2.813  12.529  0.3167  0.1753  0.2089
17765TIP3    H174786   5.653   2.858  12.584  0.6901  0.3261  0.5256
17765TIP3    H274787   5.721   2.724  12.564 -1.0384 -0.3536 -0.9474
17766TIP3   OH274788   4.456   4.659   6.263  0.1758  0.3585 -0.0744
17766TIP3    H174789   4.404   4.688   6.338  1.9669  1.3427  0.8274
17766TIP3    H274790   4.452   4.732   6.201 -1.4386 -0.5185 -1.0427
17767TIP3   OH274791   3.820   3.013  14.109 -0.5614 -0.1498 -0.0751
17767TIP3    H174792   3.890   3.048  14.165  0.9929 -0.9829 -1.4735
17767TIP3    H274793   3.854   3.022  14.020 -1.9886 -1.1522 -0.7224
17768TIP3   OH274794   3.481   1.826  11.651  0.3333  0.1173 -0.3725
17768TIP3    H174795   3.506   1.887  11.582  0.1570 -0.0782 -0.6124
17768TIP3    H274796   3.549   1.835  11.718 -0.6830  1.9485  0.4617
17769TIP3   OH274797   5.670   6.077  12.899 -0.1688 -0.0105  0.2910
17769TIP3    H174798   5.585   6.106  12.868 -0.9357 -0.8976  1.5136
17769TIP3    H274799   5.665   5.981  12.897  0.4408 -0.0687  1.3020
17770TIP3   OH274800   2.380   2.081  14.763  0.0424 -0.0322  0.6239
17770TIP3    H174801   2.372   1.992  14.796 -1.5105  0.1855  0.8544
17770TIP3    H274802   2.472   2.088  14.736  0.1376 -1.7414  0.4484
17771TIP3   OH274803   4.730   1.792  12.261  0.3535 -0.0570  0.5809
17771TIP3    H174804   4.714   1.800  12.356  0.3517 -1.0718  0.6667
17771TIP3    H274805   4.824   1.778  12.254  0.2982 -0.3540  0.4485
17772TIP3   OH274806   2.678   3.579  16.311 -0.0578 -0.2629  0.0617
17772TIP3    H174807   2.596   3.579  16.361  0.7715  0.3180  1.4477
17772TIP3    H274808   2.668   3.652  16.249 -0.6817 -0.3484  0.0596
17773TIP3   OH274809   3.310   2.490  16.872  0.2635  0.1472 -0.2880
17773TIP3    H174810   3.400   2.470  16.849  0.7049  0.8003  0.8489
17773TIP3    H274811   3.316   2.538  16.954 -1.1186  0.2200 -0.2160
17774TIP3   OH274812   5.836   5.094   1.876  0.4350  0.0396 -0.3770
17774TIP3    H174813   5.847   5.035   1.801  1.3996  0.2199 -0.3832
17774TIP3    H274814   5.756   5.063   1.919  1.4964 -1.9588  0.2289
17775TIP3   OH274815   6.308   3.435  16.453  0.5797  0.1180 -0.4369
17775TIP3    H174816   6.233   3.458  16.508  0.9889  1.1602 -0.2922
17775TIP3    H274817   6.269   3.394  16.376 -0.1033  0.0962 -0.0846
17776TIP3   OH274818   3.879   3.368   5.909  0.0914 -1.0247 -0.0283
17776TIP3    H174819   3.800   3.378   5.854  0.2347 -0.2378 -0.0990
17776TIP3    H274820   3.926   3.451   5.898 -0.8808 -0.0432  2.8897
17777TIP3   OH274821   5.782   4.735   2.308 -0.6842 -0.0404  0.5795
17777TIP3    H174822   5.864   4.769   2.344 -0.6636  0.6142 -0.0775
17777TIP3    H274823   5.777   4.645   2.342 -0.2735  0.2962  1.5542
17778TIP3   OH274824   4.584   1.630  16.117 -0.3137  0.8877  0.3189
17778TIP3    H174825   4.660   1.626  16.060  0.3191  2.8218  0.9688
17778TIP3    H274826   4.569   1.540  16.145  0.7148  0.2527 -1.1295
17779TIP3   OH274827   4.885   1.295  13.569  0.4914  0.8192 -0.1553
17779TIP3    H174828   4.943   1.220  13.558 -0.1322 -0.2822  3.3017
17779TIP3    H274829   4.921   1.343  13.644 -1.4054  1.6498  0.2677
17780TIP3   OH274830   5.600   4.648  11.764 -0.4673 -0.0032 -0.5265
17780TIP3    H174831   5.652   4.678  11.838 -1.6692 -0.2290  0.4274
17780TIP3    H274832   5.614   4.553  11.761 -0.3451  0.0184 -0.6522
17781TIP3   OH274833   5.460   5.911  16.904  0.2276  0.2359 -0.0057
17781TIP3    H174834   5.489   5.887  16.816 -0.6865 -1.4062  0.1210
17781TIP3    H274835   5.498   5.844  16.960 -0.6640  0.2466  0.6212
17782TIP3   OH274836   1.496   5.196   3.477 -0.3263  0.1198 -0.7779
17782TIP3    H174837   1.460   5.120   3.432  0.5596 -0.5919 -0.2890
17782TIP3    H274838   1.462   5.190   3.566  1.1663 -0.6837 -0.2487
17783TIP3   OH274839   2.830   0.371  11.426 -0.3527  0.1645 -0.1885
17783TIP3    H174840   2.807   0.286  11.462  1.0077 -0.7532 -1.4369
17783TIP3    H274841   2.746   0.410  11.401 -0.7948 -2.0324 -2.2653
17784TIP3   OH274842   0.679   0.233   2.221 -0.4723 -0.4733  0.1806
17784TIP3    H174843   0.740   0.254   2.292 -1.8856 -1.0721  1.6266
17784TIP3    H274844   0.615   0.174   2.262 -2.2252  0.4317 -1.1599
17785TIP3   OH274845   3.888   3.873   2.030  0.2226 -0.7738  0.5577
17785TIP3    H174846   3.856   3.785   2.010  1.0921 -0.9234 -0.2127
17785TIP3    H274847   3.980   3.872   2.001  0.3131  0.3017  0.7876
17786TIP3   OH274848   1.565   3.166   2.696 -0.2962  0.7715  0.0562
17786TIP3    H174849   1.588   3.091   2.751 -0.1975  0.0426 -0.9523
17786TIP3    H274850   1.610   3.240   2.736  0.4234  0.1136  0.4926
17787TIP3   OH274851   2.819   5.160  11.274  0.2967  0.5282 -0.4106
17787TIP3    H174852   2.876   5.088  11.301  1.4161  1.3074 -0.6731
17787TIP3    H274853   2.860   5.195  11.195 -1.5603 -0.0902 -1.7063
17788TIP3   OH274854   4.308   2.463  12.031  0.3963 -0.3177  0.1134
17788TIP3    H174855   4.309   2.464  11.935  0.0498 -0.2050  0.1111
17788TIP3    H274856   4.359   2.539  12.057 -2.2507  1.5585  0.0084
17789TIP3   OH274857   6.238   3.650   0.323  0.6538 -0.7756 -0.0748
17789TIP3    H174858   6.264   3.562   0.353  0.7665 -1.0998 -1.1188
17789TIP3    H274859   6.321   3.697   0.314  0.5896 -0.5437  0.5336
17790TIP3   OH274860   1.066   3.065  15.585 -0.4701  0.2028  0.7180
17790TIP3    H174861   0.997   3.075  15.651 -0.5928 -0.2614  0.6660
17790TIP3    H274862   1.087   2.971  15.588 -0.9445  0.0558 -0.3705
17791TIP3   OH274863   3.347   0.709   6.037  0.2772 -0.8360 -0.2060
17791TIP3    H174864   3.328   0.695   6.130 -0.0586  1.1251  0.0365
17791TIP3    H274865   3.360   0.803   6.029 -0.2801 -0.9085 -2.2561
17792TIP3   OH274866   4.923   4.520  12.858  0.4502 -0.5175 -0.2263
17792TIP3    H174867   4.982   4.550  12.789 -1.5373  1.3032 -1.2132
17792TIP3    H274868   4.946   4.428  12.871  2.1947 -0.3528 -1.9155
17793TIP3   OH274869   2.922   4.885  11.797  0.4022  0.1606  0.2145
17793TIP3    H174870   2.972   4.925  11.868  0.8172 -0.0358  0.0416
17793TIP3    H274871   2.871   4.956  11.759 -1.1999 -0.0967  1.8591
17794TIP3   OH274872   2.130   4.116   0.112  0.3051  0.7418 -0.1576
17794TIP3    H174873   2.194   4.128   0.041  1.4875  1.6303  1.0443
17794TIP3    H274874   2.153   4.032   0.151  0.5312  0.9030  0.0576
17795TIP3   OH274875   4.597   4.786  11.993  0.3924 -0.5713  0.2519
17795TIP3    H174876   4.641   4.809  12.075  2.4395  0.7876 -1.2036
17795TIP3    H274877   4.574   4.871  11.954  1.2850 -1.1437 -1.5649
17796TIP3   OH274878   4.442   4.261  11.964 -0.1029 -0.7937 -0.2392
17796TIP3    H174879   4.443   4.347  12.007  1.7471 -1.0453  0.2417
17796TIP3    H274880   4.396   4.204  12.025  1.5748 -0.9051  0.9334
17797TIP3   OH274881   5.277   5.079   0.245 -0.4995  0.3929 -0.4532
17797TIP3    H174882   5.203   5.115   0.196 -2.0947 -0.5182  1.2252
17797TIP3    H274883   5.244   4.996   0.281  0.9036  0.5975  1.3809
17798TIP3   OH274884   1.395   5.505  15.603  0.7374 -0.3381  0.0128
17798TIP3    H174885   1.480   5.462  15.595  1.6238  1.2459  0.4768
17798TIP3    H274886   1.342   5.446  15.656  1.7337 -1.1056  0.1625
17799TIP3   OH274887   4.812   4.018  13.056  0.2675  0.6220 -0.5278
17799TIP3    H174888   4.873   4.086  13.082 -0.5360  0.6252  1.4074
17799TIP3    H274889   4.840   3.940  13.105 -0.3776  0.2475 -0.7407
17800TIP3   OH274890   3.670   4.937  14.706 -0.2746  0.7790 -0.1158
17800TIP3    H174891   3.740   4.914  14.646  0.2342 -0.6592  0.9952
17800TIP3    H274892   3.708   4.924  14.793 -1.3197  1.8144  0.5153
17801TIP3   OH274893   4.513   4.847  13.326 -0.1548 -0.0023  0.5065
17801TIP3    H174894   4.522   4.915  13.393  2.3665 -0.4099  0.6303
17801TIP3    H274895   4.512   4.765  13.375 -2.4237 -0.1340  0.2976
17802TIP3   OH274896   0.614   1.148   1.684 -0.0700 -0.1121 -0.2600
17802TIP3    H174897   0.610   1.055   1.663 -1.7755 -0.4999  1.6336
17802TIP3    H274898   0.542   1.162   1.746 -0.2296  2.5874 -0.9916
17803TIP3   OH274899   1.097   5.706  17.221  0.1051 -0.3980 -0.0920
17803TIP3    H174900   1.147   5.628  17.195  0.3958  0.0237 -0.8290
17803TIP3    H274901   1.007   5.685  17.199  0.5710  0.6692 -3.2988
17804TIP3   OH274902   5.640   3.330  13.262  0.1663 -0.0413 -0.0638
17804TIP3    H174903   5.552   3.368  13.264  0.7381  1.2831  0.1122
17804TIP3    H274904   5.694   3.393  13.309  1.1333 -1.0698  0.2185
17805TIP3   OH274905   3.933   0.917   0.430 -0.7911  0.3739  0.6731
17805TIP3    H174906   3.998   0.969   0.384 -1.9789  0.6507 -0.7391
17805TIP3    H274907   3.979   0.836   0.453 -0.2257  0.1251 -1.2214
17806TIP3   OH274908   4.381   1.301   4.766 -0.5396  0.1362  0.3504
17806TIP3    H174909   4.301   1.315   4.817 -0.8446  2.6227 -0.7191
17806TIP3    H274910   4.450   1.342   4.819 -0.3961  0.1983  0.1147
17807TIP3   OH274911   2.897   6.793  12.275  0.0465  0.1335 -0.3241
17807TIP3    H174912   2.956   6.865  12.294  0.5906 -0.5951  0.8308
17807TIP3    H274913   2.936   6.748  12.200  0.5737  0.0925 -0.0287
17808TIP3   OH274914   2.630   5.404  16.808 -0.1654 -0.3217  0.3564
17808TIP3    H174915   2.725   5.399  16.810 -0.1630 -0.1620  0.7164
17808TIP3    H274916   2.601   5.338  16.872 -0.2948 -0.3464  0.2714
17809TIP3   OH274917   5.958   0.839  12.505 -0.3260  0.3636 -0.1371
17809TIP3    H174918   5.870   0.862  12.535 -0.4804  0.3470 -0.5865
17809TIP3    H274919   6.016   0.891  12.560 -0.6429  1.1105 -0.5095
17810TIP3   OH274920   5.400   3.477   2.962 -0.2473  0.0895  0.2409
17810TIP3    H174921   5.310   3.454   2.985  0.0197 -1.8657 -0.5472
17810TIP3    H274922   5.398   3.491   2.867  0.4125 -0.7995  0.0790
17811TIP3   OH274923   5.076   1.589  11.488 -0.4214 -0.3829  0.0432
17811TIP3    H174924   5.051   1.528  11.418  2.3956 -1.6874  0.1252
17811TIP3    H274925   5.118   1.662  11.442 -0.3023 -0.3259  0.2448
17812TIP3   OH274926   0.953   1.402  13.908 -0.2116  0.1927  0.1950
17812TIP3    H174927   1.003   1.464  13.962  1.4772 -1.1182  0.1844
17812TIP3    H274928   0.992   1.409  13.821 -1.7941  1.0454 -0.4562
17813TIP3   OH274929   4.855   3.586   4.580  0.1424 -0.2081 -0.2547
17813TIP3    H174930   4.767   3.608   4.549  0.2434 -1.2157 -1.3279
17813TIP3    H274931   4.914   3.636   4.523  0.2850 -0.7790 -0.6260
17814TIP3   OH274932   3.465   1.988   2.079 -0.4309  0.2196 -0.3872
17814TIP3    H174933   3.528   1.949   2.018 -1.0193 -1.1564 -0.1297
17814TIP3    H274934   3.519   2.023   2.150  0.2664  1.8541 -1.6691
17815TIP3   OH274935   1.194   1.774   2.564  0.1042 -0.9466  0.0417
17815TIP3    H174936   1.156   1.785   2.650 -2.0381  0.3103 -1.0312
17815TIP3    H274937   1.119   1.761   2.505  1.5231 -2.0784 -1.6034
17816TIP3   OH274938   2.552   5.048   5.045 -0.3433  0.3631 -0.1405
17816TIP3    H174939   2.477   4.991   5.025  0.2162 -0.6652  0.6629
17816TIP3    H274940   2.533   5.129   4.997 -0.2008 -1.1741 -2.9092
17817TIP3   OH274941   2.733   3.078   3.043 -0.7456  0.4868  0.6134
17817TIP3    H174942   2.642   3.099   3.065 -0.7204  0.4229  0.7780
17817TIP3    H274943   2.785   3.130   3.103 -0.6825  0.0718  0.9215
17818TIP3   OH274944   2.464   5.336  14.079  0.1938  0.3306 -0.4675
17818TIP3    H174945   2.535   5.276  14.057 -0.5169 -0.7661  0.1855
17818TIP3    H274946   2.384   5.285  14.065 -0.3980  0.8364  0.9654
17819TIP3   OH274947   4.245   4.446  12.727 -0.1493 -0.0821  0.3491
17819TIP3    H174948   4.291   4.400  12.657 -1.5573 -1.4687  0.2928
17819TIP3    H274949   4.241   4.537  12.698  1.1844 -0.2391 -0.3474
17820TIP3   OH274950   1.085   1.158  16.624 -0.4877 -0.2094 -1.0742
17820TIP3    H174951   1.098   1.073  16.582  0.4286 -0.1778 -0.8645
17820TIP3    H274952   1.172   1.184  16.653 -0.9984  0.1202  0.1777
17821TIP3   OH274953   4.562   4.247  14.552 -0.2526 -0.2968  0.3407
17821TIP3    H174954   4.611   4.285  14.625  0.1986 -2.6091  1.2895
17821TIP3    H274955   4.625   4.188  14.510 -0.6191  0.7492 -1.7107
17822TIP3   OH274956   1.236   5.510   4.268 -0.3191 -0.4535 -0.0012
17822TIP3    H174957   1.244   5.526   4.362 -1.1034  2.0694 -0.3064
17822TIP3    H274958   1.324   5.487   4.239  0.2152  0.1506  1.1177
17823TIP3   OH274959   1.975   2.045  13.302 -0.1780  0.6643  0.0938
17823TIP3    H174960   2.016   2.086  13.226 -0.3924  1.1028  0.2128
17823TIP3    H274961   1.899   1.999  13.266  1.2358 -1.4019 -0.3502
17824TIP3   OH274962   3.385   6.608   0.146  0.5556  0.0931  0.0771
17824TIP3    H174963   3.412   6.586   0.057  1.0679 -0.3776  0.3404
17824TIP3    H274964   3.420   6.537   0.200  1.1994  0.9325  0.7935
17825TIP3   OH274965   5.703   0.794  15.597  0.4035  0.3421 -0.4981
17825TIP3    H174966   5.745   0.729  15.654 -0.7870  0.5183  0.6262
17825TIP3    H274967   5.775   0.836  15.551  1.2647 -1.0963 -0.5005
17826TIP3   OH274968   5.431   4.112  12.326  0.7065 -0.1278  0.6408
17826TIP3    H174969   5.441   4.093  12.232 -1.1574 -0.5736  0.5226
17826TIP3    H274970   5.470   4.036  12.369 -0.3196 -0.9068  0.2082
17827TIP3   OH274971   4.156   4.235  16.975 -0.6831  0.2033  0.0637
17827TIP3    H174972   4.169   4.208  17.066  0.0438  0.1670 -0.0472
17827TIP3    H274973   4.242   4.223  16.934 -1.1216 -0.2545 -0.7493
17828TIP3   OH274974   0.795   6.676   3.182  0.2721 -0.3318 -0.1105
17828TIP3    H174975   0.859   6.694   3.251  0.0087  0.2983 -0.0287
17828TIP3    H274976   0.711   6.703   3.220  0.1842  0.4579 -0.8462
17829TIP3   OH274977   4.873   5.199   2.145 -0.1681 -0.2204  0.0060
17829TIP3    H174978   4.942   5.232   2.088 -0.3963  2.0841  0.9928
17829TIP3    H274979   4.798   5.185   2.087  0.3390 -0.2469 -0.6485
17830TIP3   OH274980   2.730   2.688   1.141 -0.2049  0.3326 -0.1249
17830TIP3    H174981   2.644   2.652   1.164 -0.9336  2.1652  0.1325
17830TIP3    H274982   2.783   2.612   1.118 -0.8183 -1.1899  3.2268
17831TIP3   OH274983   2.245   5.735   1.277 -0.1938  0.2044 -0.1202
17831TIP3    H174984   2.249   5.642   1.252  0.8731  0.1563  0.1904
17831TIP3    H274985   2.300   5.779   1.212 -0.0032  0.5004  0.2409
17832TIP3   OH274986   6.787   2.379  15.545  0.2641 -0.0158  0.0844
17832TIP3    H174987   6.801   2.291  15.509  2.2844  0.1548  0.4127
17832TIP3    H274988   6.770   2.364  15.638 -0.2342 -0.1054 -0.0175
17833TIP3   OH274989   0.432   2.769  13.471 -0.1881  0.3091  0.6484
17833TIP3    H174990   0.348   2.735  13.439  0.6047 -2.0424  0.9259
17833TIP3    H274991   0.473   2.809  13.394 -0.4916 -0.7823 -0.0913
17834TIP3   OH274992   5.582   4.451  10.662 -0.3559  0.1473  0.6810
17834TIP3    H174993   5.538   4.442  10.746 -0.1754 -0.9178  0.6720
17834TIP3    H274994   5.551   4.376  10.611 -0.7659  1.0117 -0.3386
17835TIP3   OH274995   0.691   2.110  10.293  0.1384  0.0530 -0.1607
17835TIP3    H174996   0.706   2.051  10.367  1.9185 -0.4455 -0.8943
17835TIP3    H274997   0.743   2.187  10.313  1.6184 -0.5889 -1.4657
17836TIP3   OH274998   1.896   1.469   1.715 -0.1498  0.2817  0.1352
17836TIP3    H174999   1.877   1.398   1.653  1.9564  1.6112 -2.1528
17836TIP3    H275000   1.916   1.425   1.797 -0.4485 -1.7073 -0.8280
17837TIP3   OH275001   1.334   1.354  12.603 -0.3033 -0.5019 -0.6195
17837TIP3    H175002   1.346   1.393  12.689  2.5320 -0.9839 -0.7558
17837TIP3    H275003   1.252   1.393  12.570  0.1550  1.9601  1.0364
17838TIP3   OH275004   5.562   5.339  14.436 -0.5089  0.2244 -0.1539
17838TIP3    H175005   5.626   5.331  14.507 -0.6205  0.9234  0.0304
17838TIP3    H275006   5.615   5.349  14.357 -0.3951  0.9373  0.0152
17839TIP3   OH275007   3.105   4.916   3.824 -0.4369 -0.3062 -0.0948
17839TIP3    H175008   3.095   5.001   3.782  0.6821 -0.1944 -0.1472
17839TIP3    H275009   3.016   4.891   3.849 -0.4714  2.2626  2.6601
17840TIP3   OH275010   6.580   2.191  11.839  0.4862 -0.4266  0.3438
17840TIP3    H175011   6.614   2.255  11.776 -0.8046 -1.0723 -1.0423
17840TIP3    H275012   6.502   2.156  11.797 -0.6883 -0.5262  2.5363
17841TIP3   OH275013   0.967   1.284   1.209  0.4987 -0.3681 -0.0504
17841TIP3    H175014   1.033   1.299   1.142 -0.3475 -0.2988 -0.8861
17841TIP3    H275015   0.884   1.283   1.160 -0.0285 -1.3256  0.8551
17842TIP3   OH275016   6.210   5.126   0.368 -0.1636 -0.4022 -0.2590
17842TIP3    H175017   6.216   5.130   0.273 -0.4350  2.5729 -0.1848
17842TIP3    H275018   6.118   5.145   0.387 -0.1248 -1.0363  0.5918
17843TIP3   OH275019   3.400   3.684   0.841 -0.2698 -0.2747  0.5019
17843TIP3    H175020   3.376   3.659   0.752 -0.2817 -1.4240  0.8189
17843TIP3    H275021   3.466   3.753   0.830 -2.3206  1.6082 -0.3865
17844TIP3   OH275022   2.074   4.646   4.568 -0.4222 -0.0356 -0.4760
17844TIP3    H175023   2.011   4.656   4.639 -1.3128  0.9507 -1.3849
17844TIP3    H275024   2.086   4.735   4.534  0.8074 -0.3433 -0.8630
17845TIP3   OH275025   5.844   5.663  12.939 -0.5477  0.5120  0.0793
17845TIP3    H175026   5.820   5.658  13.031 -0.1750 -0.6788  0.1107
17845TIP3    H275027   5.933   5.697  12.938 -0.2271 -0.3315  0.1928
17846TIP3   OH275028   3.438   6.612   2.136 -0.0436  0.5942 -0.0205
17846TIP3    H175029   3.352   6.577   2.112 -0.1647  0.5408  0.4726
17846TIP3    H275030   3.433   6.705   2.113  0.1975  0.3381 -1.1192
17847TIP3   OH275031   5.058   5.557   1.306  0.1380 -0.4587  0.6627
17847TIP3    H175032   5.036   5.465   1.290 -1.6283  0.1843 -0.6693
17847TIP3    H275033   5.131   5.575   1.246 -1.5160 -0.1577 -1.2970
17848TIP3   OH275034   3.701   3.702   0.895 -0.0559  0.4383 -0.1853
17848TIP3    H175035   3.712   3.611   0.867  0.9205  0.2805  0.6608
17848TIP3    H275036   3.674   3.696   0.987 -0.3229  1.0004 -0.2209
17849TIP3   OH275037   3.825   1.023  12.836  0.2572 -0.1915 -0.0980
17849TIP3    H175038   3.785   0.952  12.786  0.4641 -0.4103  0.0431
17849TIP3    H275039   3.892   1.057  12.777 -1.1395  1.1766 -0.9360
17850TIP3   OH275040   0.344   2.964   1.778 -0.6761 -0.4341  0.7998
17850TIP3    H175041   0.340   2.983   1.872  0.3882 -0.5838  0.8901
17850TIP3    H275042   0.415   3.020   1.746 -2.0893  0.7890 -0.2197
17851TIP3   OH275043   6.024   0.755  12.265  0.3278  0.5905 -0.6997
17851TIP3    H175044   6.101   0.811  12.261 -1.0089  2.4099 -1.9024
17851TIP3    H275045   5.977   0.785  12.344  0.2330  0.3185 -0.6517
17852TIP3   OH275046   3.078   4.374   4.030 -0.0103 -0.2402 -0.2661
17852TIP3    H175047   3.090   4.300   4.088 -0.7357  0.3994  0.7083
17852TIP3    H275048   3.020   4.342   3.961 -1.0882 -0.3119  0.6619
17853TIP3   OH275049   2.021   0.908   1.778  0.4964  0.1336  0.1046
17853TIP3    H175050   2.114   0.906   1.756  0.8719 -0.0282  1.6737
17853TIP3    H275051   1.998   0.817   1.797 -0.0532  0.1371 -0.4972
17854TIP3   OH275052   1.407   3.537   5.124  0.4325 -0.4316  0.2481
17854TIP3    H175053   1.448   3.453   5.145  0.0639 -0.4074  1.0802
17854TIP3    H275054   1.337   3.514   5.063  0.5220 -0.6967  0.2438
17855TIP3   OH275055   2.326   4.577  16.264  0.3685 -0.4368  0.2423
17855TIP3    H175056   2.394   4.642  16.283  0.2799 -0.6917  1.5148
17855TIP3    H275057   2.264   4.586  16.337 -1.7066  0.7510 -1.6204
17856TIP3   OH275058   1.159   5.478   0.825 -0.1243  0.7858 -0.1474
17856TIP3    H175059   1.253   5.476   0.807  0.0625  1.2658  0.7378
17856TIP3    H275060   1.125   5.398   0.784  0.9240 -0.2275  0.8906
17857TIP3   OH275061   6.347   6.162  12.426  0.0496  0.1366 -0.1156
17857TIP3    H175062   6.287   6.088  12.437 -0.2383  0.9130  4.8006
17857TIP3    H275063   6.425   6.125  12.385 -0.4921 -2.7025  1.2984
17858TIP3   OH275064   3.279   1.137   2.047 -0.5127 -0.1213 -0.0167
17858TIP3    H175065   3.302   1.076   1.977 -0.1755  0.0679 -0.0724
17858TIP3    H275066   3.184   1.127   2.058 -1.0066  1.7370 -2.3056
17859TIP3   OH275067   2.429   1.539   6.755  0.0332 -0.7766 -0.2373
17859TIP3    H175068   2.510   1.506   6.715  0.4487  2.1637 -1.9304
17859TIP3    H275069   2.449   1.628   6.782 -2.3563 -0.3392  0.2295
17860TIP3   OH275070   6.501   4.212  16.946  0.3074 -0.0326  0.0337
17860TIP3    H175071   6.523   4.266  16.870  0.1338  1.7212  1.2021
17860TIP3    H275072   6.413   4.180  16.929 -0.0405  1.0153 -0.1515
17861TIP3   OH275073   4.371   0.379  11.387 -0.5884  0.1380 -0.0942
17861TIP3    H175074   4.324   0.350  11.309  0.5749  2.0061 -1.5423
17861TIP3    H275075   4.313   0.442  11.428 -0.4337  0.5380 -0.4831
17862TIP3   OH275076   4.667   2.183   0.587 -1.0068 -0.7798 -0.2459
17862TIP3    H175077   4.581   2.218   0.610 -0.3326  1.0884 -0.4795
17862TIP3    H275078   4.729   2.250   0.616  0.1850 -0.7551 -2.7412
17863TIP3   OH275079   1.883   2.623  16.850  0.2220 -0.1644  0.2674
17863TIP3    H175080   1.834   2.637  16.931 -1.1612 -1.1155 -0.3897
17863TIP3    H275081   1.881   2.707  16.805  0.8056  0.3039  1.1259
17864TIP3   OH275082   0.884   4.649  14.411 -0.2092 -0.1362 -0.0623
17864TIP3    H175083   0.884   4.727  14.355  0.1271  0.8363  1.2584
17864TIP3    H275084   0.834   4.676  14.488  2.0940 -0.3707  1.5550
17865TIP3   OH275085   6.797   3.245   4.280 -0.2413  0.0997  0.2532
17865TIP3    H175086   6.712   3.207   4.256 -0.1517 -0.2710  0.5198
17865TIP3    H275087   6.818   3.205   4.364  0.0371  0.4537  0.3547
17866TIP3   OH275088   5.688   3.920   0.753 -0.7131 -0.5467 -0.1325
17866TIP3    H175089   5.627   3.992   0.738  0.2714  0.3366  0.0040
17866TIP3    H275090   5.768   3.963   0.784 -0.3150 -1.7521  0.5491
17867TIP3   OH275091   2.970   3.656   4.773 -0.0768  0.4911  0.3107
17867TIP3    H175092   2.942   3.743   4.746 -0.4087  0.2820 -0.0340
17867TIP3    H275093   2.906   3.597   4.733  1.6551 -0.1035 -1.6826
17868TIP3   OH275094   2.426   3.782  14.641  0.3540  0.1501 -0.2986
17868TIP3    H175095   2.364   3.788  14.714 -2.3510 -0.7044 -2.4484
17868TIP3    H275096   2.507   3.749  14.680  0.0056  2.7865  2.8653
17869TIP3   OH275097   1.308   5.525  16.380 -0.1775 -0.2715 -0.2630
17869TIP3    H175098   1.254   5.493  16.452  1.0453  1.6184  1.5470
17869TIP3    H275099   1.376   5.459  16.370 -0.7833 -0.9133 -0.2178
17870TIP3   OH275100   1.069   0.532  16.253  0.1515  0.2794  0.7094
17870TIP3    H175101   1.072   0.451  16.304 -0.9343  0.2308  0.6988
17870TIP3    H275102   1.000   0.517  16.188  1.6901  0.2253 -0.9744
17871TIP3   OH275103   3.872   2.990   6.790 -0.4904 -0.5845 -0.1878
17871TIP3    H175104   3.805   3.057   6.776 -0.4742 -0.6843 -0.7236
17871TIP3    H275105   3.865   2.969   6.884 -0.7169 -0.0746 -0.0887
17872TIP3   OH275106   2.064   6.715  14.497  0.6595 -0.2373 -0.4224
17872TIP3    H175107   1.991   6.742  14.442  0.7423  2.1087  0.5513
17872TIP3    H275108   2.122   6.666  14.439 -1.5559 -1.9426 -1.2560
17873TIP3   OH275109   3.452   1.443  15.883 -0.1888  0.0441 -0.3850
17873TIP3    H175110   3.440   1.357  15.924  1.1384 -1.2204 -2.5242
17873TIP3    H275111   3.364   1.480  15.879 -0.7923 -1.2524  0.4746
17874TIP3   OH275112   0.479   1.072  11.766  0.6326  0.5840 -0.1970
17874TIP3    H175113   0.513   1.023  11.691  0.3426 -0.9533  0.6404
17874TIP3    H275114   0.396   1.108  11.735  0.6647  0.2250 -0.7210
17875TIP3   OH275115   0.505   4.693  11.452  0.5964  0.2652 -0.3669
17875TIP3    H175116   0.513   4.607  11.493 -1.8014  0.0098 -0.3410
17875TIP3    H275117   0.494   4.674  11.359 -0.0491  0.5097 -0.3476
17876TIP3   OH275118   4.339   0.143   6.243 -0.2936  0.4206 -0.3290
17876TIP3    H175119   4.274   0.161   6.311 -0.3000  0.0716 -0.2412
17876TIP3    H275120   4.321   0.208   6.175 -0.0267  1.0250  0.1830
17877TIP3   OH275121   6.799   4.279   0.325 -0.6004  0.0480  0.1553
17877TIP3    H175122   6.819   4.201   0.376 -0.1958  0.9126  1.3387
17877TIP3    H275123   6.727   4.254   0.268 -0.1776 -1.3142  0.2142
17878TIP3   OH275124   5.362   0.051  15.636  0.4989  0.2032  0.1164
17878TIP3    H175125   5.424   0.022  15.569  0.6491 -0.9636  0.7469
17878TIP3    H275126   5.306  -0.025  15.651 -0.5590  0.9818  0.1568
17879TIP3   OH275127   1.422   5.537   2.925 -0.4147 -0.4144  0.4516
17879TIP3    H175128   1.443   5.607   2.986 -0.4972  0.3814 -0.4201
17879TIP3    H275129   1.375   5.473   2.978  0.0838 -0.0468  1.3649
17880TIP3   OH275130   2.797   3.331   5.822  0.1075 -0.1717 -0.0287
17880TIP3    H175131   2.702   3.325   5.812  0.0757  0.1584  0.0617
17880TIP3    H275132   2.809   3.369   5.909  0.2979  0.9626 -0.5401
17881TIP3   OH275133   3.531   6.054   2.861  0.2376 -0.1181 -0.0504
17881TIP3    H175134   3.606   6.009   2.901  0.6948  1.8158  1.3293
17881TIP3    H275135   3.471   6.069   2.934 -0.3846  0.5739 -0.7026
17882TIP3   OH275136   3.077   3.029  14.442 -0.0960  0.3799  0.3852
17882TIP3    H175137   3.005   3.061  14.389  0.5967 -0.5192 -1.1116
17882TIP3    H275138   3.043   3.029  14.532 -0.9779  2.7219  0.0717
17883TIP3   OH275139   6.596   2.764   3.258 -0.1488 -0.4482 -0.1524
17883TIP3    H175140   6.627   2.771   3.167  1.8706  1.4345  0.6346
17883TIP3    H275141   6.630   2.843   3.301 -1.0411 -1.3366  2.2532
17884TIP3   OH275142   0.577   1.662  16.587 -0.0705  0.5189 -0.2204
17884TIP3    H175143   0.569   1.739  16.530  0.3479 -0.8032 -2.1037
17884TIP3    H275144   0.509   1.602  16.556  0.8564 -0.6503 -0.0304
17885TIP3   OH275145   6.187   5.937  12.330  0.3456  0.5078  0.3736
17885TIP3    H175146   6.138   5.964  12.252  0.1395  0.6687  0.5588
17885TIP3    H275147   6.123   5.891  12.384  0.9756 -1.4514 -0.4804
17886TIP3   OH275148   2.916   4.942  13.735  0.0723 -0.0544 -0.1558
17886TIP3    H175149   2.984   4.877  13.720 -0.6303 -0.5301 -1.3504
17886TIP3    H275150   2.872   4.951  13.650 -1.8673 -0.3353  0.7956
17887TIP3   OH275151   4.947   1.186  15.367 -0.0441  0.0094 -0.1524
17887TIP3    H175152   4.908   1.194  15.280 -1.8590 -1.6472  0.4696
17887TIP3    H275153   4.985   1.272  15.384 -1.4936  1.0019 -1.7419
17888TIP3   OH275154   0.093   2.261  13.095 -0.7853 -0.5788 -0.3115
17888TIP3    H175155   0.161   2.312  13.052  0.2289 -2.1288 -0.5771
17888TIP3    H275156   0.067   2.315  13.170  2.8593 -1.2569  1.5532
17889TIP3   OH275157   6.379   0.553  14.873 -0.4888  0.2367 -0.2718
17889TIP3    H175158   6.346   0.465  14.858  1.9617 -0.3538 -2.4707
17889TIP3    H275159   6.340   0.579  14.957 -1.4485 -2.8004  0.2825
17890TIP3   OH275160   1.345   0.888   2.388 -0.7373 -0.6818 -0.3090
17890TIP3    H175161   1.320   0.964   2.335  1.6878 -0.7714 -1.6492
17890TIP3    H275162   1.440   0.886   2.384 -0.6920 -2.9344  0.9583
17891TIP3   OH275163   2.579   3.241  13.911  0.1375  0.1475 -0.1292
17891TIP3    H175164   2.511   3.291  13.866  0.7815  1.1697 -0.0033
17891TIP3    H275165   2.656   3.299  13.909  0.6319 -0.4604  0.8528
17892TIP3   OH275166   6.115   4.791  12.993  0.1750 -0.3405 -0.1603
17892TIP3    H175167   6.084   4.706  13.025 -0.3184  0.0894  0.5132
17892TIP3    H275168   6.048   4.853  13.021  0.1011  0.1549 -1.3935
17893TIP3   OH275169   4.661   0.867  10.762  0.4159  0.3135  0.6643
17893TIP3    H175170   4.577   0.837  10.727  1.0682 -2.5812  1.4377
17893TIP3    H275171   4.645   0.958  10.789 -2.5069 -0.2309  0.9441
17894TIP3   OH275172   2.851   3.523  12.378  0.4386 -0.2433 -0.1888
17894TIP3    H175173   2.874   3.438  12.340 -0.8645 -1.5025  1.7032
17894TIP3    H275174   2.923   3.544  12.437  1.0269  0.2517 -1.0743
17895TIP3   OH275175   2.199   3.104  11.428 -0.1730  0.0319 -0.4242
17895TIP3    H175176   2.242   3.026  11.391  0.4544  0.2545 -0.1671
17895TIP3    H275177   2.124   3.069  11.477  1.0713 -0.5483  1.0943
17896TIP3   OH275178   6.650   1.261  10.636 -0.7578  0.6440  0.7356
17896TIP3    H175179   6.640   1.277  10.543  0.2212  1.4143  0.7445
17896TIP3    H275180   6.672   1.168  10.643 -1.1850  0.5068  0.2276
17897TIP3   OH275181   0.808   3.673   2.314  0.2934 -0.5273 -0.5936
17897TIP3    H175182   0.851   3.596   2.352  0.6918 -0.8079 -1.5889
17897TIP3    H275183   0.767   3.640   2.234  1.2057  0.4613 -1.4904
17898TIP3   OH275184   5.028   2.930   4.999 -0.0519 -0.3925  0.1431
17898TIP3    H175185   5.053   2.919   4.907 -1.9762 -0.3208 -0.4197
17898TIP3    H275186   5.077   2.862   5.046 -0.6060 -1.7948 -1.2440
17899TIP3   OH275187   1.595   5.787  15.243 -0.3549  0.1984  0.5496
17899TIP3    H175188   1.521   5.817  15.189 -0.2015  0.3704  0.4342
17899TIP3    H275189   1.672   5.822  15.199 -0.2763  0.9690  1.2926
17900TIP3   OH275190   2.326   5.263  14.880 -0.1813 -0.1662  0.0373
17900TIP3    H175191   2.420   5.262  14.859 -0.0679 -1.8425  0.5880
17900TIP3    H275192   2.285   5.220  14.805 -0.4417 -0.1021  0.1427
17901TIP3   OH275193   0.456   3.115   2.173  1.3089  0.7031 -0.2380
17901TIP3    H175194   0.486   3.059   2.102  0.8949  0.7771 -0.4725
17901TIP3    H275195   0.360   3.112   2.167  1.1867 -1.4043  1.9512
17902TIP3   OH275196   3.040   4.754  16.178  0.2426 -0.1765  0.2871
17902TIP3    H175197   2.958   4.801  16.194  0.5627 -0.3449  2.4866
17902TIP3    H275198   3.022   4.664  16.205  0.3472 -0.8345 -1.7554
17903TIP3   OH275199   3.888   5.821   0.440  0.0287 -0.3959 -0.3702
17903TIP3    H175200   3.972   5.867   0.427  0.7503 -1.4022  0.6884
17903TIP3    H275201   3.902   5.735   0.401  0.2688 -1.3869  1.8373
17904TIP3   OH275202   2.089   2.018   1.321  0.4649 -0.6789  0.4723
17904TIP3    H175203   2.109   1.988   1.232 -0.5592  1.0128 -0.3582
17904TIP3    H275204   2.038   1.947   1.359 -1.2913 -0.3886 -1.2056
17905TIP3   OH275205   0.892   4.051   2.557  0.2484  0.0585  0.1877
17905TIP3    H175206   0.934   4.032   2.473  2.1049  1.3141  0.7823
17905TIP3    H275207   0.824   3.984   2.566 -0.6420  0.4881 -2.7544
17906TIP3   OH275208   2.603   5.716  17.034 -0.1251 -0.6896  0.2087
17906TIP3    H175209   2.530   5.777  17.021  1.1588  1.0196  0.6992
17906TIP3    H275210   2.593   5.650  16.966 -1.7626 -0.1210 -0.1143
17907TIP3   OH275211   5.232   2.771  14.791 -0.2818 -0.9927 -0.3400
17907TIP3    H175212   5.259   2.679  14.801 -1.5057 -1.1819  1.6093
17907TIP3    H275213   5.280   2.817  14.860 -1.4337 -0.5813  0.1983
17908TIP3   OH275214   4.952   5.971  12.737  0.0476 -0.0141 -0.5608
17908TIP3    H175215   4.921   5.897  12.686 -2.3574  0.2985  0.3922
17908TIP3    H275216   4.886   5.984  12.805  2.4880  0.4422  1.8201
17909TIP3   OH275217   3.052   1.751   6.764  0.4858 -0.1677  0.0674
17909TIP3    H175218   3.068   1.812   6.692 -0.7885 -0.9536 -0.9139
17909TIP3    H275219   3.031   1.807   6.839  0.8148  0.6308 -0.4257
17910TIP3   OH275220   0.147   0.053   1.873  0.2204 -0.5820  0.0864
17910TIP3    H175221   0.102   0.063   1.788  0.1978  0.6715  0.2284
17910TIP3    H275222   0.076   0.045   1.936  0.2373 -1.5181 -0.0126
17911TIP3   OH275223   1.344   0.863   0.287 -0.1550 -0.1894  0.5794
17911TIP3    H175224   1.299   0.864   0.203  0.1380  0.6052  0.4253
17911TIP3    H275225   1.325   0.777   0.324 -1.7854  0.1302  0.5095
17912TIP3   OH275226   0.072   1.485  11.442 -0.3172 -0.4337 -0.0336
17912TIP3    H175227   0.077   1.579  11.454  2.8539 -0.4689 -0.6837
17912TIP3    H275228  -0.005   1.472  11.386 -0.7961  1.7382  0.0712
17913TIP3   OH275229   6.730   2.025   0.770  0.3324  0.0920  0.3314
17913TIP3    H175230   6.813   2.028   0.723 -0.2044 -0.0152 -0.6255
17913TIP3    H275231   6.741   2.088   0.842  1.7707 -1.0005  1.1044
17914TIP3   OH275232   5.829   2.486   2.914 -0.1589  0.1286  0.2873
17914TIP3    H175233   5.917   2.523   2.919 -0.6709  1.2465  1.1607
17914TIP3    H275234   5.797   2.511   2.827  0.6538 -0.8976 -0.3119
17915TIP3   OH275235   3.958   3.047   0.788 -0.2734 -0.1575  0.4276
17915TIP3    H175236   4.007   3.042   0.706  0.6083  1.0222  0.8601
17915TIP3    H275237   3.990   2.974   0.840  0.8131  0.4294  0.5916
17916TIP3   OH275238   6.266   6.683  12.273  0.1795  0.6336 -0.7872
17916TIP3    H175239   6.281   6.776  12.260 -1.3636  1.0589  0.3397
17916TIP3    H275240   6.182   6.666  12.230 -0.7176  0.2728  1.0696
17917TIP3   OH275241   6.264   4.428   4.201 -0.3440 -0.3124  0.1015
17917TIP3    H175242   6.252   4.403   4.109 -0.0287  1.1244 -0.3345
17917TIP3    H275243   6.282   4.522   4.199  0.1081 -0.3516  1.6064
17918TIP3   OH275244   4.448   3.278   4.804 -0.1459  0.1856  0.2853
17918TIP3    H175245   4.507   3.348   4.778  0.8372 -1.3759 -1.8866
17918TIP3    H275246   4.365   3.299   4.760 -0.2936  0.7397  0.8226
17919TIP3   OH275247   4.433   5.133   5.476 -0.4942 -0.5311 -0.0951
17919TIP3    H175248   4.429   5.229   5.476 -1.5487 -0.5305  3.5346
17919TIP3    H275249   4.384   5.107   5.398 -1.2100  1.8308 -0.4630
17920TIP3   OH275250   1.907   5.486  15.977 -0.3829  0.4876  0.3101
17920TIP3    H175251   1.903   5.566  16.030  0.2959  0.3281  0.6108
17920TIP3    H275252   1.900   5.415  16.041 -0.2240  0.2989  0.1172
17921TIP3   OH275253   3.885   1.131  14.681 -0.9223  0.0626  0.3118
17921TIP3    H175254   3.904   1.216  14.722 -1.7720  0.4437 -0.0682
17921TIP3    H275255   3.799   1.143  14.639 -0.5580 -0.6536 -0.6586
17922TIP3   OH275256   0.149   5.215   1.947 -0.2465  0.0145  0.0328
17922TIP3    H175257   0.236   5.218   1.988  0.5022  2.2012 -1.6560
17922TIP3    H275258   0.155   5.143   1.884  0.3781  0.2144 -0.1408
17923TIP3   OH275259   3.638   6.452  11.115  0.0231  0.2445  0.2131
17923TIP3    H175260   3.552   6.494  11.115 -0.2512 -0.2744  1.5498
17923TIP3    H275261   3.698   6.521  11.144  0.0358  0.5615 -0.5637
17924TIP3   OH275262   2.089   2.332   3.930  0.4401 -0.3848 -0.2632
17924TIP3    H175263   2.111   2.248   3.890  0.2626  0.1098 -1.4082
17924TIP3    H275264   2.147   2.395   3.888  0.0068  0.1956 -0.0010
17925TIP3   OH275265   3.550   3.402  11.976 -0.0905 -0.6521 -0.0643
17925TIP3    H175266   3.624   3.364  11.929  0.6344  0.0921  0.4610
17925TIP3    H275267   3.575   3.398  12.068  0.2757  1.6665 -0.0468
17926TIP3   OH275268   3.119   3.853  16.296  0.3007  0.4300 -0.2463
17926TIP3    H175269   3.144   3.925  16.238 -0.5964 -0.2463 -1.5121
17926TIP3    H275270   3.041   3.885  16.342 -0.1858  0.2225 -0.9163
17927TIP3   OH275271   0.630   1.043  12.228 -0.0990  0.4144 -0.0925
17927TIP3    H175272   0.722   1.021  12.217  0.0499  1.0417 -0.1450
17927TIP3    H275273   0.589   1.022  12.144 -0.0138  0.1068 -0.0591
17928TIP3   OH275274   5.006   5.670  15.463 -0.3498  0.3684  0.0828
17928TIP3    H175275   5.064   5.742  15.437 -1.2053  1.0400  0.0089
17928TIP3    H275276   4.963   5.701  15.542 -2.5237  0.9451 -1.2854
17929TIP3   OH275277   3.882   3.910   4.322 -0.3761  0.1236  0.0247
17929TIP3    H175278   3.881   3.960   4.241  1.5663  1.2488  0.6604
17929TIP3    H275279   3.843   3.968   4.387 -0.9814 -0.3848  0.1229
17930TIP3   OH275280   5.251   4.582  12.902  0.0472 -0.2896  0.3985
17930TIP3    H175281   5.260   4.514  12.834  0.3356 -0.5740  0.7216
17930TIP3    H275282   5.169   4.626  12.880  0.1470 -0.3690 -0.1503
17931TIP3   OH275283   4.785   1.217   4.954 -0.1189 -0.1451 -0.1363
17931TIP3    H175284   4.822   1.157   4.889  0.8790  0.9820 -0.6366
17931TIP3    H275285   4.782   1.302   4.909 -0.9752  0.2977  0.7436
17932TIP3   OH275286   2.735   1.149   1.923 -0.3476  0.2316 -0.4587
17932TIP3    H175287   2.813   1.119   1.877 -0.3658 -0.2338 -0.1814
17932TIP3    H275288   2.666   1.149   1.856 -0.3885 -0.4989 -0.4171
17933TIP3   OH275289   2.684   3.737  14.791 -0.2920  0.5900  0.2416
17933TIP3    H175290   2.672   3.671  14.859  0.5687 -0.2725 -0.4308
17933TIP3    H275291   2.691   3.820  14.839 -2.1163  0.3033  1.0441
17934TIP3   OH275292   3.280   3.509   0.993  0.4574  0.2224  0.1550
17934TIP3    H175293   3.324   3.506   1.078  1.1361 -0.8851 -0.2206
17934TIP3    H275294   3.336   3.564   0.939  0.4607  0.2518  0.1883
17935TIP3   OH275295   1.483   0.347   3.541  0.4189  0.4916 -0.6057
17935TIP3    H175296   1.404   0.296   3.523 -0.4575  1.3938  0.5926
17935TIP3    H275297   1.519   0.307   3.621 -0.0036  1.4193  0.0600
17936TIP3   OH275298   4.374   5.460   5.639  0.5160 -0.5946  0.1262
17936TIP3    H175299   4.335   5.541   5.672 -0.4266 -0.4885 -1.2269
17936TIP3    H275300   4.468   5.471   5.656  0.4719  1.0551 -0.5702
17937TIP3   OH275301   6.551   5.176   5.756 -0.5774  0.1054 -0.4906
17937TIP3    H175302   6.584   5.131   5.679  0.7052  1.3609 -0.7067
17937TIP3    H275303   6.476   5.227   5.724 -1.4981 -1.1702 -0.4131
17938TIP3   OH275304   2.560   3.317   4.988  0.2083 -0.3296  0.3959
17938TIP3    H175305   2.567   3.401   5.033 -0.5241 -1.2059  2.2137
17938TIP3    H275306   2.488   3.329   4.926  0.6969  0.6508  0.0106
17939TIP3   OH275307   4.538   3.318  14.244  0.3349 -0.6462 -0.1755
17939TIP3    H175308   4.467   3.257  14.225  0.2223 -0.6020  0.1046
17939TIP3    H275309   4.594   3.314  14.167 -1.4803  1.4817 -1.6633
17940TIP3   OH275310   5.876   4.970   5.331  0.1195 -0.2016  0.1946
17940TIP3    H175311   5.834   5.049   5.365 -1.2382 -0.6569 -0.3835
17940TIP3    H275312   5.890   4.987   5.238 -0.2788 -0.6773  0.0447
17941TIP3   OH275313   2.291   5.265  14.296  0.8389 -0.3158 -0.0642
17941TIP3    H175314   2.277   5.176  14.331  1.8256 -0.0157  1.1114
17941TIP3    H275315   2.226   5.273  14.225  0.0303 -1.5947  0.5069
17942TIP3   OH275316   5.972   1.060  15.690  0.1204  0.4475  0.2281
17942TIP3    H175317   5.923   1.053  15.608 -2.7227  0.2356  1.8897
17942TIP3    H275318   5.912   1.103  15.750  2.2492  0.7988  2.1698
17943TIP3   OH275319   1.048   0.500   3.626  0.5895 -0.1310  0.5368
17943TIP3    H175320   0.998   0.440   3.571 -0.7364  1.3177  0.1414
17943TIP3    H275321   1.040   0.585   3.583  2.8069  0.2782  0.8513
17944TIP3   OH275322   2.040   4.924  13.172 -0.2163  0.3588 -0.5640
17944TIP3    H175323   1.976   4.878  13.118  1.1795 -1.1631 -0.9322
17944TIP3    H275324   2.112   4.944  13.113  2.6316 -3.8891  1.2451
17945TIP3   OH275325   6.575   0.545   3.912 -1.1581  0.6132 -0.0043
17945TIP3    H175326   6.580   0.536   4.007 -2.1166 -2.5459 -0.2030
17945TIP3    H275327   6.511   0.615   3.898  1.1589  3.1684  1.6554
17946TIP3   OH275328   2.761   4.546  13.402 -0.1449 -0.1031 -0.5338
17946TIP3    H175329   2.699   4.562  13.473 -0.3640  0.5842 -0.8833
17946TIP3    H275330   2.724   4.590  13.326  0.8802  0.5365 -0.6854
17947TIP3   OH275331   3.912   2.322   0.256 -0.0230  0.1192  0.2690
17947TIP3    H175332   3.876   2.262   0.321  1.0547  0.3524  1.1027
17947TIP3    H275333   3.859   2.307   0.178 -1.0681 -0.4700  1.0669
17948TIP3   OH275334   1.485   4.086   2.129  0.3319  0.1429  0.2095
17948TIP3    H175335   1.548   4.016   2.110  0.9478  0.8599 -0.4172
17948TIP3    H275336   1.403   4.055   2.092  0.2574 -0.8904  1.2044
17949TIP3   OH275337   0.749   4.476  13.607  0.6534 -0.9947 -1.0537
17949TIP3    H175338   0.669   4.528  13.593 -0.3773 -1.9639  1.0648
17949TIP3    H275339   0.803   4.530  13.665 -0.6336 -2.4255  1.5637
17950TIP3   OH275340   4.485   5.882  12.596  0.4532  0.1146 -0.3014
17950TIP3    H175341   4.507   5.908  12.507 -0.7741  0.0449 -0.6319
17950TIP3    H275342   4.390   5.895  12.603  0.6200  0.7225  1.1917
17951TIP3   OH275343   2.292   0.550   4.230  0.5328  0.0291 -0.3605
17951TIP3    H175344   2.357   0.610   4.268  2.2481  0.6218 -4.0881
17951TIP3    H275345   2.334   0.465   4.232 -0.9295 -0.7094  2.5695
17952TIP3   OH275346   0.115   6.067   3.760 -0.6219 -0.2425  0.0590
17952TIP3    H175347   0.114   6.162   3.771 -4.0841  0.0350 -1.8200
17952TIP3    H275348   0.130   6.054   3.667  0.3200 -1.5871  0.3819
17953TIP3   OH275349   6.469   4.183  16.663  0.2599  0.0898 -0.1099
17953TIP3    H175350   6.395   4.236  16.633  1.7692  1.0238 -2.3569
17953TIP3    H275351   6.473   4.111  16.600  0.9429 -0.2283  0.2999
17954TIP3   OH275352   3.015   5.591   4.279 -0.3043 -0.1648 -0.4134
17954TIP3    H175353   3.023   5.579   4.184 -0.5584  0.4124 -0.5057
17954TIP3    H275354   2.963   5.670   4.289 -1.4425 -0.9784  0.2019
17955TIP3   OH275355   6.189   3.493  14.454 -0.2874  0.0537  0.1432
17955TIP3    H175356   6.201   3.440  14.533  0.3370  1.1995  0.8377
17955TIP3    H275357   6.098   3.520  14.457 -0.5196 -0.6810 -0.0360
17956TIP3   OH275358   4.428   1.537  11.391 -0.1916 -0.3460 -0.0169
17956TIP3    H175359   4.461   1.512  11.304 -0.6216 -1.0668  0.0192
17956TIP3    H275360   4.422   1.454  11.439 -0.3502 -0.0004  0.5652
17957TIP3   OH275361   3.520   3.104  12.493 -0.5869  0.0700 -0.4055
17957TIP3    H175362   3.447   3.158  12.524 -0.4470  0.1181 -0.1685
17957TIP3    H275363   3.598   3.157  12.507 -0.1058 -1.3859  2.6780
17958TIP3   OH275364   3.661   0.629   1.017 -0.1926  0.4425  0.2884
17958TIP3    H175365   3.728   0.680   0.972  0.8708 -2.3436 -1.4456
17958TIP3    H275366   3.710   0.566   1.070 -1.4128 -0.7817  0.0046
17959TIP3   OH275367   6.663   1.262   4.085  0.3749  0.2129  0.5040
17959TIP3    H175368   6.608   1.210   4.026 -0.0213  1.0710  0.1184
17959TIP3    H275369   6.637   1.233   4.173  1.3789 -1.4951  0.2663
17960TIP3   OH275370   3.743   1.984  13.175  0.2077 -0.2919  0.0756
17960TIP3    H175371   3.702   2.071  13.178 -0.6972 -0.6592 -1.2442
17960TIP3    H275372   3.731   1.949  13.263 -0.3836  0.4829  0.3117
17961TIP3   OH275373   1.297   6.702   2.909  0.5682  0.3901 -0.0214
17961TIP3    H175374   1.313   6.664   2.996 -1.4761  1.4325  0.8523
17961TIP3    H275375   1.285   6.626   2.852 -2.0333 -0.3323  1.4222
17962TIP3   OH275376   3.633   3.039  12.227 -0.2192 -0.5472 -0.8609
17962TIP3    H175377   3.707   3.060  12.285 -2.1781  1.8037  0.9299
17962TIP3    H275378   3.611   3.123  12.186 -1.1177 -1.4772 -2.3121
17963TIP3   OH275379   2.247   4.613   0.207  0.0131  0.0704 -0.0913
17963TIP3    H175380   2.198   4.533   0.188  1.2808 -0.6227 -0.5429
17963TIP3    H275381   2.338   4.584   0.212  0.5104  1.5257 -0.5154
17964TIP3   OH275382   5.853   3.225   3.153 -0.4301  0.5068  0.0671
17964TIP3    H175383   5.811   3.291   3.099  0.0340  0.8883  0.1693
17964TIP3    H275384   5.908   3.274   3.214 -0.2616  0.0410  0.3004
17965TIP3   OH275385   5.848   0.618  13.190  0.5690  0.7549 -0.2581
17965TIP3    H175386   5.887   0.667  13.263  0.3950 -2.1708  1.8849
17965TIP3    H275387   5.908   0.546  13.174 -1.8908 -1.5175  0.4032
17966TIP3   OH275388   6.671   3.469   2.404  0.1905 -0.3000 -0.3902
17966TIP3    H175389   6.661   3.487   2.497  1.1314  0.0899 -0.3594
17966TIP3    H275390   6.723   3.543   2.371  0.5211 -0.8337 -1.0734
17967TIP3   OH275391   3.175   4.745  11.445 -0.2368  0.2856  0.4017
17967TIP3    H175392   3.127   4.703  11.373 -0.4606 -0.1865  0.8215
17967TIP3    H275393   3.258   4.773  11.405 -1.1474  1.7574 -0.5050
17968TIP3   OH275394   6.553   2.518  11.076  0.1560 -0.4642  0.6841
17968TIP3    H175395   6.560   2.586  11.009 -1.5081 -0.7164  0.2270
17968TIP3    H275396   6.561   2.436  11.028 -0.1498 -0.6266  0.9054
17969TIP3   OH275397   4.004   4.171  10.349 -0.0892  0.1616 -0.7506
17969TIP3    H175398   4.045   4.249  10.311  0.1804 -0.2842 -1.3953
17969TIP3    H275399   4.030   4.100  10.290 -1.6747 -0.1631 -1.0864
17970TIP3   OH275400   6.363   3.294   1.101 -0.6491 -0.2073  0.0365
17970TIP3    H175401   6.426   3.229   1.130 -0.4560  0.6544  1.6716
17970TIP3    H275402   6.396   3.325   1.017  0.0116 -1.1980 -0.0726
17971TIP3   OH275403   1.419   5.777   0.025 -0.0148  1.1968  0.0567
17971TIP3    H175404   1.379   5.692   0.008  0.5504  0.9842 -0.2111
17971TIP3    H275405   1.435   5.814  -0.062  3.3187 -0.0801  0.0677
17972TIP3   OH275406   4.771   0.144   2.983  0.5515 -1.0405  0.5339
17972TIP3    H175407   4.860   0.154   2.951 -0.0221 -0.8577 -1.0257
17972TIP3    H275408   4.719   0.122   2.906 -0.7001 -1.5181  1.4788
17973TIP3   OH275409   0.107   6.209  13.000  0.0425  0.0408 -0.8038
17973TIP3    H175410   0.191   6.171  12.973  1.2510  1.8234  0.2959
17973TIP3    H275411   0.120   6.303  12.992 -1.6854  0.3560 -0.1095
17974TIP3   OH275412   2.583   0.181  16.500 -0.0764  0.4359 -0.0971
17974TIP3    H175413   2.562   0.088  16.504  2.4913 -0.1095  1.3236
17974TIP3    H275414   2.650   0.188  16.433  0.9678  1.0217  0.9965
17975TIP3   OH275415   2.073   3.467  11.850  0.2323  0.0678 -0.4759
17975TIP3    H175416   2.114   3.536  11.903  2.2763 -0.7777 -0.9298
17975TIP3    H275417   2.020   3.417  11.913  2.4088 -0.7504  0.7397
17976TIP3   OH275418   5.359   4.313  14.704 -0.2890  0.2818 -0.2125
17976TIP3    H175419   5.445   4.348  14.730 -0.0348  0.1214 -0.8203
17976TIP3    H275420   5.296   4.368  14.750  0.1519  0.0190  0.7156
17977TIP3   OH275421   5.304   1.699   0.175 -0.1201  0.1398 -0.1943
17977TIP3    H175422   5.246   1.625   0.158  1.3382 -1.1935  0.5669
17977TIP3    H275423   5.377   1.687   0.115 -0.1428  1.2775 -0.4642
17978TIP3   OH275424   0.638   5.874   3.228 -0.3229  0.1521  0.2975
17978TIP3    H175425   0.607   5.795   3.184  2.0096 -0.1016 -0.9747
17978TIP3    H275426   0.723   5.891   3.188  0.6550  1.4573  2.8891
17979TIP3   OH275427   2.098   4.888  13.890 -0.2415  0.0863 -0.1584
17979TIP3    H175428   2.044   4.809  13.897  0.6391 -0.4691  0.4523
17979TIP3    H275429   2.093   4.928  13.977  0.5156 -0.0949 -0.0297
17980TIP3   OH275430   4.001   2.584  15.862  0.5392  0.0378  0.4609
17980TIP3    H175431   4.080   2.634  15.883  0.9244 -0.9076  1.2960
17980TIP3    H275432   4.030   2.519  15.798  0.0799  0.7380 -0.4744
17981TIP3   OH275433   3.953   4.770  17.190  0.0179 -0.0490  0.2689
17981TIP3    H175434   3.992   4.803  17.109 -0.6282  1.3223  0.4851
17981TIP3    H275435   3.908   4.690  17.165  1.1639 -0.4991 -0.3933
17982TIP3   OH275436   4.286   5.790  13.707  0.2265  0.1377  0.5303
17982TIP3    H175437   4.212   5.729  13.712 -0.2679  0.8408  2.4713
17982TIP3    H275438   4.300   5.817  13.798  0.5003  2.8360 -0.2911
17983TIP3   OH275439   0.420   1.092  10.726 -0.2503  0.0575  0.2469
17983TIP3    H175440   0.343   1.118  10.677  0.9719  0.5362 -1.4833
17983TIP3    H275441   0.452   1.172  10.767 -1.1365 -0.2987  1.6762
17984TIP3   OH275442   0.857   6.679   1.224  0.4324 -0.2634 -0.2196
17984TIP3    H175443   0.832   6.659   1.314 -0.6412 -0.0159 -0.4600
17984TIP3    H275444   0.775   6.679   1.175  1.0024 -0.3591 -1.1967
17985TIP3   OH275445   3.228   4.207   1.427  0.3062 -0.2418  0.0256
17985TIP3    H175446   3.268   4.294   1.422  0.6430 -0.2597  1.9333
17985TIP3    H275447   3.292   4.148   1.388  1.4997 -0.0661  1.7008
17986TIP3   OH275448   1.022   1.631  15.248  0.1541 -0.3967  0.0248
17986TIP3    H175449   0.944   1.685  15.256 -0.1546 -0.9703  1.0296
17986TIP3    H275450   1.056   1.625  15.338  1.9147  0.6853 -0.5503
17987TIP3   OH275451   1.304   2.487   5.678  0.1723  0.1846 -0.3496
17987TIP3    H175452   1.215   2.453   5.686  0.0914 -0.1653 -2.4668
17987TIP3    H275453   1.354   2.415   5.637  0.9922  1.0411 -0.8809
17988TIP3   OH275454   3.323   1.879   2.307 -0.1868  0.1766  0.1269
17988TIP3    H175455   3.404   1.880   2.358 -0.6158  1.9235  0.8165
17988TIP3    H275456   3.347   1.915   2.222 -0.3000  1.0320  0.4509
17989TIP3   OH275457   5.359   6.023  11.249 -0.5331  0.3757 -0.1753
17989TIP3    H175458   5.370   5.931  11.273  0.5372  1.2452  2.8555
17989TIP3    H275459   5.405   6.031  11.165 -2.2434 -2.2193 -1.4490
17990TIP3   OH275460   3.768   4.162   3.901  0.4151 -0.1019  0.2436
17990TIP3    H175461   3.760   4.081   3.952  0.0522  0.7385  1.5462
17990TIP3    H275462   3.745   4.231   3.963 -2.9843  0.7488 -1.8523
17991TIP3   OH275463   4.636   5.206   6.745 -0.4676  0.1486 -0.6564
17991TIP3    H175464   4.596   5.188   6.659  0.2416 -0.6826 -0.8152
17991TIP3    H275465   4.727   5.229   6.725  0.6075 -3.1216  0.0602
17992TIP3   OH275466   4.981   0.144   5.128 -0.2464  0.1586  0.5428
17992TIP3    H175467   5.070   0.154   5.164 -0.6553  1.0722  1.3282
17992TIP3    H275468   4.940   0.079   5.184  0.7247 -2.1835 -1.3769
17993TIP3   OH275469   5.928   5.868   1.908 -0.3607  0.6414  0.0141
17993TIP3    H175470   5.840   5.901   1.925  1.0352  3.5115  2.0351
17993TIP3    H275471   5.954   5.908   1.825  0.0089  1.9524  0.7430
17994TIP3   OH275472   0.677   6.425   0.447  0.0766 -0.1321 -0.0698
17994TIP3    H175473   0.697   6.499   0.505 -1.1142 -1.7678  2.4582
17994TIP3    H275474   0.753   6.367   0.455 -0.4054 -0.6962  0.3650
17995TIP3   OH275475   2.892   6.035  14.469 -0.4534  0.2007  0.2466
17995TIP3    H175476   2.876   6.089  14.546  0.4949  2.9535 -1.4273
17995TIP3    H275477   2.821   6.057  14.408 -0.1342 -0.5580 -0.4206
17996TIP3   OH275478   3.661   5.416   6.042 -0.7012 -0.5626  0.1149
17996TIP3    H175479   3.631   5.371   5.963 -1.0135 -0.9827  0.4726
17996TIP3    H275480   3.660   5.509   6.019  1.4343 -0.8061 -1.1555
17997TIP3   OH275481   2.169   6.210  15.797  0.3205  0.5042 -0.0473
17997TIP3    H175482   2.086   6.165  15.810 -0.7061  2.3970  0.1123
17997TIP3    H275483   2.202   6.225  15.885  0.0055  1.2438 -0.0523
17998TIP3   OH275484   6.172   4.442  11.396  0.1448 -0.4629 -0.1391
17998TIP3    H175485   6.216   4.358  11.405  0.8322 -0.1961 -0.9595
17998TIP3    H275486   6.208   4.479  11.316  0.0513  0.7398  0.3715
17999TIP3   OH275487   3.991   4.162  12.669 -0.7757 -0.2112 -0.1075
17999TIP3    H175488   4.017   4.253  12.679 -0.0659 -0.1277 -2.4276
17999TIP3    H275489   3.936   4.144  12.745  0.3899  1.6635  1.2018
18000TIP3   OH275490   4.698   1.521  13.940  0.9150 -0.0178  0.4265
18000TIP3    H175491   4.696   1.615  13.958 -0.2087 -0.0146  0.3275
18000TIP3    H275492   4.698   1.515  13.844  0.5378 -0.1233  0.4329
18001TIP3   OH275493   3.862   6.088   2.283  0.1847 -0.2549 -0.4934
18001TIP3    H175494   3.850   6.045   2.198  1.3621 -0.7551 -0.4247
18001TIP3    H275495   3.871   6.016   2.345  2.4079  0.0469 -0.4067
18002TIP3   OH275496   4.700   0.939   2.188 -0.5770 -0.4571  0.1200
18002TIP3    H175497   4.720   0.885   2.112  2.3223  0.9516 -0.1796
18002TIP3    H275498   4.716   1.029   2.158  1.3824  0.0710  2.5757
18003TIP3   OH275499   6.777   4.077   6.092 -0.2305 -0.0400 -0.4864
18003TIP3    H175500   6.805   4.013   6.159 -0.5090 -0.7892 -1.0773
18003TIP3    H275501   6.850   4.139   6.087  0.0829 -0.3525  0.0467
18004TIP3   OH275502   6.028   2.040   5.092  0.5336 -0.2566  0.0118
18004TIP3    H175503   6.104   1.989   5.121  1.2358  1.3949  1.1359
18004TIP3    H275504   6.052   2.131   5.108 -0.9746  0.4154 -1.3344
18005TIP3   OH275505   1.855   6.080   4.641 -0.1080 -0.1778 -0.2699
18005TIP3    H175506   1.776   6.120   4.678  0.9930  1.0462  0.8497
18005TIP3    H275507   1.823   6.016   4.578 -1.9969  0.0568  0.4182
18006TIP3   OH275508   3.959   4.711  13.079  0.0964 -0.3020  0.2718
18006TIP3    H175509   3.987   4.790  13.125  0.1708 -0.3943  0.3820
18006TIP3    H275510   3.978   4.730  12.987  2.1674 -1.0729  0.5242
18007TIP3   OH275511   0.233   1.581   3.124  0.6968  0.3485 -0.1179
18007TIP3    H175512   0.183   1.517   3.074 -1.4909  1.6900  0.2988
18007TIP3    H275513   0.247   1.653   3.063  1.1290  0.4615  0.1155
18008TIP3   OH275514   3.056   6.372  14.439  0.1842  0.2030 -0.6566
18008TIP3    H175515   3.078   6.288  14.398 -0.1806  0.3392 -1.1358
18008TIP3    H275516   3.111   6.436  14.394  2.0644 -0.0599  1.1812
18009TIP3   OH275517   0.973   2.924  16.748  0.1652 -0.2650 -0.1628
18009TIP3    H175518   1.051   2.871  16.728  2.4710  2.5011  1.1237
18009TIP3    H275519   0.958   2.973  16.668 -0.6501 -1.2451 -0.6177
18010TIP3   OH275520   0.566   3.725  10.910  0.6044  0.4282  0.0572
18010TIP3    H175521   0.495   3.788  10.914 -0.4213 -0.4935 -2.2240
18010TIP3    H275522   0.622   3.746  10.984 -0.8799  2.5756  0.6105
18011TIP3   OH275523   2.282   3.658  11.920  0.6481 -0.1051 -0.2038
18011TIP3    H175524   2.226   3.710  11.977  0.2332 -0.6969 -0.0623
18011TIP3    H275525   2.346   3.617  11.979  0.7013 -0.1043 -0.2600
18012TIP3   OH275526   4.656   5.767   4.500  0.3197  0.2111 -0.4413
18012TIP3    H175527   4.712   5.823   4.447  0.6130 -0.4843 -0.8753
18012TIP3    H275528   4.654   5.683   4.453 -0.0127 -0.1819  0.2622
18013TIP3   OH275529   4.076   4.675   1.308 -0.7840  0.3037  0.5846
18013TIP3    H175530   4.017   4.659   1.382  0.2120 -0.2691  1.2590
18013TIP3    H275531   4.161   4.644   1.337 -0.2724  0.5175 -0.6328
18014TIP3   OH275532   5.785   4.228   4.812 -0.4277  0.1236  1.0378
18014TIP3    H175533   5.838   4.257   4.738 -1.6403  0.0388  0.1022
18014TIP3    H275534   5.818   4.277   4.887  2.0670 -1.1742  0.8268
18015TIP3   OH275535   6.386   5.393   3.040  0.0735 -0.5388  0.0950
18015TIP3    H175536   6.295   5.363   3.036  0.1613 -0.6704 -0.8376
18015TIP3    H275537   6.411   5.408   2.949  1.2627 -1.3235  0.2852
18016TIP3   OH275538   1.890   5.565  13.772 -0.2521 -0.0528 -0.3763
18016TIP3    H175539   1.881   5.485  13.719  2.4470 -0.5600 -0.1270
18016TIP3    H275540   1.812   5.566  13.827 -1.7023 -1.0244 -2.3544
18017TIP3   OH275541   2.703   0.549  15.962 -0.5887  0.1024 -0.0882
18017TIP3    H175542   2.734   0.554  16.053 -0.3311  2.1253 -0.2626
18017TIP3    H275543   2.780   0.521  15.913 -0.0004  1.5474 -0.0178
18018TIP3   OH275544   0.865   0.212   0.193  0.8010 -0.4134  0.2381
18018TIP3    H175545   0.925   0.168   0.132  0.8935 -0.8432  0.6332
18018TIP3    H275546   0.921   0.273   0.241  0.5637  0.5554 -0.7140
18019TIP3   OH275547   4.127   5.718   4.477 -0.3174 -0.2151  0.1325
18019TIP3    H175548   4.170   5.634   4.460 -0.5315 -0.3856  0.4225
18019TIP3    H275549   4.199   5.777   4.499 -0.1294 -0.2203 -0.4740
18020TIP3   OH275550   2.322   5.657  16.524  0.3628 -0.1314 -0.1577
18020TIP3    H175551   2.403   5.622  16.562  0.2754 -0.3072 -0.1346
18020TIP3    H275552   2.280   5.703  16.597  0.3587 -0.1855 -0.1263
18021TIP3   OH275553   3.320   5.993   4.776  0.5460  0.2051  0.0451
18021TIP3    H175554   3.396   5.944   4.806 -1.3545 -1.9345  1.5683
18021TIP3    H275555   3.267   5.928   4.728 -1.4213  1.0417  1.0246
18022TIP3   OH275556   5.187   3.986   1.897 -0.6381 -0.1931  0.0903
18022TIP3    H175557   5.273   3.985   1.939 -0.6500  1.3262  0.2074
18022TIP3    H275558   5.136   3.919   1.943  1.1508 -2.7178 -1.4883
18023TIP3   OH275559   3.684   1.067  14.978  0.2498  0.0856 -0.6228
18023TIP3    H175560   3.593   1.097  14.979 -0.2469 -1.3577  0.2633
18023TIP3    H275561   3.736   1.145  14.962 -1.0231  1.2886  0.9813
18024TIP3   OH275562   2.003   2.113  13.589  0.4661 -0.4747  0.3241
18024TIP3    H175563   1.945   2.186  13.570  0.3127 -0.2798  1.4858
18024TIP3    H275564   2.029   2.079  13.503 -1.1780 -0.4243 -0.2063
18025TIP3   OH275565   6.807   4.756  14.085  0.2528 -0.1726 -0.1188
18025TIP3    H175566   6.824   4.817  14.012  0.2431  0.1972  0.1891
18025TIP3    H275567   6.830   4.670  14.049  2.7351  0.3021  0.2625
18026TIP3   OH275568   1.577   1.806   4.966  0.0195 -0.5973 -0.6440
18026TIP3    H175569   1.496   1.796   5.017  1.4122  1.3741  2.1264
18026TIP3    H275570   1.550   1.856   4.889 -1.5792 -0.7019 -0.1827
18027TIP3   OH275571   6.343   1.066   0.386  0.0469 -0.6511 -0.0050
18027TIP3    H175572   6.343   0.979   0.426 -2.0891 -1.1608 -1.0546
18027TIP3    H275573   6.250   1.088   0.375  0.5713  1.1623 -1.0436
18028TIP3   OH275574   3.060   1.917   0.609 -0.7534  0.4464 -0.1801
18028TIP3    H175575   3.119   1.987   0.582  0.7848 -0.0458  1.7463
18028TIP3    H275576   3.108   1.837   0.588 -2.2446 -0.0506 -1.8166
18029TIP3   OH275577   5.148   4.377   5.627  0.0484  0.2082  0.2000
18029TIP3    H175578   5.129   4.442   5.695 -0.6160  0.9105 -0.6340
18029TIP3    H275579   5.116   4.294   5.662 -1.1116  0.7249  0.3728
18030TIP3   OH275580   6.443   1.760  13.557 -0.6635  0.6454 -0.2396
18030TIP3    H175581   6.380   1.806  13.502 -0.7288 -0.5300 -1.1667
18030TIP3    H275582   6.436   1.668  13.531  1.4638  0.4945 -0.4130
18031TIP3   OH275583   5.604   0.806   5.638  1.0093  0.0530  0.1985
18031TIP3    H175584   5.602   0.712   5.619 -0.2597  0.0445  0.3442
18031TIP3    H275585   5.611   0.812   5.733  0.0174  0.1064  0.2690
18032TIP3   OH275586   6.473   1.298  12.226  0.0110 -0.5089  0.0444
18032TIP3    H175587   6.553   1.347  12.248 -0.3882  0.3837 -0.4505
18032TIP3    H275588   6.402   1.359  12.244 -0.5134 -1.0135 -0.2973
18033TIP3   OH275589   4.210   6.583   1.752 -0.8804  0.1751 -0.0389
18033TIP3    H175590   4.156   6.657   1.776  0.3335  0.1838  2.9476
18033TIP3    H275591   4.170   6.508   1.798  0.5398 -0.1267  0.7496
18034TIP3   OH275592   4.612   2.609  15.305 -0.0715 -0.3938 -0.2645
18034TIP3    H175593   4.601   2.542  15.373 -1.4340  0.6701  0.5949
18034TIP3    H275594   4.606   2.560  15.223 -0.0619 -1.4733  0.3602
18035TIP3   OH275595   2.955   2.882  16.996  0.3007  0.5384 -0.1516
18035TIP3    H175596   2.862   2.860  17.001  0.7063 -1.4239 -0.7563
18035TIP3    H275597   2.959   2.976  17.013 -1.8034  0.6600 -0.2565
18036TIP3   OH275598   3.616   4.189   5.052  0.0559  0.1508 -0.4825
18036TIP3    H175599   3.636   4.111   4.999 -0.1539 -0.4329  0.2940
18036TIP3    H275600   3.672   4.257   5.015 -0.2681 -0.1875 -1.6164
18037TIP3   OH275601   2.744   2.750  11.593  0.0626 -0.1120 -0.4275
18037TIP3    H175602   2.667   2.748  11.651 -0.0023 -1.4294 -0.5352
18037TIP3    H275603   2.716   2.703  11.515  0.8473 -0.2331 -0.6418
18038TIP3   OH275604   3.214   6.522  17.161  0.4900  0.3417 -0.1611
18038TIP3    H175605   3.196   6.450  17.222 -0.8115 -0.6881 -1.7089
18038TIP3    H275606   3.150   6.589  17.183  0.6899  0.3913  0.2734
18039TIP3   OH275607   4.545   1.454  13.348 -0.1706 -0.5390 -0.4558
18039TIP3    H175608   4.500   1.394  13.289  1.7186 -0.8055 -1.6920
18039TIP3    H275609   4.488   1.531  13.353 -1.9749 -1.8785  0.0980
18040TIP3   OH275610   2.643   5.204  13.215 -0.2456  0.2850 -0.0698
18040TIP3    H175611   2.690   5.201  13.298 -0.3044  1.3130  0.0129
18040TIP3    H275612   2.657   5.119  13.176  2.6747  0.9698 -0.5984
18041TIP3   OH275613   0.880   0.191  16.935 -0.6694 -0.3225  0.5500
18041TIP3    H175614   0.788   0.210  16.919 -0.8114 -0.7153  0.8852
18041TIP3    H275615   0.926   0.271  16.908 -1.2321  0.3942  1.6358
18042TIP3   OH275616   5.479   0.671   4.540  0.2297  0.3137  0.0254
18042TIP3    H175617   5.387   0.690   4.520  0.1635 -0.3254 -0.2948
18042TIP3    H275618   5.476   0.587   4.586  0.1103  2.9393  5.2569
18043TIP3   OH275619   4.045   2.446   0.976  0.0857  0.4796 -0.7781
18043TIP3    H175620   4.124   2.480   1.018  0.7983 -0.5973 -1.2139
18043TIP3    H275621   3.984   2.519   0.978  0.5794  0.8735  0.8874
18044TIP3   OH275622   0.775   0.914   2.349  0.3124  0.8146 -0.0412
18044TIP3    H175623   0.856   0.895   2.396  0.0625  1.1943  0.5535
18044TIP3    H275624   0.776   1.009   2.339  1.0670  0.6111 -2.0931
18045TIP3   OH275625   3.673   5.836  12.559 -0.4902  0.2638 -0.3279
18045TIP3    H175626   3.706   5.746  12.566 -1.4324 -0.0575  0.1566
18045TIP3    H275627   3.687   5.874  12.646 -1.6144  0.0336 -0.0318
18046TIP3   OH275628   0.163   3.846  16.179 -0.9801  0.0395  0.5007
18046TIP3    H175629   0.139   3.922  16.232 -0.3006  0.0333  0.8234
18046TIP3    H275630   0.245   3.815  16.218 -2.1658 -1.9162  1.4879
18047TIP3   OH275631   4.914   4.893  16.650  0.1555 -0.0171 -0.7500
18047TIP3    H175632   4.847   4.961  16.646  0.1196 -0.0531 -0.7657
18047TIP3    H275633   4.871   4.819  16.693  0.3863  0.1910 -0.1581
18048TIP3   OH275634   2.261   1.594   0.429  0.4921 -0.2163  0.0800
18048TIP3    H175635   2.222   1.506   0.430  0.5268 -0.2294  0.8189
18048TIP3    H275636   2.189   1.652   0.454  0.8413 -0.2038  1.1059
18049TIP3   OH275637   4.457   5.351   2.078 -0.1036  0.6956 -0.2550
18049TIP3    H175638   4.380   5.407   2.088  0.9112  2.2277 -0.8251
18049TIP3    H275639   4.430   5.266   2.114 -2.6563  0.6598 -2.0718
18050TIP3   OH275640   6.290   2.145  17.053  0.3738 -0.0611 -0.1019
18050TIP3    H175641   6.250   2.187  16.977  0.4698  1.9014  0.9201
18050TIP3    H275642   6.225   2.080  17.081  0.1239 -0.4407 -1.5353
18051TIP3   OH275643   4.757   0.706  12.801  0.2103 -0.0511  0.4037
18051TIP3    H175644   4.748   0.738  12.891 -0.7238 -0.2128  0.3695
18051TIP3    H275645   4.729   0.780  12.747  0.5833 -0.0214  0.2534
18052TIP3   OH275646   2.574   1.371  16.459  0.2244 -0.6955 -0.3422
18052TIP3    H175647   2.484   1.356  16.432 -0.0446 -0.6139  0.4965
18052TIP3    H275648   2.567   1.423  16.539  1.0589  0.6968 -1.1565
18053TIP3   OH275649   2.897   2.252  11.292  0.0035  0.6206  0.4462
18053TIP3    H175650   2.887   2.211  11.378  1.0643 -0.0123  0.2839
18053TIP3    H275651   2.937   2.337  11.311  0.0924  0.5471  0.5917
18054TIP3   OH275652   6.600   3.044   4.339 -0.4556 -0.3424  0.0139
18054TIP3    H175653   6.600   3.048   4.244 -0.5443 -1.5967 -0.0525
18054TIP3    H275654   6.514   3.075   4.365 -1.3814 -2.4257 -0.4544
18055TIP3   OH275655   2.012   5.057  12.612  0.1621 -0.3399  0.2859
18055TIP3    H175656   1.990   4.984  12.554  0.9640 -0.1714 -0.2335
18055TIP3    H275657   1.929   5.104  12.623 -0.7378 -2.2205  1.9393
18056TIP3   OH275658   4.425   3.177  11.473  0.1250 -0.5580 -0.7874
18056TIP3    H175659   4.386   3.195  11.559  1.8571 -0.4293 -0.0037
18056TIP3    H275660   4.403   3.254  11.420 -0.1209 -0.1939 -0.1587
18057TIP3   OH275661   1.038   3.312   3.568 -0.5436  0.2443 -0.0471
18057TIP3    H175662   1.076   3.315   3.656  1.0792  0.2735 -0.7262
18057TIP3    H275663   0.959   3.365   3.574  0.9869  2.4943  0.7109
18058TIP3   OH275664   6.346   6.800   4.886 -0.7262 -0.2016  0.4993
18058TIP3    H175665   6.398   6.879   4.875 -1.4995  0.3527  0.8516
18058TIP3    H275666   6.255   6.830   4.891 -1.2618 -1.2844 -1.7320
18059TIP3   OH275667   5.508   1.461  14.231 -0.4157  0.6460  0.1094
18059TIP3    H175668   5.538   1.472  14.142  0.7940 -1.1068  0.2686
18059TIP3    H275669   5.587   1.468  14.285 -0.9612  0.5600  0.9415
18060TIP3   OH275670   0.101   1.753  11.466  0.4340  0.0247 -0.3678
18060TIP3    H175671   0.080   1.838  11.429 -3.4365 -0.2471  0.9668
18060TIP3    H275672   0.113   1.769  11.560  2.7255 -0.4516 -0.5514
18061TIP3   OH275673   0.533   3.860   4.528  0.4694 -0.1527 -0.6840
18061TIP3    H175674   0.501   3.875   4.617 -3.0426 -1.0410 -1.7345
18061TIP3    H275675   0.574   3.943   4.503  0.8255  0.3480  1.4882
18062TIP3   OH275676   5.320   5.735   2.467 -0.1784  0.0825 -0.2202
18062TIP3    H175677   5.288   5.819   2.500  1.0124  0.9229 -1.1590
18062TIP3    H275678   5.393   5.758   2.409  0.5030 -1.6321 -0.0761
18063TIP3   OH275679   0.040   1.222   3.325 -0.4972 -0.3849  0.3711
18063TIP3    H175680   0.077   1.285   3.387 -2.3422  1.2152 -0.1134
18063TIP3    H275681   0.113   1.199   3.267  0.0287  1.8104  0.1383
18064TIP3   OH275682   5.865   6.470   3.778 -0.1590  0.8955  0.1488
18064TIP3    H175683   5.794   6.489   3.839 -0.2065 -0.6504  0.5830
18064TIP3    H275684   5.821   6.446   3.697 -0.1318  0.6442  0.2068
18065TIP3   OH275685   3.068   5.751   0.396 -0.1746  0.3719  0.3111
18065TIP3    H175686   3.145   5.807   0.389 -0.5168  1.0774  1.8744
18065TIP3    H275687   3.084   5.698   0.474 -0.5691 -0.5937 -0.2548
18066TIP3   OH275688   1.998   4.478  14.642 -0.4076 -0.1428  0.6903
18066TIP3    H175689   2.034   4.517  14.722 -1.3682  2.6110 -0.1930
18066TIP3    H275690   1.906   4.461  14.663 -0.6544  0.5614  0.1824
18067TIP3   OH275691   2.268   0.017   0.593 -0.3918  0.2302  0.2206
18067TIP3    H175692   2.253   0.094   0.538  2.6414 -0.6947 -2.0816
18067TIP3    H275693   2.363   0.002   0.586 -0.3986 -1.6795  3.4204
18068TIP3   OH275694   4.691   6.384   4.283  0.1185 -0.2069 -0.3558
18068TIP3    H175695   4.750   6.458   4.302  0.0008 -0.2082  0.0295
18068TIP3    H275696   4.604   6.424   4.281 -0.0626 -0.5046  0.9258
18069TIP3   OH275697   5.189   2.349   1.855  0.0029  0.0786  0.9737
18069TIP3    H175698   5.106   2.335   1.808  1.0787  0.0064 -0.9620
18069TIP3    H275699   5.162   2.375   1.943 -2.0618 -2.0370  1.0088
18070TIP3   OH275700   6.687   4.495  15.134  0.6733  0.0969  0.8183
18070TIP3    H175701   6.643   4.469  15.215  2.4055 -0.9815  1.4269
18070TIP3    H275702   6.778   4.510  15.159  1.2181 -0.2019 -0.9183
18071TIP3   OH275703   1.520   5.220  16.884  0.5025 -0.3955 -0.3075
18071TIP3    H175704   1.428   5.200  16.867  0.2234  0.7835 -0.2417
18071TIP3    H275705   1.567   5.179  16.811 -0.2592  0.6755 -1.4189
18072TIP3   OH275706   3.935   6.603   0.837 -0.3759 -0.3098  0.0664
18072TIP3    H175707   3.922   6.526   0.891  1.6429 -0.6128  0.1823
18072TIP3    H275708   3.987   6.663   0.891 -1.1111  0.7390 -0.3608
18073TIP3   OH275709   2.734   0.843  17.284 -0.2378  0.0285  0.4592
18073TIP3    H175710   2.662   0.866  17.225  0.6365 -0.3324 -0.7946
18073TIP3    H275711   2.764   0.927  17.319 -0.3408  0.3219 -0.1357
18074TIP3   OH275712   4.923   4.152  15.409 -0.0357  0.2503 -0.0542
18074TIP3    H175713   4.994   4.215  15.396 -0.6719  0.5086 -2.6184
18074TIP3    H275714   4.939   4.115  15.496  2.1129  1.7080  0.2126
18075TIP3   OH275715   1.536   1.357   2.886  0.3032 -0.0366  0.5285
18075TIP3    H175716   1.460   1.413   2.866  0.5896  0.3602  0.5560
18075TIP3    H275717   1.501   1.268   2.884  0.2953  0.0060 -1.5726
18076TIP3   OH275718   3.777   3.632   1.911 -0.0716 -0.1135  0.2792
18076TIP3    H175719   3.812   3.593   1.991 -0.8603 -1.7730 -0.1779
18076TIP3    H275720   3.749   3.558   1.858 -0.1202  1.0092 -1.2834
18077TIP3   OH275721   5.623   6.714   6.054 -0.8774  0.1750  0.4319
18077TIP3    H175722   5.688   6.700   6.123 -1.1522 -0.5079  0.5589
18077TIP3    H275723   5.636   6.805   6.026  0.9870 -0.3285 -0.4198
18078TIP3   OH275724   0.893   6.649   5.935 -0.6161  0.1996 -0.6962
18078TIP3    H175725   0.965   6.709   5.913 -1.4150  1.5430  0.2886
18078TIP3    H275726   0.833   6.702   5.987 -1.9368 -1.1391 -0.8335
18079TIP3   OH275727   0.971   6.041   6.836 -0.5126 -0.4245  0.2755
18079TIP3    H175728   0.906   5.990   6.788  0.8508 -0.3905 -1.6888
18079TIP3    H275729   1.055   6.005   6.808  0.4825  2.7432 -0.9983
18080TIP3   OH275730   5.545   5.445   1.370 -0.2897  0.6518 -0.1679
18080TIP3    H175731   5.553   5.485   1.284  1.5488  0.4051 -0.1305
18080TIP3    H275732   5.540   5.518   1.431 -0.3888  0.8243 -0.3844
18081TIP3   OH275733   3.681   0.678   4.244 -0.0657  0.6111 -0.0775
18081TIP3    H175734   3.643   0.763   4.219 -0.0636  0.0814 -1.9368
18081TIP3    H275735   3.730   0.650   4.167  1.6173 -0.1554  1.2307
18082TIP3   OH275736   0.701   0.377   0.887  0.1115 -0.2248 -0.1103
18082TIP3    H175737   0.612   0.355   0.915 -0.3302 -0.2640 -1.4806
18082TIP3    H275738   0.751   0.384   0.968 -1.0387 -0.6590  0.6522
18083TIP3   OH275739   2.081   5.178   3.076  0.6065  0.1210 -0.6652
18083TIP3    H175740   2.024   5.208   3.147 -0.6798 -1.0637 -1.1771
18083TIP3    H275741   2.097   5.257   3.023  1.2138  0.9096  0.6858
18084TIP3   OH275742   2.668   2.805  14.831  0.7833 -0.0789 -0.1908
18084TIP3    H175743   2.628   2.798  14.918 -1.7520 -0.7029 -1.3689
18084TIP3    H275744   2.632   2.885  14.794  0.5379 -0.6761 -1.2898
18085TIP3   OH275745   0.070   3.325  13.148 -0.5854  0.1970 -0.4791
18085TIP3    H175746   0.038   3.282  13.068 -0.3873  0.8540 -0.9153
18085TIP3    H275747   0.079   3.254  13.211 -0.7256 -0.3316 -1.0473
18086TIP3   OH275748   0.299   6.655   2.850  0.2448 -0.8774  0.1084
18086TIP3    H175749   0.365   6.723   2.864  0.4523 -0.8048 -1.1814
18086TIP3    H275750   0.216   6.697   2.872  0.5719 -0.8373  1.3151
18087TIP3   OH275751   4.999   5.037   0.888 -0.1142  0.5008  0.4541
18087TIP3    H175752   4.928   4.993   0.935 -0.9086  1.0347 -0.2145
18087TIP3    H275753   4.996   5.000   0.799 -0.6657  1.7339 -0.0561
18088TIP3   OH275754   1.291   4.927  16.891 -0.0643  0.2729 -0.0324
18088TIP3    H175755   1.367   4.869  16.886 -0.1406  0.0528  1.0484
18088TIP3    H275756   1.217   4.871  16.871 -0.0705  0.1466  0.3301
18089TIP3   OH275757   2.963   5.719   3.933 -0.3999 -0.4332  0.0060
18089TIP3    H175758   3.030   5.689   3.994  0.9455  0.9261 -0.7723
18089TIP3    H275759   2.968   5.658   3.859 -1.3263 -1.4564  0.7669
18090TIP3   OH275760   3.648   5.500   6.494  0.4255 -0.3121  0.6782
18090TIP3    H175761   3.703   5.468   6.565  2.1581  1.7723  0.3337
18090TIP3    H275762   3.605   5.578   6.530 -2.2364 -1.8321  0.9012
18091TIP3   OH275763   3.236   3.490   3.926 -0.4436 -0.0055 -0.3841
18091TIP3    H175764   3.255   3.427   3.856 -0.6797 -0.7932  0.2452
18091TIP3    H275765   3.143   3.509   3.916 -0.9088 -1.5089  0.8019
18092TIP3   OH275766   3.324   3.684  13.836  0.2335 -0.3409 -0.3437
18092TIP3    H175767   3.344   3.764  13.884  0.8863  0.0210 -1.2221
18092TIP3    H275768   3.382   3.618  13.874  1.8101  0.2825 -1.6230
18093TIP3   OH275769   0.123   3.289  11.805 -0.2512  0.3458 -0.1873
18093TIP3    H175770   0.067   3.224  11.848  0.6571  0.8558  1.8246
18093TIP3    H275771   0.125   3.262  11.713 -0.7383 -1.8636  0.4235
18094TIP3   OH275772   2.029   4.012   3.187 -0.3174  0.0214 -0.2484
18094TIP3    H175773   1.934   4.014   3.201 -0.0719 -1.5101  1.8036
18094TIP3    H275774   2.039   4.006   3.092 -2.2333  1.5164 -0.5898
18095TIP3   OH275775   4.156   3.433   1.714  0.5551  0.3033  0.1810
18095TIP3    H175776   4.126   3.513   1.671 -1.2052 -0.8308 -0.7613
18095TIP3    H275777   4.076   3.382   1.727  1.8155 -1.8445 -0.3406
18096TIP3   OH275778   0.048   4.069   0.055  0.2881 -0.1003  0.3899
18096TIP3    H175779   0.116   4.124   0.016 -0.7230  0.7462 -0.2177
18096TIP3    H275780   0.087   3.982   0.061  1.7180  0.5658  0.8484
18097TIP3   OH275781   4.304   1.794   0.238 -0.1666 -0.1418  0.2866
18097TIP3    H175782   4.270   1.876   0.205  0.3452 -0.5938 -1.4380
18097TIP3    H275783   4.311   1.806   0.333 -0.6870  1.5582  0.1098
18098TIP3   OH275784   1.719   2.510   5.706  0.1104 -0.9170  0.0279
18098TIP3    H175785   1.706   2.604   5.701  0.4493 -0.9134 -0.8872
18098TIP3    H275786   1.712   2.489   5.799 -0.7286 -0.1015  0.1561
18099TIP3   OH275787   3.327   0.854   3.555 -0.1233  0.1521 -0.4183
18099TIP3    H175788   3.274   0.809   3.489  1.7516 -1.2789 -0.9879
18099TIP3    H275789   3.341   0.942   3.519 -1.3344  0.2464 -0.6767
18100TIP3   OH275790   3.591   0.390  11.273  0.5736  0.6857  0.7141
18100TIP3    H175791   3.611   0.411  11.182  1.6861  0.1723  0.8278
18100TIP3    H275792   3.495   0.391  11.278  0.3777 -2.6268 -1.2881
18101TIP3   OH275793   1.095   5.384  16.202 -0.2058  0.0163 -0.4132
18101TIP3    H175794   1.143   5.439  16.264  2.2655 -1.9437 -0.5141
18101TIP3    H275795   1.032   5.337  16.256  0.8485 -0.4971  0.3942
18102TIP3   OH275796   3.402   5.805   1.205 -0.3443 -0.1246  0.0677
18102TIP3    H175797   3.384   5.725   1.254 -1.8364  0.0806 -0.1032
18102TIP3    H275798   3.319   5.826   1.163  0.8754 -0.1940 -2.4220
18103TIP3   OH275799   2.944   0.056   3.837 -0.6901 -0.7124  0.6889
18103TIP3    H175800   2.970  -0.021   3.887  2.4073  0.0143  0.3261
18103TIP3    H275801   3.005   0.125   3.866 -3.2310  1.5572  0.8597
18104TIP3   OH275802   0.072   6.672  15.823 -0.4690 -0.0206  0.4779
18104TIP3    H175803   0.142   6.609  15.843  0.5191  1.2094  1.0224
18104TIP3    H275804   0.082   6.690  15.730 -0.6408 -0.5295  0.3591
18105TIP3   OH275805   6.166   6.292  16.825  0.2563  0.2113  0.4599
18105TIP3    H175806   6.084   6.256  16.792 -0.5692  1.7516  0.7524
18105TIP3    H275807   6.224   6.216  16.836 -0.5638 -0.7028 -1.3160
18106TIP3   OH275808   6.390   0.602   0.261 -0.4658  0.1562  0.1999
18106TIP3    H175809   6.341   0.536   0.213  0.9891 -0.0802 -0.9835
18106TIP3    H275810   6.465   0.554   0.297 -0.4422  0.7625  0.9682
18107TIP3   OH275811   2.302   0.962   2.406  0.3607  0.2469 -0.1234
18107TIP3    H175812   2.230   0.925   2.354 -0.2557  0.5308  0.5328
18107TIP3    H275813   2.376   0.967   2.344 -0.2694  0.2483 -0.8784
18108TIP3   OH275814   1.359   0.721   2.622 -0.1828 -0.2571  0.2460
18108TIP3    H175815   1.319   0.779   2.557 -2.1082 -1.0762  0.6469
18108TIP3    H275816   1.436   0.684   2.579 -1.0780 -0.2897 -1.3356
18109TIP3   OH275817   6.221   0.089   2.066 -0.1275  0.2384  0.0530
18109TIP3    H175818   6.254   0.009   2.025 -1.1036 -0.1751  0.0726
18109TIP3    H275819   6.127   0.075   2.075 -0.3037  1.3820  0.0749
18110TIP3   OH275820   4.699   1.264  17.096 -0.2398  1.1583  0.4711
18110TIP3    H175821   4.687   1.286  17.004 -0.9393  0.3237  0.3482
18110TIP3    H275822   4.611   1.242  17.127  0.3041 -0.7646  0.7394
18111TIP3   OH275823   0.227   2.406  11.985 -0.1895 -0.2877 -0.6597
18111TIP3    H175824   0.318   2.403  11.953 -0.2855 -1.3010 -0.8667
18111TIP3    H275825   0.199   2.314  11.984 -1.9487  0.2327 -2.6757
18112TIP3   OH275826   6.238   0.593   0.874 -0.4528 -0.6670 -0.1074
18112TIP3    H175827   6.191   0.637   0.944  3.2609  0.7991  1.6021
18112TIP3    H275828   6.211   0.637   0.794 -2.5209 -0.3990  0.7261
18113TIP3   OH275829   1.575   2.911  14.906  0.2759  0.2473  0.1462
18113TIP3    H175830   1.560   2.947  14.994  0.9056 -1.1663  0.8536
18113TIP3    H275831   1.495   2.861  14.888  0.1874  0.4596 -0.0496
18114TIP3   OH275832   1.916   0.143   4.032 -0.3660 -0.3387 -0.0723
18114TIP3    H175833   2.007   0.136   4.062 -0.5671 -1.9733  0.2352
18114TIP3    H275834   1.886   0.228   4.065  0.5009 -0.5742  1.3899
18115TIP3   OH275835   1.158   6.126   5.792  0.4070 -0.3620 -0.0527
18115TIP3    H175836   1.067   6.099   5.805  0.6006 -0.4157  1.1583
18115TIP3    H275837   1.167   6.131   5.696 -0.2134 -2.5810 -0.2561
18116TIP3   OH275838   3.730   5.157   0.264 -0.0557  0.0319  0.9197
18116TIP3    H175839   3.703   5.187   0.351  0.1164 -0.1184  1.0252
18116TIP3    H275840   3.673   5.205   0.204 -0.2310  0.0753  1.1191
18117TIP3   OH275841   1.282   1.304   3.121 -0.1787  0.0710  0.2917
18117TIP3    H175842   1.368   1.306   3.165  0.0467  0.8121 -0.1803
18117TIP3    H275843   1.298   1.256   3.040  0.2309  1.8945 -0.7206
18118TIP3   OH275844   2.634   2.143  17.000 -0.1072  0.5220  0.5003
18118TIP3    H175845   2.657   2.055  17.031 -1.7573 -0.1610 -0.1620
18118TIP3    H275846   2.567   2.174  17.061 -1.1821  0.3847 -0.5930
18119TIP3   OH275847   4.704   5.397  10.808 -0.6873  0.0127 -0.1538
18119TIP3    H175848   4.789   5.385  10.849 -1.2238 -0.4527  0.8303
18119TIP3    H275849   4.641   5.367  10.873 -1.6781  1.5584 -0.3782
18120TIP3   OH275850   3.055   2.292   1.115  0.6164  0.0892 -0.0271
18120TIP3    H175851   3.026   2.205   1.142  1.4899  0.2213  1.4157
18120TIP3    H275852   3.101   2.278   1.032  0.6270 -0.8073  0.1271
18121TIP3   OH275853   1.289   3.499   0.519 -0.0664  0.5085  0.4595
18121TIP3    H175854   1.231   3.425   0.498 -0.5155 -0.7197  5.3948
18121TIP3    H275855   1.229   3.570   0.542  0.2984 -0.0497  3.3042
18122TIP3   OH275856   6.188   5.432  16.088  0.2242  0.1025 -0.2224
18122TIP3    H175857   6.272   5.476  16.075  0.4971 -0.4972 -0.5509
18122TIP3    H275858   6.187   5.363  16.021 -1.3553  1.2805 -1.4555
18123TIP3   OH275859   3.228   3.103  11.062 -0.3910 -0.2492 -0.0350
18123TIP3    H175860   3.251   3.101  10.969  0.5740 -0.3212  0.2055
18123TIP3    H275861   3.208   3.195  11.080 -0.4483 -0.2130 -0.2740
18124TIP3   OH275862   3.710   0.986   2.508  0.1547  0.3018  0.7398
18124TIP3    H175863   3.631   1.003   2.559  1.0418  0.0028  2.2511
18124TIP3    H275864   3.780   1.028   2.557  1.2282 -1.1486  0.5037
18125TIP3   OH275865   5.269   0.328  14.278  1.1323 -0.1219 -0.6978
18125TIP3    H175866   5.324   0.250  14.279  0.7482 -0.4105 -1.5499
18125TIP3    H275867   5.296   0.376  14.200  0.3030 -0.1787 -1.0234
18126TIP3   OH275868   3.904   6.543  16.870 -0.0961  0.1436  0.0018
18126TIP3    H175869   3.939   6.565  16.783  1.9398 -2.1153  0.1906
18126TIP3    H275870   3.827   6.489  16.851  2.2140 -3.1556 -0.5049
18127TIP3   OH275871   4.403   2.289  16.168  0.1058  0.1217  0.6096
18127TIP3    H175872   4.420   2.371  16.214  1.5928  1.6358 -2.4956
18127TIP3    H275873   4.460   2.225  16.212  1.3013  1.4516  1.0357
18128TIP3   OH275874   4.089   1.995  10.791 -0.0506 -0.0526  0.2703
18128TIP3    H175875   4.169   1.958  10.755  0.4955  0.3950  0.9951
18128TIP3    H275876   4.118   2.045  10.868 -0.8057  1.4674 -0.3980
18129TIP3   OH275877   3.592   4.429   3.144  0.0244 -0.2006 -0.5312
18129TIP3    H175878   3.541   4.387   3.213  0.3302  0.0505 -0.1484
18129TIP3    H275879   3.682   4.401   3.160  0.5675  2.1826  0.9773
18130TIP3   OH275880   1.818   0.764  16.289 -0.3668 -0.4929  0.2341
18130TIP3    H175881   1.884   0.749  16.356  0.1316  0.7133  0.0349
18130TIP3    H275882   1.782   0.678  16.270  0.7428 -1.0799  0.7705
18131TIP3   OH275883   1.838   2.528  11.767  0.0966  0.3193 -0.3569
18131TIP3    H175884   1.779   2.590  11.724  0.5248  0.5213 -0.6448
18131TIP3    H275885   1.889   2.490  11.696  1.2359  1.1084  0.0303
18132TIP3   OH275886   2.725   0.200  14.168 -0.4465  0.9185 -0.0568
18132TIP3    H175887   2.668   0.164  14.099  0.5457 -1.0392  0.1204
18132TIP3    H275888   2.801   0.234  14.120  0.6424 -1.2146  0.0961
18133TIP3   OH275889   0.712   2.006  12.096 -0.1306 -0.1431 -0.1318
18133TIP3    H175890   0.698   2.097  12.121  0.3664 -0.2626  0.5860
18133TIP3    H275891   0.775   2.010  12.024  0.1840  0.0546  0.1550
18134TIP3   OH275892   4.932   6.261   0.143 -0.3410 -0.4531 -0.3138
18134TIP3    H175893   5.020   6.289   0.116 -0.6480  1.6450  0.7283
18134TIP3    H275894   4.932   6.271   0.238 -1.1700 -2.1011 -0.1279
18135TIP3   OH275895   4.387   0.691  11.680 -0.3376  0.2916  0.1466
18135TIP3    H175896   4.449   0.670  11.610 -0.8423 -0.4301 -0.0909
18135TIP3    H275897   4.441   0.731  11.748  0.3183  0.0828 -0.2438
18136TIP3   OH275898   5.040   5.635   0.333 -0.4896 -0.2422 -0.1926
18136TIP3    H175899   5.005   5.684   0.258 -1.0544  0.3115  0.4296
18136TIP3    H275900   5.082   5.559   0.293 -3.3283 -1.5183 -0.9351
18137TIP3   OH275901   4.450   4.418  15.825  0.0690 -0.0551  0.1588
18137TIP3    H175902   4.525   4.363  15.846  2.3554  2.2889 -1.5803
18137TIP3    H275903   4.389   4.359  15.781  1.1534 -1.8383  0.9756
18138TIP3   OH275904   0.939   4.353   4.269 -0.0018  0.0819 -0.8343
18138TIP3    H175905   0.997   4.429   4.275 -0.0825  0.1687 -1.1551
18138TIP3    H275906   0.852   4.388   4.289  0.4239 -0.5508  2.3613
18139TIP3   OH275907   3.878   2.099  11.615  0.0492 -0.0037  0.3482
18139TIP3    H175908   3.899   2.156  11.688  0.7662  0.0878  0.0736
18139TIP3    H275909   3.887   2.010  11.650 -2.0693  0.0350  1.0633
18140TIP3   OH275910   4.092   5.159   3.427 -0.4852  0.0106 -0.4894
18140TIP3    H175911   3.997   5.173   3.427 -0.7240 -1.4027 -2.2301
18140TIP3    H275912   4.121   5.194   3.511 -2.6610 -0.3054  0.4311
18141TIP3   OH275913   0.175   1.106   3.071  0.4681  0.4496 -0.5098
18141TIP3    H175914   0.218   1.032   3.027  1.0008  0.2642  0.3182
18141TIP3    H275915   0.122   1.146   3.003  0.4061 -0.5225 -1.0454
18142TIP3   OH275916   4.334   3.196   3.870 -0.0964 -0.1674  0.3461
18142TIP3    H175917   4.396   3.187   3.798 -0.5040  1.5814 -0.2494
18142TIP3    H275918   4.366   3.272   3.919 -1.8167  0.8366 -0.0435
18143TIP3   OH275919   0.124   1.158  10.883  0.3009 -0.2187 -0.5785
18143TIP3    H175920   0.174   1.144  10.964 -0.1358 -0.6474 -0.3828
18143TIP3    H275921   0.037   1.123  10.902  0.3496 -0.7988 -1.4175
18144TIP3   OH275922   0.747   5.359   2.479  0.1185  0.5418  0.3836
18144TIP3    H175923   0.828   5.340   2.527 -0.5921 -0.0197  1.3877
18144TIP3    H275924   0.773   5.360   2.387  0.7225 -2.6159  0.4615
18145TIP3   OH275925   3.926   3.221   1.848 -0.1362 -0.3428 -0.4504
18145TIP3    H175926   3.959   3.150   1.903 -2.4334  0.1092  1.5963
18145TIP3    H275927   3.903   3.291   1.910 -2.7641  0.1934 -1.9355
18146TIP3   OH275928   1.710   0.584   5.178 -0.3141 -0.6935  0.0865
18146TIP3    H175929   1.689   0.565   5.269  0.3622  0.5865  0.5116
18146TIP3    H275930   1.695   0.501   5.132 -1.2292 -1.1812  1.2550
18147TIP3   OH275931   4.246   1.245   1.505  0.3348 -0.1294  0.1652
18147TIP3    H175932   4.247   1.151   1.522  1.1399  0.3058  2.7463
18147TIP3    H275933   4.154   1.265   1.486  0.3250 -1.5727 -1.4559
18148TIP3   OH275934   3.899   0.798   5.082  0.0134 -0.2797  0.0059
18148TIP3    H175935   3.972   0.785   5.142 -0.3828  0.3038  0.6211
18148TIP3    H275936   3.881   0.892   5.086 -1.0669 -0.4937  0.1969
18149TIP3   OH275937   0.705   0.573   3.426 -0.0248  0.2597 -0.0432
18149TIP3    H175938   0.745   0.632   3.489  0.1832 -0.6638  0.6877
18149TIP3    H275939   0.693   0.627   3.347 -0.1684  1.3687  0.7282
18150TIP3   OH275940   2.253   6.282  11.557  0.2216  0.5538  0.6723
18150TIP3    H175941   2.231   6.294  11.649  1.6128  0.1677  1.0608
18150TIP3    H275942   2.170   6.257  11.516 -0.6234  1.7526  1.6201
18151TIP3   OH275943   5.881   5.811  15.448  0.0979  0.3785  0.2730
18151TIP3    H175944   5.882   5.848  15.360  0.8873  0.3253  0.2498
18151TIP3    H275945   5.804   5.849  15.489 -3.0812 -3.3029 -1.9711
18152TIP3   OH275946   4.997   5.357   4.949  0.7424 -0.3181  0.3361
18152TIP3    H175947   4.959   5.273   4.923  3.6077 -1.0097 -1.8677
18152TIP3    H275948   4.925   5.403   4.993 -2.1178 -2.1730 -2.1904
18153TIP3   OH275949   6.684   5.843  12.691 -0.1581 -0.0410 -1.1714
18153TIP3    H175950   6.722   5.915  12.641  0.3255  1.4616  1.2894
18153TIP3    H275951   6.759   5.791  12.719 -0.2836  0.1189 -0.5302
18154TIP3   OH275952   5.563   3.264  10.974  0.3119 -0.5480  0.0017
18154TIP3    H175953   5.551   3.209  11.051 -1.2341 -0.6883 -0.3218
18154TIP3    H275954   5.654   3.295  10.981  0.4956 -1.3263  1.3571
18155TIP3   OH275955   3.554   0.898  14.158 -0.4779 -0.2044  0.0172
18155TIP3    H175956   3.627   0.846  14.193  1.5853  1.5657 -1.4759
18155TIP3    H275957   3.548   0.872  14.066 -2.1960 -0.8043  0.2823
18156TIP3   OH275958   4.620   5.266   4.669 -0.2019  0.0810  0.1235
18156TIP3    H175959   4.624   5.291   4.761  0.2822 -0.9185  0.3790
18156TIP3    H275960   4.690   5.315   4.627  0.4202 -0.4619  0.5307
18157TIP3   OH275961   0.799   1.837  13.059  0.3581  0.6115  0.2657
18157TIP3    H175962   0.746   1.837  12.979  0.8688  1.7604 -0.0725
18157TIP3    H275963   0.888   1.852  13.028  0.6647  0.2613  0.9848
18158TIP3   OH275964   3.141   5.007   1.091  0.4674 -0.2651 -0.6293
18158TIP3    H175965   3.143   4.951   1.168 -0.3004 -0.0820 -0.4715
18158TIP3    H275966   3.067   4.974   1.040 -0.9860  1.5726  0.2169
18159TIP3   OH275967   2.452   6.459  15.303 -0.8467 -0.2944 -0.1318
18159TIP3    H175968   2.475   6.536  15.355  1.3033 -1.0531  0.0749
18159TIP3    H275969   2.462   6.385  15.363  0.6067 -1.0738 -1.2932
18160TIP3   OH275970   1.064   1.947  17.051  0.1511  0.6451  0.0709
18160TIP3    H175971   1.088   1.905  16.968 -1.3246  2.8615 -1.5186
18160TIP3    H275972   0.999   1.888  17.090  0.3660 -0.0666 -0.6389
18161TIP3   OH275973   0.095   4.051   0.828 -0.8242  0.1165  0.0423
18161TIP3    H175974   0.060   3.971   0.787 -0.6790  0.8642 -1.6003
18161TIP3    H275975   0.061   4.049   0.917  0.8632 -2.8547  0.7052
18162TIP3   OH275976   0.538   0.634  11.453 -0.4697 -0.2084  0.0826
18162TIP3    H175977   0.599   0.685  11.506 -0.8819 -0.8368  1.1962
18162TIP3    H275978   0.467   0.695  11.432 -0.8127 -0.2113  1.1549
18163TIP3   OH275979   4.630   4.803  11.447  0.2038 -0.0874 -0.2983
18163TIP3    H175980   4.544   4.779  11.413  0.0388 -0.5854  0.4661
18163TIP3    H275981   4.692   4.756  11.391 -0.0856 -1.4053  0.4548
18164TIP3   OH275982   2.904   6.536   3.298  0.3317  0.2504 -0.7846
18164TIP3    H175983   2.834   6.589   3.259 -0.1559 -0.2723 -0.6217
18164TIP3    H275984   2.872   6.514   3.386  0.5502 -0.2871 -0.8377
18165TIP3   OH275985   1.793   4.094  13.105 -0.2060  0.0875 -0.3501
18165TIP3    H175986   1.883   4.068  13.085  0.2305  0.8083  0.6253
18165TIP3    H275987   1.776   4.167  13.046  0.1020  0.3868 -0.0795
18166TIP3   OH275988   3.218   5.381  16.521 -0.0401 -0.1965 -0.0759
18166TIP3    H175989   3.247   5.388  16.430 -1.2756  1.5173 -0.3588
18166TIP3    H275990   3.286   5.427  16.571  0.0397 -0.1132 -0.2568
18167TIP3   OH275991   1.613   3.872  14.938  0.1805 -0.0474  0.0757
18167TIP3    H175992   1.569   3.823  15.008 -1.3086 -0.2270 -0.9494
18167TIP3    H275993   1.544   3.926  14.900  1.7424  2.5941  0.9339
18168TIP3   OH275994   3.031   4.905  14.212  0.6036  0.2359 -0.1803
18168TIP3    H175995   2.936   4.905  14.226  0.4596  0.4178 -1.0954
18168TIP3    H275996   3.068   4.895  14.299 -0.2897 -1.2728  0.0445
18169TIP3   OH275997   0.663   1.970   3.522 -0.1559 -0.2631 -0.1760
18169TIP3    H175998   0.754   1.999   3.518  1.3393 -4.3118  1.3508
18169TIP3    H275999   0.630   2.003   3.605  0.5162 -0.2627  0.0937
18170TIP3   OH276000   2.662   4.773   2.383 -0.1050 -0.0367  0.5614
18170TIP3    H176001   2.655   4.686   2.345  2.0068 -1.0811  2.4492
18170TIP3    H276002   2.626   4.763   2.471 -0.3794  1.1513  0.5911
18171TIP3   OH276003   2.062   2.667   3.752  0.1662  0.2746 -0.4556
18171TIP3    H176004   2.117   2.597   3.787  0.5583 -0.1514 -1.8996
18171TIP3    H276005   2.059   2.733   3.822  0.6898 -0.6919  0.4783
18172TIP3   OH276006   6.629   2.986   2.148 -0.4714 -0.5571 -0.0393
18172TIP3    H176007   6.671   3.043   2.212 -0.5201  0.0030 -0.4956
18172TIP3    H276008   6.669   3.010   2.065 -1.0306 -0.6594 -0.3442
18173TIP3   OH276009   0.475   6.734   5.480 -0.1404  0.2250  0.3193
18173TIP3    H176010   0.537   6.753   5.550 -0.1438  1.1137  0.0799
18173TIP3    H276011   0.389   6.752   5.519 -0.0652  2.2918 -0.3920
18174TIP3   OH276012   3.828   6.456  14.824  0.1185 -0.0788 -0.1430
18174TIP3    H176013   3.796   6.543  14.801 -2.4039 -1.7765 -3.6366
18174TIP3    H276014   3.884   6.431  14.750  2.1876 -0.7794  1.6317
18175TIP3   OH276015   4.242   1.363  16.515 -0.7404  0.4664 -0.3492
18175TIP3    H176016   4.233   1.288  16.457 -0.5036  0.1570  0.0114
18175TIP3    H276017   4.184   1.429  16.478  1.8754  1.4695 -2.7896
18176TIP3   OH276018   4.264   2.766  15.644  0.1054  0.4851  0.3520
18176TIP3    H176019   4.247   2.833  15.709 -0.8108  0.8642 -0.2748
18176TIP3    H276020   4.325   2.807  15.582  0.8612  0.1725  0.8733
18177TIP3   OH276021   3.229   3.766   4.864  0.0318  0.1400 -0.0003
18177TIP3    H176022   3.289   3.701   4.829 -1.3468 -0.3886 -1.4163
18177TIP3    H276023   3.143   3.741   4.831 -0.7953  1.6237  0.9341
18178TIP3   OH276024   3.948   5.607   0.843 -0.3821 -0.1734  0.4796
18178TIP3    H176025   3.989   5.634   0.925 -1.0560 -1.1498  1.1424
18178TIP3    H276026   3.937   5.512   0.851 -0.8662 -0.2130 -0.5504
18179TIP3   OH276027   3.451   2.479  10.868  0.5560  0.1289  0.1459
18179TIP3    H176028   3.473   2.568  10.839  2.5083 -0.9505 -1.8858
18179TIP3    H276029   3.401   2.442  10.796 -0.1733 -0.4556  0.9475
18180TIP3   OH276030   2.513   3.116   1.298  0.1969 -0.0029  0.2437
18180TIP3    H176031   2.438   3.175   1.303  0.1169  0.0419 -1.4998
18180TIP3    H276032   2.501   3.068   1.216  3.0708  1.3524 -1.0400
18181TIP3   OH276033   0.549   0.926  14.649 -0.0591  0.2841  0.3238
18181TIP3    H176034   0.459   0.958  14.635 -0.2117 -0.7788 -1.2605
18181TIP3    H276035   0.548   0.893  14.738 -1.3510 -0.0385  0.2116
18182TIP3   OH276036   4.084   5.451  13.408  0.1408 -0.4122  0.0006
18182TIP3    H176037   4.158   5.476  13.352 -2.1655  3.7448 -1.3885
18182TIP3    H276038   4.037   5.385  13.358  1.5136 -1.2598 -0.1963
18183TIP3   OH276039   3.853   0.533  12.699 -0.5951  0.1366  0.5470
18183TIP3    H176040   3.933   0.582  12.680 -0.2616  0.2290  2.1436
18183TIP3    H276041   3.805   0.589  12.760 -0.8272 -0.9219  1.3409
18184TIP3   OH276042   0.234   0.696   5.371  0.0542  0.4052 -0.0626
18184TIP3    H176043   0.251   0.729   5.283 -3.2350  1.4660 -0.3499
18184TIP3    H276044   0.269   0.764   5.429 -1.3787  1.6218 -0.6035
18185TIP3   OH276045   0.414   5.126   3.106 -0.3238  0.5978  0.5485
18185TIP3    H176046   0.483   5.112   3.171  1.2635 -0.2259 -1.2736
18185TIP3    H276047   0.460   5.159   3.028 -1.9264 -0.3491 -0.8361
18186TIP3   OH276048   2.676   6.252   2.590  0.0715 -0.0654  0.4335
18186TIP3    H176049   2.595   6.245   2.541 -0.0590  1.1147  0.4596
18186TIP3    H276050   2.670   6.337   2.634  0.7498 -0.5417  1.4674
18187TIP3   OH276051   3.946   3.998   3.753  0.6277  0.4380  0.1165
18187TIP3    H176052   3.877   4.033   3.809  0.3225  0.3059 -0.1738
18187TIP3    H276053   3.931   3.904   3.753 -0.2711  0.5582 -1.3487
18188TIP3   OH276054   2.575   1.085  15.300  0.0655 -0.5793  0.5701
18188TIP3    H176055   2.643   1.146  15.328 -1.5501  1.4621  0.1756
18188TIP3    H276056   2.559   1.107  15.208 -1.0663 -1.0907  0.6385
18189TIP3   OH276057   3.160   3.185   4.969 -0.8491  0.0860  0.0374
18189TIP3    H176058   3.224   3.115   4.960 -1.3686 -0.2415 -1.2158
18189TIP3    H276059   3.179   3.225   5.054 -0.3284 -1.3442  0.5936
18190TIP3   OH276060   6.610   3.266  13.923  0.2330  0.0242 -0.3162
18190TIP3    H176061   6.566   3.185  13.949  0.3367 -0.5025 -1.7319
18190TIP3    H276062   6.553   3.304  13.857 -0.9012  2.2325  1.8450
18191TIP3   OH276063   3.527   3.760   1.497  0.4693 -0.0215 -0.0380
18191TIP3    H176064   3.618   3.777   1.523  0.0409 -0.0785  1.5511
18191TIP3    H276065   3.490   3.846   1.481  0.7058  0.0221 -0.3586
18192TIP3   OH276066   1.172   3.903   0.360 -0.5703 -0.5222  0.2450
18192TIP3    H176067   1.242   3.900   0.424 -1.1293  0.1323  0.8889
18192TIP3    H276068   1.214   3.937   0.280 -0.1847 -0.0328  0.6563
18193TIP3   OH276069   3.596   2.119   5.527  0.1451  0.1700 -0.5520
18193TIP3    H176070   3.642   2.131   5.610 -1.6956  0.1608  0.4702
18193TIP3    H276071   3.538   2.194   5.520 -0.1488 -0.1437 -1.5497
18194TIP3   OH276072   5.071   6.424   2.777 -0.1102 -0.2609  0.1539
18194TIP3    H176073   5.024   6.507   2.772 -1.2870 -0.8541  0.9673
18194TIP3    H276074   5.026   6.376   2.847  0.2280 -1.7734 -0.6472
18195TIP3   OH276075   5.100   5.917   4.213  0.1168  0.0469  0.0206
18195TIP3    H176076   5.076   5.899   4.122  0.5430 -2.4197  0.3788
18195TIP3    H276077   5.025   5.965   4.248 -1.1967 -1.2750 -0.9034
18196TIP3   OH276078   6.642   0.182  10.836 -0.1950 -0.0470  0.4368
18196TIP3    H176079   6.561   0.163  10.788  0.2018 -1.0911  0.1626
18196TIP3    H276080   6.635   0.275  10.860 -1.5380 -0.1764  0.5574
18197TIP3   OH276081   6.335   1.045   5.224  0.1684  0.3247  0.0364
18197TIP3    H176082   6.394   1.043   5.299  2.0869 -0.4878 -1.4289
18197TIP3    H276083   6.316   1.138   5.210 -1.7816  0.3807  2.6532
18198TIP3   OH276084   4.434   1.569   1.011 -0.7244 -0.1460 -0.6095
18198TIP3    H176085   4.401   1.656   0.986  0.9140  0.1238 -1.9432
18198TIP3    H276086   4.422   1.516   0.932 -2.3307 -1.3420  0.4036
18199TIP3   OH276087   6.036   1.281  12.785  0.2378  0.6710 -0.5008
18199TIP3    H176088   5.987   1.212  12.741 -1.2510  2.0373 -1.0235
18199TIP3    H276089   6.095   1.234  12.845  0.2734 -1.0886 -1.8696
18200TIP3   OH276090   5.183   5.301  12.819  0.0158  0.1940 -0.1977
18200TIP3    H176091   5.105   5.309  12.764 -0.7053  2.2407  1.0507
18200TIP3    H276092   5.150   5.311  12.909  1.4677 -0.8540  0.4721
18201TIP3   OH276093   0.319   2.544   2.267  0.7581  0.0564  0.6435
18201TIP3    H176094   0.229   2.517   2.284  1.1271 -0.5926  1.5798
18201TIP3    H276095   0.371   2.465   2.279  1.5995  0.7038  1.3353
18202TIP3   OH276096   0.949   4.896  16.955 -0.5181  0.3766  0.7322
18202TIP3    H176097   0.862   4.859  16.967  0.8167 -2.7359  1.1824
18202TIP3    H276098   0.953   4.969  17.018 -2.5354  0.1770  1.1314
18203TIP3   OH276099   4.921   5.950   6.527  0.3428 -0.0675  0.1028
18203TIP3    H176100   4.969   6.024   6.491  1.4736 -0.1149  1.4388
18203TIP3    H276101   4.935   5.957   6.622  1.0152 -2.3347  0.1975
18204TIP3   OH276102   4.225   5.574  16.367  0.3353  0.3992  0.1357
18204TIP3    H176103   4.204   5.484  16.392 -0.5527  0.7071  0.5131
18204TIP3    H276104   4.153   5.600  16.309  0.9016  0.6641 -0.4607
18205TIP3   OH276105   5.631   6.758  15.182  0.6929  0.4103  0.2345
18205TIP3    H176106   5.565   6.807  15.231 -1.2610 -1.1168 -0.7887
18205TIP3    H276107   5.687   6.826  15.145 -0.1686  1.7503  1.3095
18206TIP3   OH276108   2.451   3.171   2.803  0.0665  0.4015  0.6955
18206TIP3    H176109   2.361   3.161   2.772  0.3082  1.3142 -0.3289
18206TIP3    H276110   2.444   3.163   2.898 -0.7723 -1.8029  0.4888
18207TIP3   OH276111   3.809   0.483  13.582  0.0065 -0.2679  0.4576
18207TIP3    H176112   3.890   0.440  13.610  0.6706  0.0411 -0.9513
18207TIP3    H276113   3.817   0.489  13.487 -1.7302 -0.3392  0.2982
18208TIP3   OH276114   0.300   4.790   6.003  0.0071  0.3732 -0.2933
18208TIP3    H176115   0.346   4.747   6.075 -0.9661  0.8060  0.5957
18208TIP3    H276116   0.211   4.755   6.007  0.0040  0.2321 -1.4286
18209TIP3   OH276117   5.095   2.387  14.921  0.0433 -0.0014 -0.1741
18209TIP3    H176118   5.164   2.428  14.974  1.9723 -1.1201 -1.7516
18209TIP3    H276119   5.076   2.305  14.966  1.1284 -0.5834 -0.7373
18210TIP3   OH276120   3.276   0.351   5.789  0.4396 -0.1426 -0.3096
18210TIP3    H176121   3.279   0.356   5.693  0.8807 -0.2221 -0.2991
18210TIP3    H276122   3.290   0.258   5.809 -1.4493 -0.4340 -0.2371
18211TIP3   OH276123   4.142   2.493  10.603 -0.2319  0.2714 -0.4418
18211TIP3    H176124   4.139   2.479  10.508  0.1591  1.1136 -0.5789
18211TIP3    H276125   4.055   2.526  10.625  0.4940  2.5160 -0.8996
18212TIP3   OH276126   0.341   5.000  12.735 -0.4880  0.4477 -0.3228
18212TIP3    H176127   0.432   5.000  12.704 -0.7198  0.1793 -1.0222
18212TIP3    H276128   0.326   4.910  12.764 -0.0588  0.8584  1.2512
18213TIP3   OH276129   1.158   1.104  11.326  0.1232  0.0184  0.3347
18213TIP3    H176130   1.180   1.175  11.386  0.1497 -0.1606  0.5405
18213TIP3    H276131   1.125   1.147  11.248 -0.7598  0.2310  0.8191
18214TIP3   OH276132   6.402   4.460  11.641  0.2538  0.0192 -0.1747
18214TIP3    H176133   6.473   4.494  11.587  1.1422 -0.7809  0.4697
18214TIP3    H276134   6.363   4.389  11.590  1.1954 -0.8433  0.2783
18215TIP3   OH276135   5.124   0.835  16.346  0.1810 -0.1188 -0.1276
18215TIP3    H176136   5.161   0.917  16.312  0.6461  0.2039  1.0977
18215TIP3    H276137   5.033   0.857  16.366  0.9971  0.9015  2.7087
18216TIP3   OH276138   1.189   4.400  13.892 -0.1718  0.0704 -0.1351
18216TIP3    H176139   1.173   4.322  13.839 -0.5679  0.9688 -1.3366
18216TIP3    H276140   1.170   4.474  13.834 -3.1958  1.0823  1.9658
18217TIP3   OH276141   1.333   2.367  10.773 -0.4129 -0.5955  0.0257
18217TIP3    H176142   1.358   2.296  10.832  0.9864  0.8389  1.2161
18217TIP3    H276143   1.365   2.340  10.687  0.6002 -1.1499  0.5736
18218TIP3   OH276144   0.115   4.299  11.686 -0.6012 -0.3173 -0.2928
18218TIP3    H176145   0.130   4.328  11.596  0.0743  1.2945  0.3150
18218TIP3    H276146   0.174   4.225  11.698 -0.1134 -0.0374 -0.9301
18219TIP3   OH276147   3.910   3.633   4.363 -0.9756 -0.0420  0.4527
18219TIP3    H176148   3.895   3.726   4.344  0.6532  0.1113 -0.1698
18219TIP3    H276149   3.987   3.633   4.421 -0.3213 -1.0503 -0.4025
18220TIP3   OH276150   3.238   0.524  15.440  0.0719 -0.4910 -0.0838
18220TIP3    H176151   3.262   0.438  15.406 -2.8280 -0.6145 -1.9750
18220TIP3    H276152   3.230   0.579  15.362  0.4166  1.1453  0.9922
18221TIP3   OH276153   1.458   4.482  16.948 -0.3240  0.0946  0.0806
18221TIP3    H176154   1.445   4.460  16.856  1.0474  0.2374 -0.1455
18221TIP3    H276155   1.371   4.472  16.987 -1.0903  0.8475 -1.3952
18222TIP3   OH276156   4.483   1.063  15.852  0.3846 -0.0200  0.2383
18222TIP3    H176157   4.414   1.121  15.884 -1.5306 -0.5075 -2.7487
18222TIP3    H276158   4.460   0.977  15.886 -0.0856 -0.0562 -0.1706
18223TIP3   OH276159   0.515   3.806  11.402 -0.3623 -0.6146  0.0835
18223TIP3    H176160   0.513   3.822  11.497  0.0708 -1.6058  0.2629
18223TIP3    H276161   0.425   3.783  11.380 -0.5114 -0.1629  0.2109
18224TIP3   OH276162   2.815   2.054   5.514  0.0793 -0.1091  0.0518
18224TIP3    H176163   2.810   2.105   5.433  1.5654 -0.2953 -0.1597
18224TIP3    H276164   2.752   2.097   5.573 -2.3332 -1.0361 -1.7567
18225TIP3   OH276165   4.708   6.600  15.132 -0.5224 -0.2760 -0.3628
18225TIP3    H176166   4.774   6.623  15.198 -0.1011  1.1577 -1.2605
18225TIP3    H276167   4.624   6.615  15.174 -0.2559  0.1230  0.0214
18226TIP3   OH276168   4.338   0.312   1.279  0.3882 -0.1018  0.8783
18226TIP3    H176169   4.373   0.267   1.356 -1.6324  1.2959  2.6355
18226TIP3    H276170   4.251   0.273   1.266  0.5073  0.0361 -0.4093
18227TIP3   OH276171   4.200   0.524  15.341 -0.0155  0.0228  0.0492
18227TIP3    H176172   4.239   0.595  15.393 -0.7254  1.0923 -0.8750
18227TIP3    H276173   4.172   0.565  15.260  0.4994 -1.5234 -0.9470
18228TIP3   OH276174   5.685   5.782   1.475  0.2888  0.1137  0.6112
18228TIP3    H176175   5.777   5.806   1.463  0.3240  0.5553  1.7069
18228TIP3    H276176   5.683   5.740   1.561 -0.4909 -0.1263  0.4755
18229TIP3   OH276177   4.494   4.978   0.734  0.0738 -0.5933 -0.1265
18229TIP3    H176178   4.525   4.931   0.811 -0.6244 -1.1426 -0.1801
18229TIP3    H276179   4.569   5.031   0.706  0.0592  0.2889  1.4492
18230TIP3   OH276180   1.854   1.404  15.054 -0.3338  0.4057 -0.2588
18230TIP3    H176181   1.926   1.467  15.053 -0.3736  0.4636 -3.6014
18230TIP3    H276182   1.781   1.452  15.094  0.7323  1.1892  0.7812
18231TIP3   OH276183   5.788   6.129   4.585  0.6582 -0.2954  0.3802
18231TIP3    H176184   5.851   6.083   4.530 -1.4225 -0.8978 -1.5827
18231TIP3    H276185   5.757   6.063   4.646  1.0825 -0.2952  0.5979
18232TIP3   OH276186   5.656   5.289  10.689 -0.1297 -0.7721 -0.1328
18232TIP3    H176187   5.595   5.274  10.616  0.5433  1.2727 -1.1571
18232TIP3    H276188   5.739   5.311  10.646  0.5201 -0.4589  1.2758
18233TIP3   OH276189   5.573   0.191   3.484  0.3470 -0.0188  0.5573
18233TIP3    H176190   5.635   0.179   3.556  0.2870 -1.9288  0.3396
18233TIP3    H276191   5.607   0.133   3.415 -0.6587  0.3180 -0.2298
18234TIP3   OH276192   5.102   0.178   2.895 -0.1399 -0.7461 -0.1568
18234TIP3    H176193   5.190   0.141   2.886 -0.3573 -0.5720 -3.6025
18234TIP3    H276194   5.115   0.273   2.885 -0.8819 -0.8578 -2.4545
18235TIP3   OH276195   3.463   3.044   3.662 -0.3625 -0.2329  0.0520
18235TIP3    H176196   3.524   3.098   3.712  0.2815  0.2246 -1.2211
18235TIP3    H276197   3.507   3.028   3.579 -1.9674  0.0733 -0.8684
18236TIP3   OH276198   6.679   3.736   0.685  0.2926 -0.0240  0.2536
18236TIP3    H176199   6.764   3.763   0.720  0.3215 -1.1720  1.1087
18236TIP3    H276200   6.619   3.807   0.708  1.0898  0.9782 -0.6991
18237TIP3   OH276201   4.907   6.117   5.877  0.2494  0.1224  0.3273
18237TIP3    H176202   4.875   6.179   5.943 -2.3419 -0.6455 -0.1369
18237TIP3    H276203   4.845   6.127   5.804  0.0748 -2.6729  0.0537
18238TIP3   OH276204   4.136   6.546   1.478  0.5537  0.0700  0.2720
18238TIP3    H176205   4.066   6.611   1.471 -0.3643 -1.0307 -1.2461
18238TIP3    H276206   4.173   6.559   1.566 -1.9870  0.2663  1.3607
18239TIP3   OH276207   5.342   4.115  11.070  0.2472 -0.0833 -0.5552
18239TIP3    H176208   5.403   4.168  11.121 -1.3587  0.2729  1.0398
18239TIP3    H276209   5.386   4.031  11.060  0.1133 -0.5663  2.4681
18240TIP3   OH276210   0.196   2.871   4.682 -0.8550  0.2550 -0.3019
18240TIP3    H176211   0.178   2.866   4.588 -1.6677 -3.4712 -0.0318
18240TIP3    H276212   0.113   2.850   4.724  0.0368 -0.3489  1.2078
18241TIP3   OH276213   4.088   1.739   4.521  0.3657 -0.2632  0.3181
18241TIP3    H176214   4.024   1.786   4.467  0.2496 -1.5469 -0.6649
18241TIP3    H276215   4.043   1.725   4.604 -0.3862 -0.5529 -0.1326
18242TIP3   OH276216   1.416   4.643  14.430  0.1488 -0.3171 -0.3550
18242TIP3    H176217   1.434   4.736  14.418 -1.1414 -0.0571 -0.3020
18242TIP3    H276218   1.321   4.637  14.435  0.3032 -1.4393  1.4435
18243TIP3   OH276219   4.895   5.816  10.729  0.0387 -0.3088 -0.2174
18243TIP3    H176220   4.895   5.817  10.634 -0.9273  0.0755 -0.2121
18243TIP3    H276221   4.977   5.771  10.752 -0.2566 -1.3884 -1.2341
18244TIP3   OH276222   1.139   3.595   3.455  0.3243 -0.5931 -0.1110
18244TIP3    H176223   1.059   3.649   3.457  0.5063 -0.3065 -0.6602
18244TIP3    H276224   1.158   3.579   3.548 -0.2834 -0.5312  0.0280
18245TIP3   OH276225   0.070   1.926  14.159 -0.2809  0.0435  0.2511
18245TIP3    H176226   0.135   1.980  14.112  1.8137 -2.3317  0.2804
18245TIP3    H276227   0.122   1.875  14.222 -2.5886  0.3160  2.4475
18246TIP3   OH276228   4.231   1.575   3.179  0.0016 -0.4694 -0.2841
18246TIP3    H176229   4.141   1.548   3.164  0.2057 -1.6812  0.5444
18246TIP3    H276230   4.229   1.670   3.177 -1.2813 -0.4907 -0.3155
18247TIP3   OH276231   5.367   0.703   4.956 -0.4122 -0.3663  0.4133
18247TIP3    H176232   5.441   0.730   5.010  1.0186  2.2111 -2.6195
18247TIP3    H276233   5.401   0.631   4.903 -1.0773 -1.2853  1.2151
18248TIP3   OH276234   0.787   3.712  13.661  0.2026  0.1435  0.2134
18248TIP3    H176235   0.756   3.629  13.624 -0.3898  0.9135 -1.0433
18248TIP3    H276236   0.741   3.720  13.745 -2.7655  1.0890 -1.4442
18249TIP3   OH276237   2.362   5.264   0.335 -0.1142  0.2933  0.0559
18249TIP3    H176238   2.365   5.298   0.245  1.2412 -1.3673 -0.5410
18249TIP3    H276239   2.391   5.173   0.328  0.6728  0.3363  2.2754
18250TIP3   OH276240   0.283   0.835  12.811  0.0701 -0.4025  0.3998
18250TIP3    H176241   0.205   0.863  12.859 -1.8214 -1.1806 -2.1329
18250TIP3    H276242   0.355   0.852  12.871 -2.0351  0.3713  2.7898
18251TIP3   OH276243   1.858   1.557   5.946  0.2412 -0.4725 -0.2444
18251TIP3    H176244   1.837   1.518   5.861 -1.9811  1.7850 -0.7956
18251TIP3    H276245   1.772   1.571   5.987  1.2803 -1.3308  2.3043
18252TIP3   OH276246   4.051   6.411  14.628  0.1782  0.4804 -0.1485
18252TIP3    H176247   4.036   6.494  14.582 -0.5586 -0.3141 -1.3678
18252TIP3    H276248   3.980   6.354  14.599  1.0362 -0.7884  0.1966
18253TIP3   OH276249   4.607   5.059   2.838 -0.4386  0.2411 -0.0883
18253TIP3    H176250   4.599   4.970   2.802  2.7991  0.1932 -0.8892
18253TIP3    H276251   4.568   5.115   2.771 -0.1695 -0.3966 -0.7986
18254TIP3   OH276252   4.543   3.622  13.803 -0.0066  0.5039  0.0609
18254TIP3    H176253   4.612   3.560  13.827  0.6481  1.4487  0.6133
18254TIP3    H276254   4.474   3.607  13.868  0.3728  0.7334  0.5140
18255TIP3   OH276255   2.580   0.317  10.937  0.2662  0.0191 -0.3931
18255TIP3    H176256   2.655   0.307  10.879  0.0880 -1.1890 -0.4409
18255TIP3    H276257   2.514   0.362  10.884  1.6485  2.9065  0.2981
18256TIP3   OH276258   3.806   5.870   6.648  0.4761 -0.0496 -0.1690
18256TIP3    H176259   3.822   5.945   6.590  0.0306 -1.6964 -2.4648
18256TIP3    H276260   3.713   5.850   6.637  0.5843 -0.9492  0.4627
18257TIP3   OH276261   6.372   2.418  17.097  1.1942 -0.4752  0.1331
18257TIP3    H176262   6.361   2.443  17.188  1.6602  2.6247 -0.6180
18257TIP3    H276263   6.358   2.323  17.096 -0.0148 -0.3647  3.2033
18258TIP3   OH276264   1.161   4.165   2.067  1.0490  0.3899 -0.4344
18258TIP3    H176265   1.158   4.144   2.160 -2.3354 -0.0636 -0.6024
18258TIP3    H276266   1.156   4.261   2.063 -0.2211  0.3352 -0.1921
18259TIP3   OH276267   3.577   2.875   5.012  0.0037 -0.3300  0.3076
18259TIP3    H176268   3.509   2.933   5.047  1.5210  0.8158  1.3917
18259TIP3    H276269   3.546   2.787   5.034 -2.0178  0.0636 -0.8141
18260TIP3   OH276270   5.812   1.955  14.514 -0.0970 -0.1063  0.2152
18260TIP3    H176271   5.876   2.025  14.528 -0.9501  0.6116  0.5716
18260TIP3    H276272   5.789   1.962  14.421  2.0957 -1.8915 -0.5038
18261TIP3   OH276273   3.635   4.452   3.929  0.2399 -0.4573  0.0559
18261TIP3    H176274   3.695   4.431   4.001 -0.2948  0.1584  0.6814
18261TIP3    H276275   3.662   4.393   3.858  2.3200  0.5790 -0.0494
18262TIP3   OH276276   5.391   5.273   2.642  0.0821  0.6500 -0.0524
18262TIP3    H176277   5.338   5.300   2.717 -0.4991 -0.4060 -0.0654
18262TIP3    H276278   5.370   5.336   2.573 -0.3309  0.8887  0.2894
18263TIP3   OH276279   4.238   3.937  10.926  0.4212 -0.3373  0.1735
18263TIP3    H176280   4.253   3.894  11.009 -1.0090 -0.3583  0.4404
18263TIP3    H276281   4.181   4.012  10.948  1.6132  0.7835 -0.4968
18264TIP3   OH276282   2.481   5.972   0.239  0.3096  0.0324 -0.0481
18264TIP3    H176283   2.462   6.065   0.250  2.0785  0.3452  0.4616
18264TIP3    H276284   2.483   5.938   0.329  1.6600 -0.0871 -0.1215
18265TIP3   OH276285   0.540   0.787  16.181  0.4137  0.1623  0.0673
18265TIP3    H176286   0.466   0.729  16.161  1.4466 -0.8375 -0.8938
18265TIP3    H276287   0.581   0.746  16.258  0.0437  0.6677  0.5435
18266TIP3   OH276288   3.566   2.662  15.329  0.4979 -0.2584  0.3658
18266TIP3    H176289   3.657   2.671  15.299  0.8696 -2.3652  0.8036
18266TIP3    H276290   3.570   2.678  15.423 -0.0503  2.4111 -0.0245
18267TIP3   OH276291   5.949   5.937   1.652  0.1509 -0.1691  0.3720
18267TIP3    H176292   5.951   5.888   1.569 -0.2225  0.5895 -0.0915
18267TIP3    H276293   5.964   6.028   1.626 -0.5457  0.1505  1.0739
18268TIP3   OH276294   1.916   6.139   6.423  0.2622  0.4292 -0.7625
18268TIP3    H176295   1.996   6.165   6.469  0.3177  0.6007 -0.9558
18268TIP3    H276296   1.845   6.177   6.474  0.2721 -0.1976 -0.2697
18269TIP3   OH276297   2.782   2.784   2.769 -0.2592 -0.2558  0.0757
18269TIP3    H176298   2.714   2.848   2.747 -0.1698 -0.5595 -1.1504
18269TIP3    H276299   2.797   2.795   2.863  0.6469  2.4295 -0.3313
18270TIP3   OH276300   1.204   3.709   6.626  0.2493  0.8104  0.4681
18270TIP3    H176301   1.280   3.761   6.600  2.1056 -2.3471 -0.7434
18270TIP3    H276302   1.228   3.619   6.603 -4.2851 -0.1584 -0.8866
18271TIP3   OH276303   1.270   4.115  12.305  0.3785 -0.3660 -0.0763
18271TIP3    H176304   1.317   4.040  12.343  0.2596 -1.5053 -2.1087
18271TIP3    H276305   1.291   4.111  12.211 -1.5787  0.7176 -0.5801
18272TIP3   OH276306   0.218   2.011   1.628 -0.2798  0.0051  0.3229
18272TIP3    H176307   0.183   1.928   1.662 -0.5553  0.0219  0.0797
18272TIP3    H276308   0.286   1.985   1.567 -1.6755 -0.1053 -1.2404
18273TIP3   OH276309   0.062   2.554   1.620 -0.3196 -0.4191  0.1648
18273TIP3    H176310   0.038   2.489   1.553 -1.5586 -1.1341  1.2850
18273TIP3    H276311   0.046   2.639   1.578 -0.6095 -0.8527 -0.6105
18274TIP3   OH276312   3.733   2.132  12.608 -0.2873 -0.2779 -0.0142
18274TIP3    H176313   3.697   2.080  12.680  2.5820 -1.1197  0.9187
18274TIP3    H276314   3.731   2.073  12.533  1.5968 -1.3318  0.6983
18275TIP3   OH276315   3.804   0.108   4.744 -0.6503 -0.0777 -0.1863
18275TIP3    H176316   3.764   0.163   4.811 -1.0758 -0.2328 -0.3079
18275TIP3    H276317   3.875   0.062   4.789  0.4127  1.3800 -0.3367
18276TIP3   OH276318   2.521   5.451   2.097 -0.0438 -0.1615 -0.5402
18276TIP3    H176319   2.556   5.364   2.113  1.4225  0.5555  0.2035
18276TIP3    H276320   2.508   5.488   2.185 -2.2500 -0.2352 -0.7976
18277TIP3   OH276321   1.104   0.253   3.232 -0.2386  0.3097  0.3782
18277TIP3    H176322   1.052   0.327   3.201  1.1413  1.3634  0.5271
18277TIP3    H276323   1.129   0.207   3.152 -1.5765 -0.3361  0.3200
18278TIP3   OH276324   5.381   6.124   0.462 -0.0022  0.5673  0.2006
18278TIP3    H176325   5.293   6.135   0.497 -1.0846 -0.3418 -2.1418
18278TIP3    H276326   5.419   6.054   0.515 -0.3427  1.5721  1.8048
18279TIP3   OH276327   0.524   3.543   1.869  0.5975 -0.4122  0.0225
18279TIP3    H176328   0.572   3.471   1.828  0.7907  0.7625 -1.9287
18279TIP3    H276329   0.484   3.590   1.795  1.3466  2.0832  1.1434
18280TIP3   OH276330   3.197   1.891  15.932 -0.2099 -0.0983  0.4670
18280TIP3    H176331   3.274   1.938  15.899  0.4707 -1.6666 -0.2577
18280TIP3    H276332   3.162   1.947  16.000  0.0335  1.8919 -0.9928
18281TIP3   OH276333   3.295   5.886   3.983 -0.5230  0.9185 -0.2606
18281TIP3    H176334   3.218   5.941   3.983 -1.2713 -0.1028  0.2077
18281TIP3    H276335   3.328   5.889   3.893 -0.4227  2.2852 -0.1847
18282TIP3   OH276336   2.563   1.711   6.921 -0.9026 -0.2218 -0.2690
18282TIP3    H176337   2.605   1.632   6.956 -1.0237 -0.4275 -0.5832
18282TIP3    H276338   2.635   1.772   6.907 -0.8378 -0.1807  0.2181
18283TIP3   OH276339   1.573   5.904  12.178  0.5940  0.4618  0.0581
18283TIP3    H176340   1.528   5.839  12.124  1.3908  0.5248 -0.6999
18283TIP3    H276341   1.584   5.861  12.263 -0.9388  0.4754  0.2787
18284TIP3   OH276342   3.186   6.452   4.157  0.5169  0.1843  0.2397
18284TIP3    H176343   3.129   6.515   4.113  2.2240  0.1162 -2.1852
18284TIP3    H276344   3.271   6.495   4.160  1.1846 -1.1418  0.5618
18285TIP3   OH276345   5.997   5.078   0.127  0.4634  0.0258  0.5326
18285TIP3    H176346   5.976   5.167   0.098  0.1929  0.2641  1.4565
18285TIP3    H276347   5.949   5.067   0.209  2.4181 -0.1402  1.6601
18286TIP3   OH276348   6.166   1.095  13.566 -1.0297 -0.6361 -0.6329
18286TIP3    H176349   6.101   1.066  13.502 -1.5916  1.3842 -1.0263
18286TIP3    H276350   6.171   1.023  13.629 -4.7068 -0.2734  0.1953
18287TIP3   OH276351   0.651   1.171   6.067 -0.5083 -0.3684  0.2698
18287TIP3    H176352   0.614   1.194   6.152  0.5103  0.4557  0.4992
18287TIP3    H276353   0.585   1.115   6.026 -0.7306 -1.3061  1.8675
18288TIP3   OH276354   2.277   5.203   4.964 -0.6155  0.3984 -0.3075
18288TIP3    H176355   2.343   5.166   4.906 -0.7417 -0.5193  0.1279
18288TIP3    H276356   2.311   5.289   4.987  0.9786 -0.4960  0.7996
18289TIP3   OH276357   6.401   5.415   2.230  0.1582 -0.0973 -0.1229
18289TIP3    H176358   6.391   5.510   2.222  2.4573  0.3619  1.9227
18289TIP3    H276359   6.358   5.380   2.152  0.7774  2.7088 -1.8138
18290TIP3   OH276360   0.995   3.567  12.273 -0.4348 -1.3741  0.2158
18290TIP3    H176361   1.062   3.619  12.317 -1.5812 -0.8886  1.4310
18290TIP3    H276362   1.040   3.527  12.199  1.0569 -0.6198  0.6975
18291TIP3   OH276363   5.190   5.144  11.271  0.5252 -0.2188 -0.4414
18291TIP3    H176364   5.231   5.229  11.257 -0.6116  0.1416 -1.6856
18291TIP3    H276365   5.225   5.089  11.201 -1.2608  0.1539 -1.6466
18292TIP3   OH276366   4.476   1.565   3.794  0.5118  0.1752  0.3275
18292TIP3    H176367   4.554   1.587   3.844 -0.4117  2.8310  0.7145
18292TIP3    H276368   4.436   1.493   3.842  2.7314 -1.2674  0.0703
18293TIP3   OH276369   1.402   0.639  16.210  0.4231 -0.0460  1.5177
18293TIP3    H176370   1.443   0.557  16.241  0.1163 -0.0026  2.0373
18293TIP3    H276371   1.442   0.707  16.264  1.5746  0.2974  0.2662
18294TIP3   OH276372   3.791   4.103  16.279 -0.6630 -0.3326 -0.3047
18294TIP3    H176373   3.771   4.021  16.324  1.2789 -1.0073 -0.6606
18294TIP3    H276374   3.883   4.121  16.299 -0.4096  0.5426 -2.1238
18295TIP3   OH276375   1.592   1.882  17.231  0.3899  0.0290 -0.3507
18295TIP3    H176376   1.630   1.963  17.198  1.9214 -0.2770  0.6380
18295TIP3    H276377   1.543   1.847  17.157  0.1801  1.5550 -0.9632
18296TIP3   OH276378   6.775   2.134   3.043 -0.0807  0.5812  0.5073
18296TIP3    H176379   6.851   2.140   3.102 -0.6086  1.7766  1.0824
18296TIP3    H276380   6.758   2.040   3.036  2.3427  0.1894 -0.7941
18297TIP3   OH276381   4.614   2.842  12.193  0.5705  0.3145  0.3518
18297TIP3    H176382   4.651   2.849  12.105 -0.5244  0.1490 -0.1371
18297TIP3    H276383   4.623   2.749  12.215 -1.6878 -0.2081 -0.7519
18298TIP3   OH276384   3.258   3.954   5.537  0.2053 -0.3260 -0.3891
18298TIP3    H176385   3.219   3.963   5.624  0.8897 -0.1493 -0.0940
18298TIP3    H276386   3.351   3.938   5.554 -0.0172 -2.3853 -1.0474
18299TIP3   OH276387   1.156   0.365   4.227  1.0720 -0.0969  0.0002
18299TIP3    H176388   1.225   0.429   4.241  0.5843  0.2587  0.8243
18299TIP3    H276389   1.196   0.297   4.174  2.2742 -0.2569  1.0935
18300TIP3   OH276390   0.009   1.284  14.555 -0.1278  0.0227 -0.1519
18300TIP3    H176391   0.019   1.199  14.597 -0.4331  0.0128 -0.0977
18300TIP3    H276392  -0.074   1.279  14.508 -0.2336  0.3486 -0.0058
18301TIP3   OH276393   3.658   1.685   4.669  1.0503  0.1617 -0.6525
18301TIP3    H176394   3.686   1.634   4.593  3.5803  0.7362 -0.1453
18301TIP3    H276395   3.590   1.632   4.710 -1.3066  0.4015 -3.9912
18302TIP3   OH276396   1.042   2.926   1.726  0.2879 -0.2695  0.4393
18302TIP3    H176397   0.962   2.880   1.702  0.4709 -0.7523  0.7604
18302TIP3    H276398   1.023   2.964   1.812  1.2093 -2.3327  1.5733
18303TIP3   OH276399   5.195   3.919   1.537 -0.5750 -0.1634 -0.4037
18303TIP3    H176400   5.168   3.830   1.558 -0.5256  0.2801  1.6033
18303TIP3    H276401   5.115   3.961   1.503 -1.2764 -0.2243  1.1134
18304TIP3   OH276402   1.754   2.734   1.296  0.2582 -0.7565  0.1262
18304TIP3    H176403   1.846   2.745   1.271  0.7711 -2.7585  1.0003
18304TIP3    H276404   1.758   2.703   1.387 -1.4157  2.4817  1.3785
18305TIP3   OH276405   6.276   6.427   2.503 -0.3357 -0.2979 -0.3574
18305TIP3    H176406   6.323   6.345   2.488  0.5404 -0.2536  1.9538
18305TIP3    H276407   6.272   6.435   2.598  0.1568  2.6804 -0.5555
18306TIP3   OH276408   4.172   4.904  16.285  0.3748  0.0221  0.4801
18306TIP3    H176409   4.237   4.970  16.262 -0.1706  0.7643  1.0751
18306TIP3    H276410   4.166   4.908  16.381  1.3787 -1.8662  0.6529
18307TIP3   OH276411   1.341   0.051   2.445  0.5497 -0.1612  0.0553
18307TIP3    H176412   1.269   0.107   2.473  1.1465  1.5905 -1.7417
18307TIP3    H276413   1.402   0.052   2.518 -1.6256 -2.4239  1.9697
18308TIP3   OH276414   0.099   6.614  16.463  0.0777 -0.2224 -1.0084
18308TIP3    H176415   0.135   6.606  16.551  0.6535  0.5660 -1.1660
18308TIP3    H276416   0.008   6.641  16.476  0.5834  1.4098 -0.6708
18309TIP3   OH276417   0.725   4.440   6.873 -0.4385  0.3236  0.0549
18309TIP3    H176418   0.638   4.471   6.851  0.3477  1.5777 -1.3958
18309TIP3    H276419   0.746   4.377   6.804 -0.5362 -0.6590  0.9039
18310TIP3   OH276420   3.666   5.707   2.146  0.3351  0.2825 -0.6499
18310TIP3    H176421   3.744   5.656   2.125  0.9679  0.5961  0.8186
18310TIP3    H276422   3.687   5.796   2.118  0.6716  0.4435  0.0912
18311TIP3   OH276423   1.917   5.991   0.773 -0.2177  0.3309  0.0054
18311TIP3    H176424   1.889   6.023   0.858 -1.3705 -0.8640  0.0864
18311TIP3    H276425   1.871   5.908   0.762  1.4525 -0.4957 -0.9065
18312TIP3   OH276426   6.020   5.990  15.068  0.1025 -0.6595 -0.0900
18312TIP3    H176427   6.109   5.960  15.052  0.1438 -0.3580 -0.4371
18312TIP3    H276428   5.975   5.914  15.103 -0.2147 -1.6179 -2.4496
18313TIP3   OH276429   6.363   1.390  14.238  0.5595  0.2474  0.2104
18313TIP3    H176430   6.364   1.309  14.289  0.2241 -0.6208 -1.1552
18313TIP3    H276431   6.437   1.440  14.271 -0.1685  0.0915  2.1827
18314TIP3   OH276432   5.036   0.872  15.849  0.0503 -0.3118  0.2929
18314TIP3    H176433   4.990   0.868  15.933  1.5256 -0.3533  1.1231
18314TIP3    H276434   5.118   0.825  15.865  0.1975 -0.6239 -1.2822
18315TIP3   OH276435   4.216   6.322   2.462 -0.1890  0.4482  0.4651
18315TIP3    H176436   4.224   6.231   2.492  0.5297  0.8192  1.4324
18315TIP3    H276437   4.123   6.342   2.471 -0.0061  0.5247  2.4061
18316TIP3   OH276438   3.723   5.659   5.925 -0.2546 -0.1005  0.3136
18316TIP3    H176439   3.693   5.667   5.835 -1.3864 -0.9911  0.6036
18316TIP3    H276440   3.811   5.697   5.924 -0.2224 -0.1757 -1.1761
18317TIP3   OH276441   1.631   2.977  16.444  0.1712 -0.7235 -0.0731
18317TIP3    H176442   1.720   2.965  16.477  0.4981 -0.5549 -0.8875
18317TIP3    H276443   1.638   2.964  16.349 -0.9768 -2.4027  0.0486
18318TIP3   OH276444   2.841   1.352  15.604 -0.8313  0.1342 -0.3609
18318TIP3    H176445   2.922   1.388  15.641 -1.2968  0.5923  0.2194
18318TIP3    H276446   2.772   1.408  15.639 -1.5336 -1.0711  0.2352
18319TIP3   OH276447   2.403   3.108   0.336 -0.2415 -0.5628  0.3369
18319TIP3    H176448   2.411   3.183   0.394 -1.9285 -0.4403  0.4506
18319TIP3    H276449   2.443   3.035   0.383 -1.1825 -0.3617  1.4521
18320TIP3   OH276450   1.376   0.282   4.904 -0.1718 -0.5360 -0.2865
18320TIP3    H176451   1.367   0.378   4.901  0.2485 -0.4933 -0.2622
18320TIP3    H276452   1.299   0.249   4.859  0.2249 -0.1564 -1.2541
18321TIP3   OH276453   4.403   2.463  11.749 -0.1187  0.5880  0.4481
18321TIP3    H176454   4.386   2.438  11.658 -1.0629 -1.2786  1.0925
18321TIP3    H276455   4.450   2.388  11.785 -1.7624  0.2927  2.0897
18322TIP3   OH276456   1.007   5.476  14.901  0.2170  1.1045 -0.0862
18322TIP3    H176457   1.082   5.524  14.936 -0.5003  1.5666  0.8578
18322TIP3    H276458   0.960   5.446  14.979  0.2107 -0.4470 -0.6650
18323TIP3   OH276459   0.106   3.943  11.084  0.0616  0.1350  0.0140
18323TIP3    H176460   0.093   4.038  11.074  1.3244  0.2805 -0.4621
18323TIP3    H276461   0.101   3.928  11.178 -0.1043  0.6861  0.0981
18324TIP3   OH276462   4.882   4.027  15.941 -0.0771  0.5470  0.2615
18324TIP3    H176463   4.878   4.055  16.033 -1.7594  1.3949 -0.0612
18324TIP3    H276464   4.796   3.990  15.923 -0.5873  2.5814 -1.6649
18325TIP3   OH276465   1.911   2.271   0.852 -0.1244 -0.1757  0.2755
18325TIP3    H176466   1.994   2.262   0.806 -0.3559  0.3003 -0.2372
18325TIP3    H276467   1.907   2.364   0.876 -0.1563 -0.3525  0.9708
18326TIP3   OH276468   5.560   0.035   0.398 -0.6341  0.5786  0.3722
18326TIP3    H176469   5.515   0.110   0.359  0.5439  1.4648  0.6798
18326TIP3    H276470   5.573   0.059   0.490 -2.4564 -1.0610  1.1027
18327TIP3   OH276471   1.811   5.750   4.899 -0.2939  0.1573  0.0088
18327TIP3    H176472   1.741   5.710   4.846 -0.0356 -0.9591  0.5040
18327TIP3    H276473   1.875   5.681   4.910  0.7097  1.0553 -0.0736
18328TIP3   OH276474   4.477   2.573   5.765 -0.3083  0.8853 -0.0457
18328TIP3    H176475   4.460   2.587   5.859  0.7703 -0.4150  0.3576
18328TIP3    H276476   4.405   2.517   5.736 -0.6364  1.2784  0.0100
18329TIP3   OH276477   3.477   5.320   1.591  0.1137  0.0920  0.3714
18329TIP3    H176478   3.471   5.319   1.496  0.7807 -0.7441  0.3287
18329TIP3    H276479   3.408   5.380   1.619  0.8304  1.4378 -0.6966
18330TIP3   OH276480   3.680   6.455  12.368 -0.4218 -0.7854  0.3726
18330TIP3    H176481   3.634   6.538  12.358 -0.5377 -0.9241 -0.3493
18330TIP3    H276482   3.612   6.389  12.351 -0.4161 -1.0306  1.3043
18331TIP3   OH276483   0.146   5.178   1.461 -0.7563  0.2518  0.2364
18331TIP3    H176484   0.230   5.198   1.421 -0.1657 -0.6857  0.9717
18331TIP3    H276485   0.105   5.263   1.478 -0.2064  0.6926 -0.6395
18332TIP3   OH276486   1.511   3.721   0.712 -0.2770 -0.3417  0.2718
18332TIP3    H176487   1.536   3.743   0.802 -2.8104  2.2317  0.3958
18332TIP3    H276488   1.584   3.751   0.659  0.0907  0.4832  1.2296
18333TIP3   OH276489   6.657   2.265  17.184 -0.4167 -0.8974 -0.0913
18333TIP3    H176490   6.733   2.268  17.125  1.0301 -1.7397  1.6979
18333TIP3    H276491   6.630   2.357  17.192 -1.1823 -0.8575 -2.7344
18334TIP3   OH276492   3.185   0.702   4.906  0.2253  0.0513 -0.0966
18334TIP3    H176493   3.139   0.676   4.986 -1.1255 -0.6533 -1.0664
18334TIP3    H276494   3.221   0.788   4.926 -0.0188 -0.1535  1.2977
18335TIP3   OH276495   3.940   5.956  13.603 -0.5399  0.6949 -0.0250
18335TIP3    H176496   3.850   5.969  13.631 -0.2527  1.0911  0.7243
18335TIP3    H276497   3.938   5.873  13.554 -1.7400  1.8767 -2.0203
18336TIP3   OH276498   6.391   0.603  11.695  0.4622  0.2427  0.5217
18336TIP3    H176499   6.379   0.518  11.738  0.7259 -0.4774 -0.7903
18336TIP3    H276500   6.451   0.650  11.753  0.4013 -0.5058  1.2129
18337TIP3   OH276501   0.480   2.486  11.291 -0.3057 -0.1982  0.0579
18337TIP3    H176502   0.389   2.464  11.308  0.2808 -0.4932  2.9554
18337TIP3    H276503   0.481   2.581  11.281 -1.2486 -0.3935 -2.3871
18338TIP3   OH276504   5.869   1.053   4.086 -0.6684 -0.0492 -0.0413
18338TIP3    H176505   5.867   1.124   4.150 -2.2015 -1.0930  1.0833
18338TIP3    H276506   5.816   0.984   4.124  1.5507 -2.2059 -0.6943
18339TIP3   OH276507   4.940   5.823  13.947  0.2531 -0.3781  0.1577
18339TIP3    H176508   4.922   5.779  14.030  0.3646 -2.4099 -0.8615
18339TIP3    H276509   4.875   5.788  13.886  1.5690 -0.5801 -1.1590
18340TIP3   OH276510   1.144   6.100   4.733  0.2803  0.2316 -0.1564
18340TIP3    H176511   1.134   6.065   4.645 -1.5658 -1.1606  0.5747
18340TIP3    H276512   1.055   6.121   4.761  0.4361 -2.4251  2.5946
18341TIP3   OH276513   4.089   4.978   0.464  0.3652 -0.0515  0.1900
18341TIP3    H176514   4.086   5.028   0.383 -2.7765  0.9206  0.8309
18341TIP3    H276515   4.179   4.946   0.470  1.3009  1.9733 -2.3839
18342TIP3   OH276516   0.597   0.110   1.043  0.1590  0.1271  0.4381
18342TIP3    H176517   0.604   0.133   1.135  1.0406 -0.3791  0.4962
18342TIP3    H276518   0.649   0.030   1.033 -0.6351 -0.3134 -0.3215
18343TIP3   OH276519   5.912   5.691  12.121 -0.5911 -0.0904 -0.5749
18343TIP3    H176520   5.925   5.638  12.200 -1.6414  0.1070 -0.2672
18343TIP3    H276521   5.988   5.671  12.066 -0.4942 -1.1803 -0.0544
18344TIP3   OH276522   0.591   1.759  13.729 -0.0687 -0.6416 -0.1544
18344TIP3    H176523   0.681   1.791  13.741  0.3895 -1.6023 -0.9888
18344TIP3    H276524   0.601   1.669  13.699 -1.3297 -0.9127  0.1958
18345TIP3   OH276525   0.300   2.604   0.708 -0.2894  0.1868 -0.8373
18345TIP3    H176526   0.346   2.549   0.645 -0.1044  1.0142 -1.4326
18345TIP3    H276527   0.358   2.608   0.784 -1.3049 -2.2840  0.1210
18346TIP3   OH276528   0.023   6.593   4.362  0.2723 -1.0643 -0.4050
18346TIP3    H176529   0.035   6.575   4.455 -0.7411  1.1306  0.1927
18346TIP3    H276530  -0.070   6.577   4.346 -0.1442  1.2230 -0.3887
18347TIP3   OH276531   1.899   4.658   5.114 -0.3970  0.6357  0.3309
18347TIP3    H176532   1.854   4.576   5.093  0.2501  0.3380  0.0848
18347TIP3    H276533   1.992   4.636   5.109 -0.1962  1.9071 -1.8276
18348TIP3   OH276534   6.342   3.774   0.633 -1.1270 -0.1598  0.4017
18348TIP3    H176535   6.315   3.806   0.547  0.1642 -1.4813 -0.5343
18348TIP3    H276536   6.313   3.683   0.635  2.3975 -1.3972 -0.3373
18349TIP3   OH276537   1.245   0.624   0.304  0.3983  0.9000  0.0904
18349TIP3    H176538   1.221   0.605   0.213 -1.1243 -0.2037  0.6876
18349TIP3    H276539   1.243   0.538   0.348  3.1770  1.1118  0.7255
18350TIP3   OH276540   3.102   6.130  14.936  0.0587  0.0569  0.0891
18350TIP3    H176541   3.045   6.195  14.977  0.1915  0.2395 -0.0109
18350TIP3    H276542   3.056   6.105  14.855 -0.3320 -0.5031  0.4802
18351TIP3   OH276543   1.568   3.836   1.216  0.0562  0.0724 -0.0284
18351TIP3    H176544   1.526   3.852   1.301 -0.2055  1.8361 -0.4790
18351TIP3    H276545   1.661   3.831   1.237  0.0575  1.1856  0.2870
18352TIP3   OH276546   5.952   6.022   2.812  0.4720  0.0122  0.1884
18352TIP3    H176547   5.871   5.996   2.856  0.6698  0.8932  1.1058
18352TIP3    H276548   6.021   5.971   2.856  0.5225 -0.0099  0.0825
18353TIP3   OH276549   6.173   2.609  16.321 -0.1240 -0.1189 -0.0327
18353TIP3    H176550   6.197   2.677  16.258  0.1261  0.5459  0.7843
18353TIP3    H276551   6.257   2.578  16.356 -0.3193  0.2730  0.7812
18354TIP3   OH276552   2.977   0.718  12.592  0.3808  0.1760 -0.2774
18354TIP3    H176553   3.051   0.756  12.545  1.8589 -0.4953  1.4545
18354TIP3    H276554   2.960   0.780  12.664  1.0541 -1.0353  0.9542
18355TIP3   OH276555   0.645   6.343   1.096 -0.9986  0.3657 -0.1089
18355TIP3    H176556   0.619   6.308   1.011 -1.6834 -1.0510  0.6723
18355TIP3    H276557   0.740   6.334   1.098 -0.9625  0.5574 -0.7810
18356TIP3   OH276558   0.855   0.531   5.631 -0.2232  0.0703 -0.3724
18356TIP3    H176559   0.817   0.596   5.572 -0.9428 -0.3684 -0.3980
18356TIP3    H276560   0.780   0.482   5.664  0.3454 -1.0138 -0.6649
18357TIP3   OH276561   5.865   4.662   5.998 -0.1125  0.4643  0.5795
18357TIP3    H176562   5.832   4.741   5.954  2.1404  0.3010 -1.4617
18357TIP3    H276563   5.786   4.616   6.025 -1.5104  3.5821  2.1784
18358TIP3   OH276564   0.327   2.038   1.121 -0.0361 -0.1128  0.4333
18358TIP3    H176565   0.332   2.128   1.152 -1.0497 -1.2351  4.1256
18358TIP3    H276566   0.236   2.012   1.138 -0.4503 -1.0771 -2.9423
18359TIP3   OH276567   2.495   5.950  16.490  0.7089 -0.6311 -0.1984
18359TIP3    H176568   2.442   6.018  16.529 -0.5777 -1.0464 -1.1932
18359TIP3    H276569   2.581   5.960  16.530  0.5670  1.6458 -0.4192
18360TIP3   OH276570   2.198   0.363   5.228 -0.4317  0.3516 -0.4593
18360TIP3    H176571   2.140   0.402   5.162  2.0970  1.1409 -2.2722
18360TIP3    H276572   2.210   0.273   5.199  0.4098  0.6040 -0.9160
18361TIP3   OH276573   5.390   2.779  14.998  0.0026 -0.0672 -0.5654
18361TIP3    H176574   5.351   2.712  15.054 -1.0043  0.5646 -0.4948
18361TIP3    H276575   5.383   2.860  15.048  0.7092  0.1978 -0.8785
18362TIP3   OH276576   4.858   0.183   2.694 -0.9849 -0.5641 -0.4622
18362TIP3    H176577   4.836   0.267   2.654 -0.2169  0.4164  1.1494
18362TIP3    H276578   4.944   0.197   2.733 -1.3759 -1.7455  0.8381
18363TIP3   OH276579   3.140   0.983  12.346 -0.1432 -0.2889  0.5049
18363TIP3    H176580   3.172   1.072  12.336  0.2052 -0.6430 -1.6781
18363TIP3    H276581   3.210   0.937  12.392  0.0314  0.3497  0.8764
18364TIP3   OH276582   2.371   5.767  12.846  0.6231 -0.0920 -0.0010
18364TIP3    H176583   2.425   5.695  12.813  0.2609 -0.4963  0.2831
18364TIP3    H276584   2.281   5.733  12.841  0.4086  0.5091 -0.3087
18365TIP3   OH276585   6.816   3.345  11.084  0.2853 -0.1187  0.9090
18365TIP3    H176586   6.768   3.262  11.094 -1.2223  0.5958 -0.3025
18365TIP3    H276587   6.802   3.371  10.993 -1.2575  2.6908  1.8988
18366TIP3   OH276588   2.722   3.656  10.852  0.0821  0.2888  0.5745
18366TIP3    H176589   2.635   3.622  10.875  1.1582 -0.3989  3.9098
18366TIP3    H276590   2.783   3.602  10.902  2.2126  3.0549  1.0608
18367TIP3   OH276591   6.075   2.915   4.958  0.3478 -0.1465  0.3983
18367TIP3    H176592   5.994   2.947   4.999  0.9803  1.6711  0.2722
18367TIP3    H276593   6.141   2.923   5.027  0.9391  0.7847 -0.2631
18368TIP3   OH276594   4.005   3.396  13.076 -0.3080  0.3420 -0.4339
18368TIP3    H176595   3.926   3.397  13.130 -0.4226 -1.5939 -0.5410
18368TIP3    H276596   4.062   3.462  13.116 -1.2074  0.3874  0.8099
18369TIP3   OH276597   2.044   2.485  13.630 -0.0207 -0.1218  0.2276
18369TIP3    H176598   2.032   2.498  13.536 -0.1878 -1.0888  0.1109
18369TIP3    H276599   1.981   2.544  13.671  0.7859  1.0819 -0.2415
18370TIP3   OH276600   5.125   1.236   5.260  0.2507 -0.3265 -0.4462
18370TIP3    H176601   5.129   1.297   5.334 -1.5593 -0.6985 -0.0273
18370TIP3    H276602   5.105   1.291   5.185  0.2546 -0.1951 -0.3525
18371TIP3   OH276603   1.862   0.298   2.903  0.4494 -0.7060 -0.1047
18371TIP3    H176604   1.832   0.381   2.942 -0.6308 -1.8491  1.5808
18371TIP3    H276605   1.956   0.297   2.919  0.8591  1.2402 -2.1878
18372TIP3   OH276606   5.802   2.918   2.326  0.0288 -0.3246  0.2439
18372TIP3    H176607   5.802   2.825   2.345 -1.2395 -0.0796  1.4239
18372TIP3    H276608   5.714   2.937   2.294  0.4944  0.3337 -0.6824
18373TIP3   OH276609   0.119   2.754   3.678  0.6532 -0.1994 -0.0527
18373TIP3    H176610   0.177   2.758   3.754  1.9632 -0.5700 -1.0122
18373TIP3    H276611   0.150   2.825   3.621  1.1385 -1.3376 -1.2336
18374TIP3   OH276612   3.671   3.771   1.201  0.1241 -0.1729 -0.4141
18374TIP3    H176613   3.730   3.797   1.271  0.1958  0.8457 -0.8533
18374TIP3    H276614   3.592   3.824   1.214  0.5372  0.7805 -1.7154
18375TIP3   OH276615   2.977   6.777  15.316 -0.4874  0.0688 -0.2348
18375TIP3    H176616   2.890   6.738  15.316 -0.6022  0.1929  3.8182
18375TIP3    H276617   2.962   6.871  15.324  0.0155  0.1548 -0.2313
18376TIP3   OH276618   0.682   3.025  12.474  0.4866  0.2348 -0.1075
18376TIP3    H176619   0.736   3.005  12.551  1.0684  0.3141 -0.4889
18376TIP3    H276620   0.695   2.950  12.416  0.8499  0.6390 -0.5565
18377TIP3   OH276621   4.072   1.064  11.708 -0.3313 -0.7410  0.4168
18377TIP3    H176622   4.075   1.054  11.613  1.1542  1.1380  0.2251
18377TIP3    H276623   4.063   1.159  11.721 -0.3670 -0.9694  2.1517
18378TIP3   OH276624   2.189   6.643  11.635  0.0704 -0.5022 -0.7404
18378TIP3    H176625   2.215   6.592  11.713  2.7865  2.5013  0.4282
18378TIP3    H276626   2.112   6.691  11.663 -0.6276 -1.5314 -0.8480
18379TIP3   OH276627   5.675   4.118  15.963 -0.0964  0.0571  0.1523
18379TIP3    H176628   5.590   4.149  15.996 -0.2162 -1.1242  1.0138
18379TIP3    H276629   5.671   4.133  15.869 -0.6536  1.4223  0.3812
18380TIP3   OH276630   6.093   2.847   3.842 -0.4669 -0.2239  0.3720
18380TIP3    H176631   6.020   2.907   3.826  0.7613  1.6799  1.7675
18380TIP3    H276632   6.130   2.831   3.755 -1.4143  0.2212 -0.1293
18381TIP3   OH276633   4.176   2.150   4.435 -0.3140 -0.0979 -0.7345
18381TIP3    H176634   4.205   2.129   4.346  1.4207 -0.4287 -0.1091
18381TIP3    H276635   4.205   2.075   4.488  1.2650  1.4263  0.6035
18382TIP3   OH276636   2.031   3.921  12.536  0.5181 -0.0698 -0.6397
18382TIP3    H176637   2.057   4.010  12.512 -0.0436  0.2113 -0.2178
18382TIP3    H276638   2.038   3.919  12.631 -0.3132 -0.2055 -0.5768
18383TIP3   OH276639   4.014   3.063  10.940  0.7874 -0.5659 -0.1908
18383TIP3    H176640   3.949   3.007  10.984  0.6620 -0.1383  0.1784
18383TIP3    H276641   3.966   3.103  10.868  0.7528 -0.5695 -0.1700
18384TIP3   OH276642   0.973   4.411   0.736  0.1318  0.3136  0.5153
18384TIP3    H176643   0.985   4.505   0.725  0.9631 -0.1209 -2.6434
18384TIP3    H276644   0.922   4.384   0.660 -0.9745 -1.6592  1.9022
18385TIP3   OH276645   5.940   3.956  13.144 -0.3628 -0.2781 -0.9246
18385TIP3    H176646   5.986   4.039  13.137  2.2224 -1.7305 -1.5752
18385TIP3    H276647   5.852   3.975  13.110 -0.1845  2.4385  0.0234
18386TIP3   OH276648   3.113   4.158  11.263 -0.0943  0.1713 -0.4432
18386TIP3    H176649   3.091   4.123  11.176 -0.9608  1.0286 -0.5779
18386TIP3    H276650   3.206   4.137  11.274 -0.2547 -0.9334 -1.1024
18387TIP3   OH276651   4.506   2.426   2.807  0.2168  0.0953  0.3514
18387TIP3    H176652   4.537   2.336   2.803 -3.1076 -1.1573  1.3881
18387TIP3    H276653   4.438   2.431   2.740  1.1130  2.1756 -0.4501
18388TIP3   OH276654   0.030   6.121  13.688 -0.4764  0.7483  0.5986
18388TIP3    H176655   0.038   6.099  13.595  0.6213 -1.9791  1.2948
18388TIP3    H276656  -0.022   6.050  13.725  0.5399  0.9081  2.3771
18389TIP3   OH276657   3.741   1.958   4.643  0.3378  0.2910  0.4774
18389TIP3    H176658   3.685   1.973   4.566  2.0097  2.3647 -0.3734
18389TIP3    H276659   3.724   1.866   4.666 -3.2330  0.7601  0.1118
18390TIP3   OH276660   2.738   0.942   2.121  0.0230  0.0016 -0.1859
18390TIP3    H176661   2.782   0.869   2.076 -1.1845 -0.6230 -0.3919
18390TIP3    H276662   2.762   1.019   2.070 -0.6349 -0.5860 -1.4295
18391TIP3   OH276663   3.317   4.925   0.695  0.3948  0.2749  0.0144
18391TIP3    H176664   3.258   4.978   0.642 -1.3776 -0.8393  0.8405
18391TIP3    H276665   3.350   4.985   0.762  0.8152  1.0948 -0.9146
18392TIP3   OH276666   0.329   5.471  12.070  0.1201  0.4161  0.3535
18392TIP3    H176667   0.246   5.515  12.090  0.3799  0.4136  1.4600
18392TIP3    H276668   0.396   5.527  12.109  0.3815 -1.5883  2.9147
18393TIP3   OH276669   4.961   2.586   5.369  0.5990  0.1843 -0.2260
18393TIP3    H176670   4.941   2.625   5.454  1.5578  0.2924 -0.0404
18393TIP3    H276671   4.877   2.559   5.334  0.1958  0.1942  0.7393
18394TIP3   OH276672   4.265   1.827   4.170  0.0966 -0.0404 -0.3475
18394TIP3    H176673   4.175   1.798   4.187 -1.9363  4.5047 -2.6124
18394TIP3    H276674   4.280   1.805   4.078  0.3706  1.3368 -0.6435
18395TIP3   OH276675   4.665   3.836   5.530  0.3090 -0.3235  0.6145
18395TIP3    H176676   4.573   3.845   5.508  0.7218  1.2905 -0.5280
18395TIP3    H276677   4.710   3.831   5.445  1.5467  1.9053  1.1086
18396TIP3   OH276678   1.795   4.224   6.098 -0.0214 -0.1844  0.6033
18396TIP3    H176679   1.880   4.249   6.135  0.2452  0.0292 -0.1430
18396TIP3    H276680   1.731   4.278   6.144  0.3655  0.5093  0.3346
18397TIP3   OH276681   0.219   5.165  13.839  0.0276 -0.5255 -0.4390
18397TIP3    H176682   0.175   5.167  13.754  1.6781  0.0687 -1.3057
18397TIP3    H276683   0.190   5.083  13.879 -2.3355  0.1558 -0.7063
18398TIP3   OH276684   6.710   6.788  11.629 -0.2740 -0.2128  0.4702
18398TIP3    H176685   6.629   6.838  11.641  0.8211  1.6858  0.0463
18398TIP3    H276686   6.740   6.771  11.719  0.4055  1.6621  0.6194
18399TIP3   OH276687   6.125   2.127   1.398 -0.3170  0.2786 -0.2516
18399TIP3    H176688   6.038   2.158   1.372 -0.4648  1.1791  1.2544
18399TIP3    H276689   6.109   2.045   1.443 -0.2908 -0.0158 -0.7697
18400TIP3   OH276690   5.049   1.170   0.912 -1.0745  0.1028 -0.1219
18400TIP3    H176691   4.964   1.133   0.887 -0.8826  0.3037 -1.0693
18400TIP3    H276692   5.113   1.102   0.890 -0.7972  0.7084 -1.1769
18401TIP3   OH276693   5.532   0.286   1.346 -0.6746 -0.5237  0.0674
18401TIP3    H176694   5.487   0.362   1.382  0.1140 -0.5688  1.1796
18401TIP3    H276695   5.535   0.224   1.419  0.2708 -0.9215 -0.3021
18402TIP3   OH276696   1.624   6.282   0.965  0.0026 -0.6860  0.3539
18402TIP3    H176697   1.580   6.213   0.916  0.4224  0.0038 -1.0095
18402TIP3    H276698   1.713   6.283   0.931 -1.0133  3.1835 -2.5703
18403TIP3   OH276699   1.099   4.378   6.394 -0.0244  0.0006  0.4181
18403TIP3    H176700   1.038   4.307   6.413 -0.7201  0.7792  1.1570
18403TIP3    H276701   1.053   4.432   6.330 -0.4316  0.9887  1.5288
18404TIP3   OH276702   1.445   1.058  16.151 -0.3313 -0.5662 -0.1002
18404TIP3    H176703   1.534   1.051  16.116  0.0874 -1.2102  1.0779
18404TIP3    H276704   1.388   1.038  16.076  0.5052 -0.0659 -0.8786
18405TIP3   OH276705   1.355   3.203  16.761  0.3729  0.0201 -0.2303
18405TIP3    H176706   1.385   3.160  16.842  0.1236 -0.4871 -0.4050
18405TIP3    H276707   1.436   3.222  16.714  0.4786 -0.5028 -0.2695
18406TIP3   OH276708   4.282   6.055   2.483 -0.2655  0.1308  0.3328
18406TIP3    H176709   4.376   6.057   2.463 -0.3888 -1.5237 -0.4730
18406TIP3    H276710   4.274   5.988   2.552 -0.8986 -0.0149  0.1204
18407TIP3   OH276711   1.567   6.666   2.061 -0.0380 -0.1390 -0.4516
18407TIP3    H176712   1.591   6.704   1.977 -0.8346  0.1724 -0.5437
18407TIP3    H276713   1.641   6.687   2.119 -0.2622  1.1554 -0.6206
18408TIP3   OH276714   2.864   3.485   0.127 -0.0625 -0.4208  0.1002
18408TIP3    H176715   2.818   3.448   0.052 -0.7683 -1.3079  0.9587
18408TIP3    H276716   2.946   3.520   0.091 -0.4014 -0.8342 -1.0713
18409TIP3   OH276717   2.064   0.417  16.886 -0.3134  0.0662 -0.0797
18409TIP3    H176718   1.992   0.411  16.949  1.4330  2.0444  2.1989
18409TIP3    H276719   2.140   0.383  16.933  0.9557  1.2480 -1.2237
18410TIP3   OH276720   3.513   0.218  10.685  0.3359 -0.4839  0.2606
18410TIP3    H176721   3.492   0.297  10.636  1.2572  0.1121  0.8055
18410TIP3    H276722   3.459   0.223  10.764  0.4154 -0.3812  0.3088
18411TIP3   OH276723   6.731   1.858   2.989  0.4847  0.3677 -0.3407
18411TIP3    H176724   6.665   1.801   2.949  0.1571  1.0303 -0.7555
18411TIP3    H276725   6.815   1.824   2.957  0.2358  0.7356 -1.4099
18412TIP3   OH276726   0.139   5.638  12.226 -0.2212  0.2243 -0.0135
18412TIP3    H176727   0.050   5.673  12.232 -0.1314  0.2483  1.4782
18412TIP3    H276728   0.134   5.554  12.271  0.3711 -0.0539 -0.4661
18413TIP3   OH276729   0.221   4.530   3.924 -0.1344 -0.7280 -0.2603
18413TIP3    H176730   0.150   4.526   3.988 -0.3816 -0.2589 -0.5061
18413TIP3    H276731   0.290   4.476   3.962 -1.2742 -2.6551 -0.8320
18414TIP3   OH276732   5.626   1.033  16.810 -0.1898  0.3307 -0.4644
18414TIP3    H176733   5.542   1.036  16.764 -0.1293  0.8404 -0.5509
18414TIP3    H276734   5.604   1.044  16.902 -0.2657 -0.1200 -0.4303
18415TIP3   OH276735   3.587   3.260   4.376  0.2950 -0.5575 -0.2186
18415TIP3    H176736   3.528   3.194   4.412 -0.6308  0.6917  0.5669
18415TIP3    H276737   3.535   3.306   4.311  0.6628 -0.0100 -0.1266
18416TIP3   OH276738   1.472   0.547  17.208  0.3987  0.8958 -0.1802
18416TIP3    H176739   1.516   0.490  17.271 -1.1245 -1.0609 -0.8226
18416TIP3    H276740   1.478   0.500  17.125 -0.8401  1.6726 -0.7310
18417TIP3   OH276741   6.492   3.656   0.198  0.4957 -0.1779  0.8401
18417TIP3    H176742   6.563   3.663   0.262  0.9133  0.9024  0.2698
18417TIP3    H276743   6.477   3.746   0.168 -0.1843 -0.5741 -0.0431
18418TIP3   OH276744   2.258   4.209   4.435 -0.6328  0.5680  0.0991
18418TIP3    H176745   2.198   4.223   4.508 -0.7605 -1.2269  0.3533
18418TIP3    H276746   2.217   4.139   4.383  1.0026 -0.3413  0.0131
18419TIP3   OH276747   4.553   6.626  11.895 -0.1083 -0.4495  0.5765
18419TIP3    H176748   4.593   6.568  11.961 -0.2989 -1.5799 -0.2907
18419TIP3    H276749   4.558   6.577  11.813 -2.4674 -0.2387  0.2744
18420TIP3   OH276750   1.555   4.556   4.439 -0.0522 -0.2059 -0.0117
18420TIP3    H176751   1.571   4.604   4.521 -1.7794  1.5258 -0.6144
18420TIP3    H276752   1.567   4.622   4.371  1.5592 -1.6862 -1.1909
18421TIP3   OH276753   5.384   3.649   1.145 -0.1506  0.0258  1.1660
18421TIP3    H176754   5.410   3.608   1.062  1.4672  1.7729  0.7640
18421TIP3    H276755   5.384   3.743   1.126 -0.5049  0.4070  2.9517
18422TIP3   OH276756   6.813   0.023   5.603  0.0235 -0.1073 -0.1371
18422TIP3    H176757   6.822   0.030   5.508 -0.2581  1.9313 -0.0383
18422TIP3    H276758   6.718   0.022   5.618  0.0648 -1.1385  0.0882
18423TIP3   OH276759   5.556   4.302   0.153  0.3929  0.0883  0.2965
18423TIP3    H176760   5.601   4.306   0.069  0.0872  0.7850  0.1576
18423TIP3    H276761   5.581   4.218   0.190  0.2609 -0.3687 -0.6445
18424TIP3   OH276762   3.675   1.908  13.423 -0.0522 -0.2031  0.4829
18424TIP3    H176763   3.609   1.851  13.384  0.5697  0.4083 -1.4949
18424TIP3    H276764   3.638   1.932  13.508 -0.7808 -2.6918  0.8930
18425TIP3   OH276765   1.231   4.412  12.374 -0.3566 -0.4719 -0.2903
18425TIP3    H176766   1.219   4.492  12.323 -1.4104 -1.7612 -2.1393
18425TIP3    H276767   1.274   4.351  12.314 -1.1414 -1.8670  0.5221
18426TIP3   OH276768   1.317   1.528   5.324 -0.8478  0.3740 -0.0096
18426TIP3    H176769   1.359   1.493   5.245 -0.4160 -0.9801  0.8024
18426TIP3    H276770   1.374   1.601   5.351  0.3567 -0.7133  0.4255
18427TIP3   OH276771   2.236   3.793  14.837  0.4040 -0.0163 -0.0911
18427TIP3    H176772   2.287   3.769  14.915 -2.0915 -1.2951  1.1966
18427TIP3    H276773   2.153   3.825  14.872  0.4291  2.3971 -2.1507
18428TIP3   OH276774   4.372   5.975  14.462 -0.1740  0.0121  0.4756
18428TIP3    H176775   4.288   5.949  14.424  0.1840 -0.4235 -0.0191
18428TIP3    H276776   4.351   5.998  14.552 -0.7848 -0.3345  0.4265
18429TIP3   OH276777   4.068   1.774  15.283 -0.2033 -0.1472 -0.2632
18429TIP3    H176778   4.018   1.796  15.204 -2.3432  0.0119  1.1167
18429TIP3    H276779   4.002   1.756  15.349  1.5445 -2.6983  0.8617
18430TIP3   OH276780   5.424   2.482   0.613 -0.3102 -0.3146  0.2292
18430TIP3    H176781   5.505   2.533   0.624 -0.5938  0.0751  0.5736
18430TIP3    H276782   5.416   2.470   0.519  1.3016 -2.2615  0.3165
18431TIP3   OH276783   5.689   6.506   3.350  0.5192 -0.2417 -0.8295
18431TIP3    H176784   5.704   6.576   3.288 -0.2865 -0.5669 -1.4101
18431TIP3    H276785   5.755   6.519   3.418  0.4703  0.9856 -1.0013
18432TIP3   OH276786   3.009   0.932  15.381 -0.0032  0.4864 -0.4673
18432TIP3    H176787   2.960   0.857  15.414  0.7233  1.2613  2.5310
18432TIP3    H276788   3.086   0.893  15.340 -0.4418 -0.4984 -0.3807
18433TIP3   OH276789   6.197   1.301  11.212  0.2039  0.4651 -0.2263
18433TIP3    H176790   6.208   1.391  11.243 -1.4786  0.3981  0.6206
18433TIP3    H276791   6.217   1.305  11.119  0.2221  1.7032 -0.1787
18434TIP3   OH276792   0.162   0.803   1.299 -0.2367  0.0393 -0.4140
18434TIP3    H176793   0.099   0.757   1.355 -1.7558  0.5788 -1.6489
18434TIP3    H276794   0.197   0.872   1.355  0.4212 -1.2221  0.7672
18435TIP3   OH276795   4.096   4.909  13.196  0.0594 -0.5226  0.3349
18435TIP3    H176796   4.054   4.981  13.149 -0.3495  0.0207  1.5149
18435TIP3    H276797   4.071   4.922  13.287 -0.7547 -2.6606  0.4536
18436TIP3   OH276798   0.680   0.437   5.310 -0.0450 -0.2835 -0.1054
18436TIP3    H176799   0.730   0.519   5.309 -0.1764 -0.1687  1.1913
18436TIP3    H276800   0.604   0.457   5.366 -0.2309 -1.2057 -0.0322
18437TIP3   OH276801   6.148   0.856   3.947 -0.2948 -0.1600  0.3286
18437TIP3    H176802   6.102   0.849   3.864 -0.8411 -0.8019  0.6744
18437TIP3    H276803   6.140   0.947   3.973  0.8283  0.2839 -0.8591
18438TIP3   OH276804   1.304   0.383  13.655  0.3982 -0.5067 -0.1244
18438TIP3    H176805   1.337   0.374  13.565  1.0525  0.2053  0.0405
18438TIP3    H276806   1.209   0.371  13.647  0.6095 -1.9259 -0.6969
18439TIP3   OH276807   1.885   1.109  12.154  0.0513 -0.3258 -0.2083
18439TIP3    H176808   1.952   1.047  12.184  0.4644 -0.2128 -0.9087
18439TIP3    H276809   1.924   1.153  12.079 -0.0543  1.1564  0.5867
18440TIP3   OH276810   4.981   4.985  11.381  0.3821 -0.0555 -0.2738
18440TIP3    H176811   4.908   5.038  11.350  1.0310  0.3830 -1.0762
18440TIP3    H276812   5.059   5.032  11.350  0.9631 -1.6740 -1.3331
18441TIP3   OH276813   2.788   5.404  14.962  0.3730  0.2209 -0.3093
18441TIP3    H176814   2.844   5.363  15.028 -1.2277 -0.4491  0.6607
18441TIP3    H276815   2.739   5.470  15.011 -0.6777 -0.1396 -0.8727
18442TIP3   OH276816   5.503   0.138  12.176 -0.5186  0.5493 -0.6054
18442TIP3    H176817   5.538   0.126  12.265 -0.3767 -3.3476 -1.0905
18442TIP3    H276818   5.423   0.189  12.188  0.2396  1.2866  1.5985
18443TIP3   OH276819   3.437   0.137   1.325  0.8327 -0.0208  0.2471
18443TIP3    H176820   3.372   0.105   1.263 -0.7404 -0.0376  1.8553
18443TIP3    H276821   3.450   0.229   1.301  0.8960 -0.2584 -0.6424
18444TIP3   OH276822   6.441   4.317  13.277 -0.1106  0.7861  0.7353
18444TIP3    H176823   6.401   4.321  13.190 -0.9448  1.5413  1.1360
18444TIP3    H276824   6.507   4.386  13.277  1.3278 -0.5832  0.0097
18445TIP3   OH276825   5.924   5.283  12.087 -0.6494 -0.2871  0.5116
18445TIP3    H176826   5.989   5.294  12.157  0.0684 -2.6709  0.2816
18445TIP3    H276827   5.971   5.309  12.008  0.0779 -2.0106  0.3440
18446TIP3   OH276828   2.442   3.904  16.572 -0.2071  0.5721 -0.1601
18446TIP3    H176829   2.409   3.981  16.617  1.7430  0.4813  1.4886
18446TIP3    H276830   2.459   3.934  16.482 -1.2228  1.5444 -0.0381
18447TIP3   OH276831   1.823   4.793  13.053  0.4792 -0.3487  0.1586
18447TIP3    H176832   1.792   4.834  12.973 -1.4352 -0.9085  0.5923
18447TIP3    H276833   1.830   4.700  13.031  2.7561 -0.1233 -0.1935
18448TIP3   OH276834   2.402   1.703  16.837  0.2559  0.5544  0.2234
18448TIP3    H176835   2.320   1.672  16.800 -0.3566 -0.2628  2.2081
18448TIP3    H276836   2.377   1.772  16.898  1.1674  1.1688 -0.0666
18449TIP3   OH276837   2.370   1.999   4.989 -0.2660  0.0175  0.7852
18449TIP3    H176838   2.394   2.089   4.968 -1.6452  0.3118  0.4516
18449TIP3    H276839   2.436   1.945   4.944  1.6899  0.8912  2.5182
18450TIP3   OH276840   3.046   5.960   5.738 -0.4397 -0.0015 -0.3818
18450TIP3    H176841   3.084   5.997   5.658 -0.8574  2.6470  0.5778
18450TIP3    H276842   2.976   5.902   5.708 -0.9294  1.3794 -1.9268
18451TIP3   OH276843   2.542   2.334   1.581  0.2613  0.2836 -0.1501
18451TIP3    H176844   2.547   2.298   1.670 -0.8786  0.5563  0.0203
18451TIP3    H276845   2.626   2.308   1.541 -0.0341 -1.5360  0.3577
18452TIP3   OH276846   5.903   5.451   1.500  0.0401  0.1739 -0.1383
18452TIP3    H176847   5.852   5.511   1.554 -4.6809 -1.4589 -2.4831
18452TIP3    H276848   5.935   5.385   1.561 -1.5967  0.6776  1.2973
18453TIP3   OH276849   3.000   0.294  14.645  0.3111  0.0662 -0.4099
18453TIP3    H176850   2.936   0.338  14.701  1.1264  1.0112 -0.2212
18453TIP3    H276851   2.949   0.226  14.600 -0.1735 -1.4681  2.2978
18454TIP3   OH276852   0.542   0.924  14.141  0.1828 -0.0462  0.2214
18454TIP3    H176853   0.561   0.875  14.221 -1.2012 -1.2783 -0.1841
18454TIP3    H276854   0.513   1.010  14.172  0.6869 -0.1549  1.0095
18455TIP3   OH276855   4.214   2.923  11.857 -0.2204  0.3574 -0.2887
18455TIP3    H176856   4.199   2.849  11.799 -1.6036  0.7387 -0.4546
18455TIP3    H276857   4.277   2.978  11.811 -1.5906  0.8515 -1.6415
18456TIP3   OH276858   3.380   0.514  17.021  0.2837  0.1251 -0.6451
18456TIP3    H176859   3.312   0.545  17.080 -0.3541 -2.7065  0.1992
18456TIP3    H276860   3.333   0.491  16.940  0.5895  0.4810 -0.9240
18457TIP3   OH276861   1.089   3.066  16.970  0.2302 -0.2497  0.8752
18457TIP3    H176862   1.049   3.032  16.890  1.1812 -1.5997  0.9599
18457TIP3    H276863   1.126   2.990  17.013  2.1130  0.8519  1.2549
18458TIP3   OH276864   5.681   5.598  11.655  0.1226  0.1185  0.2313
18458TIP3    H176865   5.677   5.550  11.572  1.5753 -0.7976  0.6751
18458TIP3    H276866   5.774   5.600  11.677 -0.4007 -1.3174  2.7918
18459TIP3   OH276867   6.673   1.005   1.553 -0.2643 -0.6070 -0.2862
18459TIP3    H176868   6.728   1.037   1.482  0.1265 -0.8743 -0.1096
18459TIP3    H276869   6.641   1.083   1.597  1.4064 -0.4402  0.7022
18460TIP3   OH276870   0.907   0.381   3.419 -1.4001 -0.2852 -0.2954
18460TIP3    H176871   0.915   0.356   3.327 -1.3568 -1.2364 -0.0444
18460TIP3    H276872   0.839   0.448   3.420 -1.5178 -0.3873 -0.9958
18461TIP3   OH276873   2.184   0.353   1.377 -0.6367  0.9378 -0.6636
18461TIP3    H176874   2.216   0.347   1.467  0.9555  0.9501 -1.2029
18461TIP3    H276875   2.243   0.297   1.327 -2.5249 -0.3853 -1.4617
18462TIP3   OH276876   0.851   5.736  15.288 -0.0019  0.7115 -0.2735
18462TIP3    H176877   0.765   5.719  15.328 -1.1976  3.2486 -1.6411
18462TIP3    H276878   0.893   5.798  15.347  0.0558  1.0562 -0.6820
18463TIP3   OH276879   3.673   6.133  16.593 -0.5185 -0.2125  0.3875
18463TIP3    H176880   3.600   6.147  16.654 -1.0640 -0.5217 -0.1891
18463TIP3    H276881   3.657   6.045  16.558  0.6342 -0.6481  0.9436
18464TIP3   OH276882   4.169   2.861   2.350 -0.2615  0.3600  0.1735
18464TIP3    H176883   4.076   2.840   2.336  0.3940 -2.2703 -0.4803
18464TIP3    H276884   4.167   2.936   2.409 -2.8518  1.7637 -1.5874
18465TIP3   OH276885   5.522   0.956   0.538  0.8669 -0.2276  0.0350
18465TIP3    H176886   5.581   0.888   0.505 -0.8383 -0.7521 -2.0208
18465TIP3    H276887   5.435   0.929   0.509 -0.1442  1.6465  1.1931
18466TIP3   OH276888   5.973   2.386  13.989 -0.3485 -0.3927 -0.7389
18466TIP3    H176889   5.965   2.295  13.961 -0.7291 -1.3969  2.3701
18466TIP3    H276890   6.035   2.383  14.062 -2.3791  1.3913  1.1538
18467TIP3   OH276891   6.398   1.363   6.199  0.6563  0.1701 -0.6863
18467TIP3    H176892   6.339   1.409   6.260  0.1039 -0.1921 -0.9455
18467TIP3    H276893   6.485   1.390   6.227  0.3877  0.4183 -0.0550
18468TIP3   OH276894   2.864   3.785  13.371 -0.0630  0.2919  0.0492
18468TIP3    H176895   2.839   3.710  13.425 -0.7451  0.4403 -0.0548
18468TIP3    H276896   2.801   3.785  13.299  0.3727  0.5434 -0.3381
18469TIP3   OH276897   3.373   3.951  11.047 -0.4894  0.5268 -0.1572
18469TIP3    H176898   3.278   3.940  11.039 -0.3987 -0.0654 -0.4301
18469TIP3    H276899   3.387   3.976  11.138 -0.5880 -2.9509  0.8806
18470TIP3   OH276900   1.330   3.091  15.926 -0.3953  0.3264  0.0938
18470TIP3    H176901   1.246   3.055  15.899 -0.5156  0.8567 -0.2378
18470TIP3    H276902   1.308   3.164  15.982 -0.1797  1.6642 -1.5294
18471TIP3   OH276903   5.063   1.206   0.471  0.5771 -0.0903 -0.6733
18471TIP3    H176904   4.970   1.183   0.484  1.1766 -2.6689 -0.6766
18471TIP3    H276905   5.087   1.251   0.552 -0.1499 -1.2940  0.2507
18472TIP3   OH276906   0.609   2.218  16.077 -0.4364 -0.1298  0.1083
18472TIP3    H176907   0.669   2.272  16.128 -0.4874  0.0936 -0.0699
18472TIP3    H276908   0.667   2.164  16.023 -0.3157 -1.6549  1.6941
18473TIP3   OH276909   2.165   0.030  13.682  0.5902 -0.0323 -0.8157
18473TIP3    H176910   2.127   0.118  13.680  3.8728  1.5434  1.1903
18473TIP3    H276911   2.187   0.012  13.591 -1.0106  0.7981 -1.3859
18474TIP3   OH276912   5.826   5.350   2.693 -0.4654  0.4076 -0.3188
18474TIP3    H176913   5.878   5.385   2.765 -1.7029  0.2911  0.6480
18474TIP3    H276914   5.765   5.289   2.735 -0.3895 -0.5863 -1.6137
18475TIP3   OH276915   3.647   2.309   1.031 -0.3168  0.1553  0.3209
18475TIP3    H176916   3.698   2.331   0.953 -1.4063  4.6614  0.7482
18475TIP3    H276917   3.713   2.283   1.096  1.0373  1.3965 -0.5277
18476TIP3   OH276918   5.108   3.651  14.274 -0.3079  0.1264  0.2628
18476TIP3    H176919   5.042   3.705  14.230 -0.4201  0.5256  0.8992
18476TIP3    H276920   5.184   3.709  14.284  0.3836 -0.5349 -1.0559
18477TIP3   OH276921   6.374   6.791  11.172  0.0392 -0.3919  0.0342
18477TIP3    H176922   6.376   6.723  11.105  0.4518  0.7124 -1.0860
18477TIP3    H276923   6.465   6.809  11.192 -0.0780 -0.5819  0.7819
18478TIP3   OH276924   1.922   2.674   2.131  0.3238 -0.7298 -0.2995
18478TIP3    H176925   1.954   2.615   2.062 -0.7753 -1.3010 -0.3360
18478TIP3    H276926   1.874   2.742   2.084 -0.4436 -1.1311 -0.0899
18479TIP3   OH276927   0.950   3.850   3.063  0.2727  0.0386  0.4010
18479TIP3    H176928   1.017   3.897   3.113  0.3479  1.4186 -1.0042
18479TIP3    H276929   0.947   3.894   2.979  0.0979 -2.2399 -0.8276
18480TIP3   OH276930   5.281   5.978  11.944 -0.2135  0.2344  0.1236
18480TIP3    H176931   5.264   6.034  11.868 -0.3465 -0.4037 -0.3122
18480TIP3    H276932   5.354   6.021  11.988  1.2233 -0.4794 -1.4761
18481TIP3   OH276933   5.957   4.375  13.689 -0.3695 -0.7883 -0.3171
18481TIP3    H176934   6.020   4.441  13.717 -0.8856 -0.4278  0.0090
18481TIP3    H276935   5.952   4.314  13.762 -0.9670 -0.3941 -0.0190
18482TIP3   OH276936   0.605   0.380   6.044 -0.5599  0.2090 -0.1828
18482TIP3    H176937   0.526   0.432   6.036 -1.5048 -1.1127  0.3117
18482TIP3    H276938   0.592   0.327   6.123  0.8284  0.0088 -0.0687
18483TIP3   OH276939   5.704   0.886   3.294  0.2252 -0.4453 -0.5715
18483TIP3    H176940   5.749   0.878   3.378 -1.8806  1.0798  0.7477
18483TIP3    H276941   5.761   0.942   3.241  1.0140 -0.4760  0.2387
18484TIP3   OH276942   4.381   3.451   1.875  0.0384 -0.2492  0.4349
18484TIP3    H176943   4.333   3.501   1.941 -0.4979 -1.1493  0.7316
18484TIP3    H276944   4.313   3.403   1.827  0.5996 -1.0773  0.4729
18485TIP3   OH276945   4.506   1.304   2.979  0.1096  0.6395  0.5019
18485TIP3    H176946   4.484   1.321   3.071 -0.1422 -2.4901  1.0640
18485TIP3    H276947   4.572   1.234   2.983  2.7714  2.9301 -1.5938
18486TIP3   OH276948   5.316   1.092  11.744 -0.1054 -0.2629 -0.1643
18486TIP3    H176949   5.236   1.137  11.770  0.0008  0.9258 -1.8369
18486TIP3    H276950   5.381   1.162  11.738  0.4001 -0.8413 -1.4484
18487TIP3   OH276951   2.093   2.284   4.490  0.1439  0.2384  0.5461
18487TIP3    H176952   2.122   2.250   4.575  0.6903 -1.2451 -0.2155
18487TIP3    H276953   1.999   2.270   4.490  0.0115  1.0372  1.2407
18488TIP3   OH276954   6.158   2.057   6.041 -0.2937 -1.1652 -0.8459
18488TIP3    H176955   6.195   2.073   5.954  0.2377 -0.6667 -0.5321
18488TIP3    H276956   6.194   2.127   6.096  1.4461 -2.9705  0.3859
18489TIP3   OH276957   4.275   2.294  11.204 -0.1062 -0.5036 -0.0936
18489TIP3    H176958   4.187   2.259  11.189 -0.6266 -1.8124  4.9191
18489TIP3    H276959   4.332   2.218  11.198 -0.0012 -0.5625  1.3811
18490TIP3   OH276960   4.863   1.559   2.239  0.6607  0.4732 -0.8155
18490TIP3    H176961   4.888   1.528   2.152  0.2956  3.7464 -2.1225
18490TIP3    H276962   4.944   1.594   2.277  0.8057 -0.8775  0.1737
18491TIP3   OH276963   5.299   4.307  14.191  0.9542 -0.9092 -0.3243
18491TIP3    H176964   5.295   4.374  14.123  1.8116  0.1692  0.6606
18491TIP3    H276965   5.244   4.342  14.262  0.8008 -1.5982 -0.0970
18492TIP3   OH276966   1.485   6.132   6.098  0.4225 -0.2895  0.0340
18492TIP3    H176967   1.494   6.037   6.091 -1.2831 -0.7310  3.0226
18492TIP3    H276968   1.544   6.157   6.169  0.2750  0.7772 -0.2074
18493TIP3   OH276969   5.403   1.636   4.663 -0.0829 -0.4487  0.1010
18493TIP3    H176970   5.364   1.646   4.576  1.3599 -0.1126 -0.5335
18493TIP3    H276971   5.441   1.722   4.681 -0.1108 -0.6089  0.9431
18494TIP3   OH276972   1.656   0.659   4.508  0.4059 -0.3800  0.0642
18494TIP3    H176973   1.712   0.584   4.529  0.7002 -1.0675 -2.8383
18494TIP3    H276974   1.716   0.732   4.497  0.0822  0.4045  3.2740
18495TIP3   OH276975   6.120   4.850   1.831  0.5077 -0.0084  0.5290
18495TIP3    H176976   6.084   4.850   1.919  1.0242 -0.2737  0.7414
18495TIP3    H276977   6.049   4.883   1.776  0.3785  0.7105  1.1238
18496TIP3   OH276978   3.273   1.245  16.370  0.3856 -0.3680  0.0046
18496TIP3    H176979   3.203   1.309  16.356  1.1456  0.5029  0.1531
18496TIP3    H276980   3.273   1.192  16.290 -0.6651 -0.5983  0.1472
18497TIP3   OH276981   0.686   4.163   1.052  0.1732  0.0852 -0.3817
18497TIP3    H176982   0.736   4.132   1.127  0.3581 -1.5541 -1.1798
18497TIP3    H276983   0.658   4.084   1.006 -1.4834  1.0127 -1.0424
18498TIP3   OH276984   5.664   1.407   1.281  0.2104 -0.1987 -0.5665
18498TIP3    H176985   5.744   1.460   1.271  0.5683 -0.6168  0.0335
18498TIP3    H276986   5.688   1.341   1.346 -0.7155 -0.1636 -0.1928
18499TIP3   OH276987   2.026   4.582  16.705  0.2636  0.3008 -0.3257
18499TIP3    H176988   1.935   4.556  16.691  0.8160 -2.1888  0.4706
18499TIP3    H276989   2.020   4.662  16.757 -1.4787 -1.2287  1.9187
18500TIP3   OH276990   2.493   5.808   2.027  0.1318  0.2828 -0.7616
18500TIP3    H176991   2.567   5.839   2.079 -0.3133  0.7943 -0.4213
18500TIP3    H276992   2.503   5.713   2.025  0.0426  0.2417  0.4450
18501TIP3   OH276993   5.214   6.072  12.871  0.0892 -0.2704  0.4040
18501TIP3    H176994   5.121   6.073  12.893 -0.2254  1.6091 -0.9067
18501TIP3    H276995   5.217   6.043  12.780  0.9637 -2.2435  1.0213
18502TIP3   OH276996   5.069   1.465  11.248 -0.3087  0.2282 -0.6146
18502TIP3    H176997   5.101   1.476  11.158  0.0759  0.7011 -0.4292
18502TIP3    H276998   5.102   1.379  11.275  1.5930  1.0792 -0.1276
18503TIP3   OH276999   1.077   2.538   3.493 -0.1648 -0.4467  0.1514
18503TIP3    H177000   1.115   2.453   3.472  1.0619  0.5624 -1.8317
18503TIP3    H277001   0.986   2.532   3.463  0.5282 -0.3208 -2.0334
18504TIP3   OH277002   3.149   1.014   3.851 -0.0703 -0.2633  0.2600
18504TIP3    H177003   3.124   0.922   3.842  2.8217 -1.2866  2.2065
18504TIP3    H277004   3.176   1.039   3.762 -1.6267 -1.0229 -0.4593
18505TIP3   OH277005   0.891   6.020   3.108 -0.1523  0.3285  0.6092
18505TIP3    H177006   0.848   5.989   3.028  1.3829 -0.5168  0.0969
18505TIP3    H277007   0.982   6.032   3.083  0.5461 -0.8477  2.4880
18506TIP3   OH277008   6.204   3.564  15.196 -0.3465 -0.5973 -0.0988
18506TIP3    H177009   6.199   3.509  15.274 -0.1459  0.6993  0.8495
18506TIP3    H277010   6.203   3.502  15.123 -0.0281 -1.8574  0.9386
18507TIP3   OH277011   6.689   4.859  15.268 -0.1913 -0.0637  0.3699
18507TIP3    H177012   6.610   4.835  15.220  0.3607 -0.1000 -0.5256
18507TIP3    H277013   6.658   4.921  15.334 -0.9317  0.1180 -0.1344
18508TIP3   OH277014   0.834   3.482  15.592  0.0865  0.1561  0.1758
18508TIP3    H177015   0.920   3.482  15.549 -0.4273  4.5609 -1.0842
18508TIP3    H277016   0.785   3.413  15.548  2.4604 -1.3715 -0.1562
18509TIP3   OH277017   3.544   1.398  10.904  0.1815 -0.4501  0.0026
18509TIP3    H177018   3.497   1.330  10.856  3.2420 -1.2768 -2.0193
18509TIP3    H277019   3.525   1.479  10.857 -2.1075 -0.1584  1.3921
18510TIP3   OH277020   3.696   6.421   0.725 -0.2874  0.3355 -0.6922
18510TIP3    H177021   3.639   6.370   0.784 -1.5632 -0.1349 -2.2862
18510TIP3    H277022   3.747   6.476   0.783 -0.3506 -1.3014  0.9672
18511TIP3   OH277023   3.782   6.397   0.987  0.2974 -0.1346 -0.4045
18511TIP3    H177024   3.715   6.342   0.947  0.0504  0.0808 -0.2835
18511TIP3    H277025   3.751   6.411   1.076  0.2620  0.3733 -0.4983
18512TIP3   OH277026   4.857   6.602   5.521  0.6463 -0.2043  0.1536
18512TIP3    H177027   4.824   6.517   5.493  2.6720 -0.0563 -2.9976
18512TIP3    H277028   4.925   6.581   5.586  1.5221 -1.0654 -1.0095
18513TIP3   OH277029   4.174   1.316   5.514  0.4505  0.3645 -0.3743
18513TIP3    H177030   4.175   1.323   5.609  1.2323  0.6683 -0.4014
18513TIP3    H277031   4.230   1.388   5.484 -0.5143  0.8308 -1.0973
18514TIP3   OH277032   3.606   2.404  13.538 -0.0517  0.2647  0.1880
18514TIP3    H177033   3.559   2.378  13.459  0.5940 -1.4166  0.3320
18514TIP3    H277034   3.698   2.406  13.512  0.0119  1.4509  0.4568
18515TIP3   OH277035   0.678   4.687  12.644 -0.4120 -0.1527  0.0965
18515TIP3    H177036   0.675   4.683  12.548  1.9604  0.2179 -0.0290
18515TIP3    H277037   0.720   4.605  12.670  0.8678  0.6645  0.6653
18516TIP3   OH277038   1.674   3.356   2.027  0.0089  0.2507  0.1320
18516TIP3    H177039   1.618   3.365   2.105  2.9236 -1.5946  2.5593
18516TIP3    H277040   1.671   3.263   2.006  1.6642  0.2228 -0.0500
18517TIP3   OH277041   0.100   4.210  13.800 -0.0288  0.6622 -0.1360
18517TIP3    H177042   0.155   4.154  13.854  0.4045  1.7120  0.5195
18517TIP3    H277043   0.026   4.154  13.775  0.9032 -0.5010 -0.3376
18518TIP3   OH277044   0.867   2.763   0.015 -0.2941 -0.1623 -0.6603
18518TIP3    H177045   0.910   2.682   0.042  0.4543  0.8942  1.4612
18518TIP3    H277046   0.920   2.795  -0.058  2.0065  0.5920  1.2707
18519TIP3   OH277047   3.058   2.710   3.314 -0.4287  0.3197 -0.5309
18519TIP3    H177048   3.126   2.660   3.269  0.8861  0.5621  1.1577
18519TIP3    H277049   2.978   2.660   3.299  0.3370 -0.6547 -1.4514
18520TIP3   OH277050   4.989   2.841   3.021  0.1433  0.0064  0.7177
18520TIP3    H177051   5.044   2.772   3.060 -0.9926 -1.5316 -0.3306
18520TIP3    H277052   4.905   2.831   3.065  0.0008  0.7935  0.6153
18521TIP3   OH277053   2.305   0.889  16.817 -0.9950 -0.1411  0.2623
18521TIP3    H177054   2.229   0.883  16.758 -1.4898  2.2901  0.5944
18521TIP3    H277055   2.281   0.834  16.892 -2.4595  0.5792  0.3548
18522TIP3   OH277056   3.819   5.595  12.544  0.3971  0.3480 -0.1345
18522TIP3    H177057   3.845   5.557  12.628  0.6132  1.6194  0.3842
18522TIP3    H277058   3.901   5.603  12.495  0.5743  1.5707  0.3521
18523TIP3   OH277059   0.757   6.765  12.372  0.4227 -0.2837  0.1077
18523TIP3    H177060   0.826   6.787  12.434  1.2022 -2.1132 -0.0735
18523TIP3    H277061   0.771   6.824  12.298  2.1933 -1.0633 -0.1983
18524TIP3   OH277062   6.559   1.200   5.496  0.3556  0.0252  0.8024
18524TIP3    H177063   6.582   1.224   5.586  1.6543 -2.6650  1.2412
18524TIP3    H277064   6.553   1.105   5.497  0.6352 -0.0726 -2.0194
18525TIP3   OH277065   0.687   1.027   1.024 -0.2874  0.4765  0.4505
18525TIP3    H177066   0.764   1.002   0.974 -1.1296  0.5516 -0.9280
18525TIP3    H277067   0.665   0.949   1.075 -0.2960 -0.1176 -0.4505
18526TIP3   OH277068   4.184   6.429  15.677 -0.3809 -0.4135 -0.3937
18526TIP3    H177069   4.159   6.368  15.746  0.8521  1.2752  1.6396
18526TIP3    H277070   4.226   6.502  15.724 -2.1298  2.1618 -2.6690
18527TIP3   OH277071   2.532   6.516   6.596 -0.0293 -0.0313  0.4616
18527TIP3    H177072   2.550   6.588   6.537 -0.5954  1.3977  1.9908
18527TIP3    H277073   2.454   6.474   6.561 -1.1693  1.6572  0.9411
18528TIP3   OH277074   2.995   6.140   5.954  0.7035 -0.0847 -0.5591
18528TIP3    H177075   3.015   6.090   5.875  1.4500  0.7387 -0.9036
18528TIP3    H277076   3.014   6.079   6.026 -0.9266 -1.1664 -1.0212
18529TIP3   OH277077   3.966   5.678  12.342 -0.3115 -0.0387 -0.0131
18529TIP3    H177078   4.037   5.741  12.327 -1.8508  2.1763  1.5730
18529TIP3    H277079   3.916   5.680  12.260  0.2552 -0.0239 -0.3659
18530TIP3   OH277080   5.213   6.632  10.752 -0.3974  0.0201  0.3472
18530TIP3    H177081   5.206   6.715  10.704  1.5078  0.1253  0.2276
18530TIP3    H277082   5.232   6.567  10.684 -0.1540 -0.2331  0.6574
18531TIP3   OH277083   6.661   3.529   5.143  0.5464  0.3546  0.2362
18531TIP3    H177084   6.656   3.488   5.229  0.1706 -0.4440 -0.1552
18531TIP3    H277085   6.738   3.489   5.102 -0.1655 -0.4359 -0.3749
18532TIP3   OH277086   0.754   0.725  13.342 -0.0843 -0.1837  0.4685
18532TIP3    H177087   0.662   0.716  13.316  0.1255 -0.2614 -0.2554
18532TIP3    H277088   0.797   0.647  13.307  0.5379  0.5807 -0.4914
18533TIP3   OH277089   1.598   0.043  16.338  0.2650  0.1556 -0.1972
18533TIP3    H177090   1.609   0.081  16.251  0.8565  1.2059  0.3328
18533TIP3    H277091   1.685   0.044  16.376  0.1369 -0.9969  0.1303
18534TIP3   OH277092   1.962   6.741  12.998  0.3335 -0.1492 -0.6056
18534TIP3    H177093   1.924   6.714  12.914 -1.8639 -1.9113  0.8734
18534TIP3    H277094   1.957   6.836  12.997 -0.9954 -0.2041 -1.8884
18535TIP3   OH277095   1.082   0.667   4.013 -0.8924 -0.5668 -0.5725
18535TIP3    H177096   1.177   0.657   4.022 -1.0488 -0.0840  2.3670
18535TIP3    H277097   1.067   0.761   4.021 -1.6938 -0.7548  0.3658
18536TIP3   OH277098   5.597   3.080  16.977 -0.2380 -0.2321  0.3294
18536TIP3    H177099   5.517   3.132  16.981 -0.1770 -0.1569  0.5653
18536TIP3    H277100   5.634   3.098  16.891  0.5740  1.2796  0.9785
18537TIP3   OH277101   0.531   1.652   1.482 -0.0445  0.4250 -0.1746
18537TIP3    H177102   0.509   1.560   1.470  0.1574  0.4711 -0.9553
18537TIP3    H277103   0.480   1.697   1.415  0.0651  0.8518  0.0284
18538TIP3   OH277104   2.985   6.485  16.067 -0.0366  0.5001 -0.1748
18538TIP3    H177105   2.992   6.413  16.005  0.0616 -0.1904  0.6164
18538TIP3    H277106   3.075   6.501  16.096  0.2782  2.6035 -2.1677
18539TIP3   OH277107   0.223   0.982  10.296 -0.0122 -0.3096 -0.3449
18539TIP3    H177108   0.162   0.985  10.370 -1.4911 -2.0211 -1.4520
18539TIP3    H277109   0.306   1.013  10.332 -1.2541  1.0633  1.4589
18540TIP3   OH277110   3.195   2.935   5.246 -0.2062 -0.5232  0.3727
18540TIP3    H177111   3.207   2.913   5.153 -0.9055  2.1187 -0.3888
18540TIP3    H277112   3.120   2.883   5.273  0.0620 -1.3972 -0.5104
18541TIP3   OH277113   2.563   1.076   2.949 -0.3144 -0.1967 -0.0646
18541TIP3    H177114   2.494   1.023   2.989 -0.1777  0.2412  0.7646
18541TIP3    H277115   2.571   1.041   2.861 -1.2483 -0.5895 -0.0074
18542TIP3   OH277116   1.699   4.079  15.481 -0.6105  0.3369 -0.1963
18542TIP3    H177117   1.733   3.996  15.516 -2.5977 -0.4388 -0.0326
18542TIP3    H277118   1.663   4.056  15.396 -3.2366  0.5389  0.8222
18543TIP3   OH277119   1.105   6.557   1.165  0.0103  0.8213  0.4054
18543TIP3    H177120   1.063   6.643   1.176  1.7185  1.7100  0.1276
18543TIP3    H277121   1.111   6.545   1.070 -0.3912  0.2922  0.4416
18544TIP3   OH277122   2.216   2.963   0.179  0.2187 -0.3733 -0.1414
18544TIP3    H177123   2.146   2.928   0.234 -0.7494 -2.0321 -2.3260
18544TIP3    H277124   2.249   3.040   0.226 -1.2961 -1.1112  2.1711
18545TIP3   OH277125   6.230   1.139  14.304  0.5598 -0.3632  0.1107
18545TIP3    H177126   6.140   1.135  14.275 -0.3740  0.7246  2.6709
18545TIP3    H277127   6.227   1.115  14.397  2.4853  2.0834  0.8963
18546TIP3   OH277128   3.996   2.078  12.396 -0.1531  0.7983 -0.2100
18546TIP3    H177129   4.061   2.011  12.411 -2.6662 -1.4408  1.0307
18546TIP3    H277130   3.971   2.109  12.483 -1.1474  1.2278 -0.6291
18547TIP3   OH277131   1.784   6.515  15.913  0.2690 -0.0872  0.4457
18547TIP3    H177132   1.879   6.528  15.904  0.2619  0.6068  1.2661
18547TIP3    H277133   1.750   6.523  15.824  0.7365  1.7830  0.4107
18548TIP3   OH277134   4.008   1.255  17.081 -0.5120  0.0817  0.1715
18548TIP3    H177135   3.943   1.297  17.024 -0.3289 -1.1276 -0.9688
18548TIP3    H277136   4.034   1.323  17.142 -3.7574  0.2720  1.4421
18549TIP3   OH277137   1.151   0.519   2.610 -0.4152  0.2660  0.8569
18549TIP3    H177138   1.147   0.535   2.705 -0.0126  0.8640  0.7813
18549TIP3    H277139   1.220   0.579   2.580  1.4354 -1.9276  0.5956
18550TIP3   OH277140   0.990   6.065  16.489 -1.0109 -0.2458  0.0740
18550TIP3    H177141   0.982   6.061  16.393 -3.9640 -1.9915  0.3428
18550TIP3    H277142   0.949   6.148  16.513  2.2875  1.6104 -0.3188
18551TIP3   OH277143   2.125   3.327  11.265 -0.4513  0.2872 -0.1184
18551TIP3    H177144   2.081   3.379  11.332 -0.3201 -0.9445  0.9549
18551TIP3    H277145   2.141   3.242  11.307 -2.2847 -1.2465 -2.4108
18552TIP3   OH277146   3.425   2.520   0.676  0.2845 -0.3980 -0.1770
18552TIP3    H177147   3.494   2.454   0.675  0.9254  0.2643 -0.4392
18552TIP3    H277148   3.429   2.559   0.588  1.0671  1.1626  0.5411
18553TIP3   OH277149   3.673   0.908   0.439 -0.1941  0.3100  0.1777
18553TIP3    H177150   3.665   0.998   0.469  2.0051  0.5192  0.2587
18553TIP3    H277151   3.768   0.894   0.431 -0.5168 -1.8725 -0.1783
18554TIP3   OH277152   2.865   2.789  16.284  0.2708  0.0419  0.2996
18554TIP3    H177153   2.875   2.781  16.189 -1.0520  0.2668  0.1351
18554TIP3    H277154   2.772   2.772  16.300  0.3721  0.5625  1.4866
18555TIP3   OH277155   1.084   6.650  13.660 -0.7084  0.3137 -0.4403
18555TIP3    H177156   0.988   6.653  13.663 -0.6606  1.5681  0.5121
18555TIP3    H277157   1.111   6.737  13.691  0.7282  0.2428 -1.4660
18556TIP3   OH277158   4.810   3.409   1.961 -0.0864  0.3727 -0.5637
18556TIP3    H177159   4.755   3.332   1.951 -0.7060  0.8328 -0.6971
18556TIP3    H277160   4.749   3.483   1.966  0.5475  0.9863 -1.6304
18557TIP3   OH277161   1.870   4.857  11.888  0.1472 -0.3158  0.1927
18557TIP3    H177162   1.850   4.864  11.795 -2.6281 -0.9673  0.7026
18557TIP3    H277163   1.948   4.802  11.892  1.0209  0.7280 -1.7886
18558TIP3   OH277164   5.317   4.279   0.267  0.4060  0.2857  0.2648
18558TIP3    H177165   5.286   4.188   0.257  1.0795  0.1409 -0.5104
18558TIP3    H277166   5.402   4.280   0.223  0.4259  1.2821  0.3325
18559TIP3   OH277167   1.574   0.010   4.726 -0.3313  0.0376 -0.0798
18559TIP3    H177168   1.482   0.035   4.711 -0.5016 -0.7528 -0.3772
18559TIP3    H277169   1.591   0.036   4.816 -0.9611 -0.1222  0.0928
18560TIP3   OH277170   4.246   6.739   3.815 -0.1777 -0.0099 -0.1588
18560TIP3    H177171   4.289   6.776   3.738 -1.4782  2.3472  0.2028
18560TIP3    H277172   4.165   6.789   3.824 -1.6767 -2.4904  0.8027
18561TIP3   OH277173   1.230   4.320   0.696  0.4005  0.7506  0.5124
18561TIP3    H177174   1.206   4.353   0.610 -0.5438 -2.2065 -0.4361
18561TIP3    H277175   1.162   4.355   0.755 -0.2643  0.9261 -0.3426
18562TIP3   OH277176   5.996   4.959   4.602 -0.1978  0.3042 -0.2778
18562TIP3    H177177   6.077   4.953   4.550  0.1498 -0.7011  0.3624
18562TIP3    H277178   5.999   5.047   4.640  0.7062  0.2068 -0.0973
18563TIP3   OH277179   6.636   3.404   4.644  0.3129  0.2782  0.2533
18563TIP3    H177180   6.578   3.432   4.715 -0.9111  1.0522 -1.0301
18563TIP3    H277181   6.724   3.421   4.678 -0.2390  0.4225  1.6775
18564TIP3   OH277182   6.552   4.457  13.039  0.1317 -0.3984  0.2470
18564TIP3    H177183   6.533   4.489  12.951  1.2915  2.0677  0.8720
18564TIP3    H277184   6.598   4.529  13.082 -0.6147 -1.4762  2.9599
18565TIP3   OH277185   1.901   0.469   6.207  0.3943  0.1991 -0.5465
18565TIP3    H177186   1.933   0.404   6.269  3.4724  1.6633 -0.5245
18565TIP3    H277187   1.839   0.522   6.257  1.0921 -0.0718  0.6190
18566TIP3   OH277188   2.493   5.523  15.340  0.4316 -0.0103 -0.2415
18566TIP3    H177189   2.497   5.565  15.425 -0.4113  0.0845 -0.2543
18566TIP3    H277190   2.503   5.429  15.359  2.7917  0.1962 -0.2561
18567TIP3   OH277191   1.081   0.301   1.558  0.0562  0.0589 -0.6670
18567TIP3    H177192   1.175   0.285   1.559  0.1877  0.7215 -1.6931
18567TIP3    H277193   1.049   0.264   1.641  1.6559  2.5268  1.1120
18568TIP3   OH277194   5.440   6.631  15.794 -0.1592  0.1021 -0.1670
18568TIP3    H177195   5.427   6.725  15.808  1.2731 -0.0846  2.5973
18568TIP3    H277196   5.505   6.605  15.859 -0.4494 -2.7939 -0.9605
18569TIP3   OH277197   1.737   2.097  16.000 -0.1434  0.1120 -0.3386
18569TIP3    H177198   1.644   2.102  16.021 -0.5222 -1.5956 -1.4764
18569TIP3    H277199   1.781   2.085  16.085 -1.0798 -0.4605  0.0689
18570TIP3   OH277200   6.769   6.199   0.235 -0.5669  0.3536 -0.2126
18570TIP3    H177201   6.700   6.227   0.174 -0.0655  3.5911  0.6702
18570TIP3    H277202   6.741   6.231   0.320  0.8654 -0.4343  0.5762
18571TIP3   OH277203   4.180   4.301   0.716 -0.7751 -0.1496  0.3302
18571TIP3    H177204   4.123   4.264   0.650  0.4615 -1.2270 -0.1564
18571TIP3    H277205   4.160   4.395   0.716 -1.4057 -0.2822 -0.9415
18572TIP3   OH277206   0.782   4.233   2.738 -0.0539  0.2940 -0.1311
18572TIP3    H177207   0.703   4.254   2.687  1.0187  1.5729 -1.2961
18572TIP3    H277208   0.827   4.168   2.686  1.0297  1.5816 -0.8321
18573TIP3   OH277209   6.738   2.068   1.771 -0.0646 -0.4540  0.3160
18573TIP3    H177210   6.801   2.140   1.776 -0.3075 -0.1843 -0.4302
18573TIP3    H277211   6.774   2.010   1.705  0.6949 -1.5787  1.7054
18574TIP3   OH277212   4.009   1.930  14.541  0.4107  0.4617 -0.3542
18574TIP3    H177213   3.994   1.970  14.627 -2.4863 -0.9709 -0.1176
18574TIP3    H277214   3.966   1.990  14.480  2.7498  1.6475 -0.8644
18575TIP3   OH277215   2.466   2.569   1.212  0.1984 -0.3889 -0.2199
18575TIP3    H177216   2.469   2.484   1.258  0.5805  1.2212  2.8790
18575TIP3    H277217   2.381   2.605   1.235  0.9254  1.0213  0.2844
18576TIP3   OH277218   1.676   1.333  12.492  0.2128 -0.5252 -0.1911
18576TIP3    H177219   1.612   1.295  12.553  1.8445 -1.8396  0.7599
18576TIP3    H277220   1.688   1.423  12.522 -0.1460 -0.6966  0.4754
18577TIP3   OH277221   6.344   6.018  16.543  0.8607 -0.0982  0.0077
18577TIP3    H177222   6.376   6.053  16.625  1.1998 -0.8752  0.2106
18577TIP3    H277223   6.416   5.966  16.509  0.4311 -0.4531 -0.3756
18578TIP3   OH277224   4.628   5.211   3.274  0.4599 -0.2111  0.1222
18578TIP3    H177225   4.723   5.201   3.270  0.6684  0.0914  3.0824
18578TIP3    H277226   4.602   5.231   3.184  2.9886 -1.9489 -1.0398
18579TIP3   OH277227   3.135   3.083  11.457  0.3550 -0.2267 -0.1371
18579TIP3    H177228   3.222   3.099  11.423  0.7111 -1.1299  0.3216
18579TIP3    H277229   3.145   3.008  11.516 -0.5151  0.3477  0.7809
18580TIP3   OH277230   4.590   1.735   6.344 -0.2736  0.2273  0.1772
18580TIP3    H177231   4.523   1.796   6.374  0.1485  1.3698 -1.1357
18580TIP3    H277232   4.543   1.675   6.285 -0.5431 -0.2855  0.9027
18581TIP3   OH277233   0.969   1.615  11.779 -0.0102 -0.3855 -0.0909
18581TIP3    H177234   1.034   1.632  11.711 -0.1255  1.1409  0.1513
18581TIP3    H277235   1.016   1.563  11.844  1.1488  1.1477  0.3330
18582TIP3   OH277236   0.509   2.934  17.260 -0.1024 -0.4455  0.9248
18582TIP3    H177237   0.462   2.866  17.211  0.5129 -1.3162  1.5129
18582TIP3    H277238   0.570   2.971  17.196 -0.5501 -0.3487  0.5572
18583TIP3   OH277239   5.227   0.611   3.008 -0.2349 -0.4205 -0.2769
18583TIP3    H177240   5.159   0.570   3.061 -0.7279 -1.3612 -1.6366
18583TIP3    H277241   5.298   0.548   3.006 -0.4814 -0.6736 -1.2888
18584TIP3   OH277242   1.078   5.844  15.947 -0.0955 -0.3576  0.2840
18584TIP3    H177243   1.142   5.778  15.922 -0.1510 -0.3773  0.1927
18584TIP3    H277244   1.069   5.900  15.870  0.4871  0.1863  0.6137
18585TIP3   OH277245   2.115   5.003   0.739 -0.1892 -1.1591  0.1542
18585TIP3    H177246   2.151   4.921   0.706  3.0018  0.4506 -0.5215
18585TIP3    H277247   2.094   5.054   0.661 -0.0556 -0.4631  0.5675
18586TIP3   OH277248   4.269   4.020   1.317 -0.5145  0.2475  0.2238
18586TIP3    H177249   4.352   3.980   1.342 -0.0271  1.4528  0.5899
18586TIP3    H277250   4.264   4.100   1.370 -1.5842  0.5330 -0.2891
18587TIP3   OH277251   4.680   3.631  12.170 -0.1792  0.3979  0.5017
18587TIP3    H177252   4.749   3.698  12.171  1.1098 -0.9127  1.6370
18587TIP3    H277253   4.725   3.551  12.144 -0.9231 -0.8098  2.8118
18588TIP3   OH277254   5.946   2.632   3.991 -0.2795  0.3517  0.8325
18588TIP3    H177255   5.946   2.614   4.085  1.2166  0.2234  0.8289
18588TIP3    H277256   5.956   2.727   3.984  2.5531  0.1110  0.8274
18589TIP3   OH277257   1.573   4.247  15.661 -0.9274 -0.1438  0.2222
18589TIP3    H177258   1.623   4.198  15.596  1.2409  0.9842  0.9859
18589TIP3    H277259   1.521   4.181  15.706 -2.8085 -0.8944 -2.8981
18590TIP3   OH277260   4.730   3.736  14.258  0.0974 -0.2663  0.0715
18590TIP3    H177261   4.753   3.766  14.169 -1.9576 -0.2957 -0.4967
18590TIP3    H277262   4.722   3.817  14.309  0.1053 -0.1732 -0.0727
18591TIP3   OH277263   4.780   2.597  12.153  0.4701  0.1273  0.7965
18591TIP3    H177264   4.832   2.646  12.217  0.1622 -0.9809  1.9197
18591TIP3    H277265   4.703   2.567  12.203  0.3542 -0.9861 -0.0256
18592TIP3   OH277266   3.813   2.087  15.405 -0.3940 -0.4279 -0.0316
18592TIP3    H177267   3.833   2.137  15.326  3.4945 -0.2997  0.9349
18592TIP3    H277268   3.866   2.008  15.398 -0.2779 -0.6051  2.2557
18593TIP3   OH277269   3.621   3.465   5.831 -0.6628 -0.1567 -0.8774
18593TIP3    H177270   3.590   3.481   5.920 -4.6394 -0.5739 -2.1036
18593TIP3    H277271   3.682   3.537   5.814 -0.3669  0.3178  1.9042
18594TIP3   OH277272   3.241   0.303   1.815 -0.2871 -0.4877  0.4276
18594TIP3    H177273   3.186   0.229   1.842  2.0548 -2.1892  0.7193
18594TIP3    H277274   3.237   0.302   1.720 -1.9853  0.3896  0.4667
18595TIP3   OH277275   5.958   4.465  16.076 -0.6458  0.0407 -0.0312
18595TIP3    H177276   5.934   4.516  15.999  1.4842 -0.6733 -1.2126
18595TIP3    H277277   5.940   4.374  16.051  0.3193 -0.2196  0.2156
18596TIP3   OH277278   6.301   5.437  12.216  0.0418 -0.1303 -0.1303
18596TIP3    H177279   6.304   5.531  12.202  0.4584 -0.1848 -0.3900
18596TIP3    H277280   6.207   5.416  12.217 -0.0422  0.2395 -0.3767
18597TIP3   OH277281   2.892   5.432  15.919 -0.1001 -0.2082 -0.0327
18597TIP3    H177282   2.882   5.396  15.831 -1.3109 -0.4913  0.2102
18597TIP3    H277283   2.902   5.355  15.975  0.5936 -0.0314  0.0835
18598TIP3   OH277284   0.882   3.753  15.446  0.2006  0.0441 -0.2358
18598TIP3    H177285   0.831   3.819  15.398  1.9326  0.2503 -1.8319
18598TIP3    H277286   0.817   3.709  15.500 -1.9302 -0.3974 -2.9888
18599TIP3   OH277287   6.553   5.636   1.609 -0.0382 -0.4952  0.1224
18599TIP3    H177288   6.642   5.664   1.587 -1.0793  3.1620  0.2996
18599TIP3    H277289   6.562   5.592   1.693  1.6476 -0.5680 -0.0729
18600TIP3   OH277290   6.156   0.570   5.475  0.2030  0.2164  0.4085
18600TIP3    H177291   6.239   0.582   5.429  0.0436 -0.3327 -0.0115
18600TIP3    H277292   6.154   0.643   5.537  0.6564  0.6605 -0.0859
18601TIP3   OH277293   1.102   5.006  15.302  0.3758 -0.6601  0.6227
18601TIP3    H177294   1.174   5.055  15.343  0.4421 -0.2184 -0.0106
18601TIP3    H277295   1.066   5.067  15.237  0.6904 -1.5716 -0.4216
18602TIP3   OH277296   4.684   6.767  14.435 -0.2070  0.0291  0.3836
18602TIP3    H177297   4.775   6.748  14.411  0.0296  1.6877 -0.1290
18602TIP3    H277298   4.678   6.743  14.527  1.2098  1.3310  0.8525
18603TIP3   OH277299   3.171   0.008   3.438  0.4044  0.2071  0.2310
18603TIP3    H177300   3.143  -0.049   3.367 -0.9664 -1.3937  1.9865
18603TIP3    H277301   3.263  -0.015   3.453 -0.1379 -1.5960  0.9323
18604TIP3   OH277302   3.481   2.415   1.811  0.2451 -0.2314 -0.4107
18604TIP3    H177303   3.392   2.448   1.797  0.1365 -0.9225 -1.3882
18604TIP3    H277304   3.469   2.329   1.852  0.5103  0.4663  1.1738
18605TIP3   OH277305   6.713   2.578  12.980 -0.1966 -0.5475  0.2002
18605TIP3    H177306   6.778   2.577  12.910  0.2336  0.4664  0.5808
18605TIP3    H277307   6.739   2.507  13.038 -1.3892 -2.3468 -1.4059
18606TIP3   OH277308   6.461   1.278  13.944  0.0382 -0.9559  0.7454
18606TIP3    H177309   6.425   1.212  14.004 -0.6471 -0.5592  0.7720
18606TIP3    H277310   6.488   1.349  14.002  2.0149 -1.7522  0.8500
18607TIP3   OH277311   2.438   6.594  13.605  0.1738  0.5821  0.0815
18607TIP3    H177312   2.460   6.632  13.690  0.5082  0.7215 -0.0669
18607TIP3    H277313   2.422   6.502  13.624 -1.0257  0.8662  0.5087
18608TIP3   OH277314   1.090   4.565   1.790 -0.0194 -0.0227 -0.1447
18608TIP3    H177315   1.078   4.544   1.883 -0.1726  2.2060  0.3531
18608TIP3    H277316   1.183   4.584   1.781 -0.1513  0.5542 -0.2862
18609TIP3   OH277317   3.521   0.694   4.499 -0.5055  0.2929  0.1198
18609TIP3    H177318   3.609   0.703   4.537 -0.9944 -0.1993  1.3886
18609TIP3    H277319   3.537   0.669   4.407  0.6859  1.1859  0.0739
18610TIP3   OH277320   0.922   1.853   3.575 -0.2799 -0.2053 -0.0006
18610TIP3    H177321   0.869   1.866   3.653 -1.2763  0.2776 -0.7474
18610TIP3    H277322   0.952   1.763   3.580  1.1904  0.3749  1.8775
18611TIP3   OH277323   5.867   6.187   0.147 -0.1137  0.1605 -0.1570
18611TIP3    H177324   5.816   6.216   0.072 -0.5159  0.4340  0.2244
18611TIP3    H277325   5.850   6.093   0.153  1.1009 -0.1621 -1.3223
18612TIP3   OH277326   1.743   4.517  13.099 -0.4302 -0.4101 -0.5820
18612TIP3    H177327   1.777   4.452  13.037  2.1945 -0.8758  1.2531
18612TIP3    H277328   1.678   4.470  13.151 -0.4844 -0.8249 -1.0250
18613TIP3   OH277329   0.268   1.374   2.482  0.6247  0.0739 -0.0000
18613TIP3    H177330   0.342   1.432   2.496  3.2561 -2.9915 -0.5235
18613TIP3    H277331   0.258   1.369   2.387  1.9427 -2.0671 -0.0628
18614TIP3   OH277332   5.123   6.148   0.560  0.4117 -0.3002 -0.2335
18614TIP3    H177333   5.049   6.122   0.615  0.0889 -0.0412 -0.5413
18614TIP3    H277334   5.091   6.137   0.470  0.9456 -0.7541 -0.3719
18615TIP3   OH277335   0.398   6.609  14.222 -0.2602 -0.1632 -0.0537
18615TIP3    H177336   0.465   6.597  14.290  0.2958  0.6680 -0.4396
18615TIP3    H277337   0.354   6.525  14.216 -0.5338 -0.1510  1.5795
18616TIP3   OH277338   4.039   2.548  14.744  0.1981  0.0290  0.1488
18616TIP3    H177339   3.979   2.477  14.769  0.4051 -0.1456  0.1536
18616TIP3    H277340   3.998   2.627  14.778  0.8743 -0.2997  1.7718
18617TIP3   OH277341   2.255   5.676  15.131 -0.3441  0.3274  0.1900
18617TIP3    H177342   2.316   5.636  15.068 -0.6087 -0.0054  0.1458
18617TIP3    H277343   2.242   5.609  15.198 -0.8619  0.3030  0.0677
18618TIP3   OH277344   0.300   2.654   1.726 -0.2900  0.1396  0.1350
18618TIP3    H177345   0.278   2.746   1.715 -2.5481 -0.6679 -2.8194
18618TIP3    H277346   0.224   2.607   1.692  0.1669 -2.8620  2.9504
18619TIP3   OH277347   2.598   5.276  12.598 -0.2089 -0.2882  0.4930
18619TIP3    H177348   2.574   5.191  12.560 -1.6599 -1.3612  3.6211
18619TIP3    H277349   2.681   5.298  12.557 -0.7106 -2.3649 -1.7115
18620TIP3   OH277350   0.378   6.596  16.422 -0.1413 -0.0660  0.1399
18620TIP3    H177351   0.287   6.624  16.409  0.1527 -0.1131 -2.2929
18620TIP3    H277352   0.389   6.522  16.361  1.2895 -0.5909  1.0094
18621TIP3   OH277353   6.617   3.090   3.559 -0.1758 -0.0883  0.7462
18621TIP3    H177354   6.697   3.142   3.562 -0.5446  0.4636  1.1390
18621TIP3    H277355   6.647   3.000   3.548  0.4222  0.3474 -1.4938
18622TIP3   OH277356   2.430   3.147  17.273  0.2316 -0.1834  0.1021
18622TIP3    H177357   2.456   3.216  17.213  2.6470 -2.6537 -1.8571
18622TIP3    H277358   2.490   3.155  17.347 -0.2872  0.5756  0.4337
18623TIP3   OH277359   5.741   0.260   2.294  0.0010 -0.7206  0.1369
18623TIP3    H177360   5.721   0.252   2.201  2.0736  1.5235 -0.5361
18623TIP3    H277361   5.659   0.291   2.333  0.2743  2.3828 -1.6130
18624TIP3   OH277362   5.975   1.191  15.273 -0.3044  0.1099  0.3601
18624TIP3    H177363   5.903   1.173  15.333 -1.5035  0.6042 -0.8785
18624TIP3    H277364   5.932   1.202  15.188  1.3704 -0.8506 -0.6375
18625TIP3   OH277365   3.029   6.024   1.515 -0.0437  0.2067  0.0945
18625TIP3    H177366   3.016   6.038   1.421  1.0707 -0.1416 -0.1196
18625TIP3    H277367   3.106   6.077   1.537 -0.7094  0.8347  0.9566
18626TIP3   OH277368   5.018   6.696   1.142 -0.6110 -0.0197  0.0588
18626TIP3    H177369   5.024   6.792   1.149  0.2279 -0.0982  0.5111
18626TIP3    H277370   5.030   6.666   1.232  2.0565 -0.6977 -0.4998
18627TIP3   OH277371   4.960   2.527   6.315 -0.5293  0.1476 -0.0214
18627TIP3    H177372   4.953   2.586   6.239 -0.3247 -1.0481 -0.9957
18627TIP3    H277373   5.006   2.578   6.381 -0.4040  1.1022 -0.8352
18628TIP3   OH277374   0.742   2.484  16.276  0.0801  0.1790 -0.3230
18628TIP3    H177375   0.785   2.403  16.304  0.4682  0.7186  0.6785
18628TIP3    H277376   0.782   2.505  16.192 -0.0631 -0.6981 -0.6121
18629TIP3   OH277377   3.407   4.183  15.934 -0.2184  0.2417  0.6159
18629TIP3    H177378   3.495   4.153  15.957 -0.4208 -0.1558  0.8724
18629TIP3    H277379   3.412   4.279  15.942 -0.5996  0.0878  3.5389
18630TIP3   OH277380   2.534   3.316  17.083  0.3745 -0.1176  0.2783
18630TIP3    H177381   2.534   3.394  17.027 -1.6225 -0.9421 -0.9229
18630TIP3    H277382   2.566   3.246  17.026 -0.5828 -0.7364  0.4901
18631TIP3   OH277383   1.542   2.722  14.557  0.5030 -0.0545  0.6120
18631TIP3    H177384   1.572   2.723  14.466  0.5050  0.1226  0.6130
18631TIP3    H277385   1.536   2.815  14.581  2.3783 -0.1189  1.4153
18632TIP3   OH277386   2.917   5.473  10.667  0.6118  0.3029  0.3146
18632TIP3    H177387   2.980   5.406  10.693  0.0694  0.1836  1.3464
18632TIP3    H277388   2.895   5.451  10.576  1.7143  0.0896  0.0991
18633TIP3   OH277389   6.254   5.236   1.640  0.2944 -0.0700 -0.3355
18633TIP3    H177390   6.164   5.270   1.643 -0.6417 -2.4431 -0.0956
18633TIP3    H277391   6.255   5.168   1.707  1.9760 -0.8002 -1.0899
18634TIP3   OH277392   5.826   0.303  11.744 -0.8458  0.0736  0.0577
18634TIP3    H177393   5.879   0.273  11.670  0.1657 -0.3807  0.9554
18634TIP3    H277394   5.740   0.262  11.729 -0.8689  0.5718 -1.2398
18635TIP3   OH277395   2.184   5.511  11.952  0.0355  0.1905  0.0482
18635TIP3    H177396   2.089   5.525  11.954 -0.0673 -0.3414 -1.0227
18635TIP3    H277397   2.204   5.493  11.860  1.1413  0.0477  0.3123
18636TIP3   OH277398   3.051   4.460  13.350  0.3185 -0.0507  0.0033
18636TIP3    H177399   2.969   4.501  13.378  0.6246  0.4923  0.1214
18636TIP3    H277400   3.117   4.529  13.360  0.6483 -0.2304 -0.8628
18637TIP3   OH277401   0.150   4.206   5.682 -0.0437  0.2643 -0.2931
18637TIP3    H177402   0.242   4.203   5.708 -0.2542  1.0300  0.5569
18637TIP3    H277403   0.152   4.198   5.587  0.9378  0.7438 -0.3234
18638TIP3   OH277404   6.486   1.769  15.330 -0.6502 -0.0846  0.2124
18638TIP3    H177405   6.545   1.844  15.320 -1.3100  0.0678 -3.1351
18638TIP3    H277406   6.433   1.790  15.406 -0.3036  2.5184 -0.2053
18639TIP3   OH277407   6.226   2.444   5.137 -0.1824 -0.6139  0.3709
18639TIP3    H177408   6.228   2.388   5.060  3.2492  0.3148 -0.3282
18639TIP3    H277409   6.305   2.420   5.186 -0.8815  0.6884  2.2102
18640TIP3   OH277410   1.474   1.232   5.904 -0.9781 -0.2829  0.2313
18640TIP3    H177411   1.459   1.198   5.816  1.2365  0.0421 -0.2864
18640TIP3    H277412   1.405   1.298   5.916 -1.9546 -1.0899 -0.8282
18641TIP3   OH277413   4.378   4.896   2.143 -0.3385 -1.0929  0.4110
18641TIP3    H177414   4.300   4.941   2.175  0.3499  0.2102  0.3105
18641TIP3    H277415   4.345   4.832   2.080 -1.2050  0.5921 -0.8921
18642TIP3   OH277416   5.627   5.544   5.412  0.2958 -0.2201 -0.0814
18642TIP3    H177417   5.667   5.474   5.463  0.1622  1.3405  2.2623
18642TIP3    H277418   5.533   5.526   5.414  0.0529  1.1526  2.3584
18643TIP3   OH277419   4.157   6.486   0.243  0.0771 -0.3704  0.1263
18643TIP3    H177420   4.094   6.543   0.287 -1.8149 -2.0080 -0.3760
18643TIP3    H277421   4.241   6.507   0.284 -1.1379  0.3379  2.3674
18644TIP3   OH277422   2.127   4.563  17.062 -0.0517 -0.7155  0.5355
18644TIP3    H177423   2.104   4.515  16.982  0.8312  1.0624 -0.8323
18644TIP3    H277424   2.222   4.560  17.066 -0.0307  0.1296  0.8996
18645TIP3   OH277425   3.467   1.020   5.387  0.2847  0.0168 -0.6774
18645TIP3    H177426   3.378   0.996   5.361  0.0298  1.0235 -0.7697
18645TIP3    H277427   3.456   1.076   5.464  0.9489 -1.4370  0.4842
18646TIP3   OH277428   5.410   0.718   3.448  0.1611  0.1883 -0.2712
18646TIP3    H177429   5.476   0.659   3.412  0.8250  1.2915 -0.9088
18646TIP3    H277430   5.386   0.775   3.375 -1.2024  0.0718  0.0656
18647TIP3   OH277431   4.830   0.280  11.730  0.4811 -1.3722  0.2620
18647TIP3    H177432   4.738   0.302  11.720  0.5063 -0.9491  0.8759
18647TIP3    H277433   4.841   0.264  11.824  0.6924 -3.0306 -0.0314
18648TIP3   OH277434   5.543   1.476   0.255 -0.0634 -0.0962 -0.4760
18648TIP3    H177435   5.460   1.447   0.294  0.5804  0.0472  1.0447
18648TIP3    H277436   5.559   1.415   0.183  0.1000 -2.0735  1.2160
18649TIP3   OH277437   1.905   6.403  11.624 -0.3837  0.0936 -0.0630
18649TIP3    H177438   1.876   6.332  11.567  3.5491 -0.0759 -2.0049
18649TIP3    H277439   1.977   6.366  11.674  0.0783  1.9878  0.7233
18650TIP3   OH277440   5.317   3.277   0.884 -0.3691 -0.0192  0.3661
18650TIP3    H177441   5.307   3.290   0.790 -0.6526 -1.2140  0.2237
18650TIP3    H277442   5.372   3.350   0.913  1.3877 -0.7388 -1.0571
18651TIP3   OH277443   1.599   5.101  13.078  0.0125 -0.2256  0.2720
18651TIP3    H177444   1.693   5.089  13.068 -0.0438 -0.5932  0.1706
18651TIP3    H277445   1.590   5.182  13.128  0.4124 -1.0148  1.6216
18652TIP3   OH277446   5.788   6.653  11.882  0.4786 -0.0713  0.3764
18652TIP3    H177447   5.876   6.625  11.854  0.3114 -0.0005 -0.2316
18652TIP3    H277448   5.733   6.637  11.806  0.3967  1.9716 -0.0289
18653TIP3   OH277449   3.887   5.399  13.687 -0.0570 -0.1141 -0.0995
18653TIP3    H177450   3.801   5.402  13.730 -0.8137 -0.7142 -1.5051
18653TIP3    H277451   3.930   5.322  13.724 -0.0608  0.2753  0.7196
18654TIP3   OH277452   1.123   6.369  13.809 -0.1180 -0.1770 -0.5006
18654TIP3    H177453   1.046   6.427  13.812 -0.8766 -1.1922 -0.2487
18654TIP3    H277454   1.197   6.427  13.831 -0.9515  0.5725  0.3898
18655TIP3   OH277455   5.320   3.018   2.168 -0.1112 -0.1325 -0.0452
18655TIP3    H177456   5.302   3.071   2.091 -1.0061 -0.2652  0.0717
18655TIP3    H277457   5.261   3.051   2.235  0.8206  0.1369  0.6647
18656TIP3   OH277458   6.214   4.032  17.255 -0.7932 -0.5321 -0.6742
18656TIP3    H177459   6.205   3.974  17.179  1.1051 -2.9054  0.8363
18656TIP3    H277460   6.168   3.987  17.326 -1.2506  0.9300 -0.0267
18657TIP3   OH277461   4.870   6.237   1.784  0.3116 -0.0071 -0.6709
18657TIP3    H177462   4.951   6.288   1.770  0.4650 -0.6062 -1.9834
18657TIP3    H277463   4.808   6.301   1.819  1.6854  0.2161  1.5048
18658TIP3   OH277464   0.350   2.009   3.860 -0.7483 -0.2421  0.1292
18658TIP3    H177465   0.383   1.958   3.786 -1.9187  1.5259 -1.6718
18658TIP3    H277466   0.353   1.949   3.934  0.6525 -1.9958 -1.2964
18659TIP3   OH277467   2.171   0.807  11.629  0.2626 -0.3061  0.4270
18659TIP3    H177468   2.231   0.875  11.597  1.1085 -1.6242 -0.8382
18659TIP3    H277469   2.203   0.726  11.590 -2.7047 -0.9790 -0.7532
18660TIP3   OH277470   1.199   0.730   0.885 -0.4324 -0.6779  0.4261
18660TIP3    H177471   1.214   0.786   0.961 -0.1470 -0.7291  0.4105
18660TIP3    H277472   1.281   0.681   0.875 -1.2711 -2.3376  1.4731
18661TIP3   OH277473   0.685   4.986   3.669 -0.4455 -0.3437 -0.3937
18661TIP3    H177474   0.668   4.915   3.731  0.1886  0.8675  1.2239
18661TIP3    H277475   0.678   5.066   3.722  0.9926  0.6700 -1.6852
18662TIP3   OH277476   3.550   0.203   0.632  0.5071  0.4127  0.3648
18662TIP3    H177477   3.527   0.296   0.637  1.5887  0.6834  0.4881
18662TIP3    H277478   3.591   0.185   0.717 -2.8714 -1.0630  1.7465
18663TIP3   OH277479   4.466   2.759  16.306  0.0429  0.0129  0.2567
18663TIP3    H177480   4.534   2.822  16.283 -1.8991  0.6056 -4.2019
18663TIP3    H277481   4.399   2.811  16.351 -0.7407  0.8422 -1.8230
18664TIP3   OH277482   2.991   4.229   3.129 -0.3549 -0.4040  0.1464
18664TIP3    H177483   3.053   4.166   3.091  1.8759  0.9585  1.3881
18664TIP3    H277484   2.943   4.180   3.195 -1.3169 -1.7314 -1.5049
18665TIP3   OH277485   5.185   4.860   5.112 -0.0396  0.1456  0.3021
18665TIP3    H177486   5.211   4.890   5.025 -1.0497 -0.5376 -0.2378
18665TIP3    H277487   5.144   4.775   5.097  0.0501 -0.1113  1.4817
18666TIP3   OH277488   0.729   2.488  13.548 -0.5548 -0.5660 -0.2335
18666TIP3    H177489   0.733   2.405  13.595 -2.3132  0.1310  1.2058
18666TIP3    H277490   0.648   2.483  13.498 -2.0497  1.3247  1.9275
18667TIP3   OH277491   4.054   4.002   1.700  0.1945  0.6242  0.1402
18667TIP3    H177492   4.103   4.056   1.638  0.2687  0.0773 -0.2824
18667TIP3    H277493   4.107   3.923   1.711  0.7656  1.2212  1.8141
18668TIP3   OH277494   0.101   0.839   4.967  0.0621  0.0241 -0.2758
18668TIP3    H177495   0.025   0.822   4.910 -0.9083 -0.0290  1.0032
18668TIP3    H277496   0.062   0.863   5.051  1.4591 -2.7061  1.2200
18669TIP3   OH277497   0.076   2.964  10.462 -0.4917 -0.1941 -0.2279
18669TIP3    H177498   0.152   3.001  10.506  0.8523 -1.5109 -1.3782
18669TIP3    H277499   0.085   2.870  10.473 -2.0695 -0.3638 -0.2286
18670TIP3   OH277500   2.209   6.770   2.816 -0.1471  0.2182  0.2346
18670TIP3    H177501   2.251   6.813   2.742 -2.0034  0.9504 -0.4381
18670TIP3    H277502   2.126   6.738   2.781 -1.0585  0.5923  1.9847
18671TIP3   OH277503   3.049   4.841  16.591  0.1145  0.3341 -1.2170
18671TIP3    H177504   3.004   4.925  16.585  0.0878  0.7251  2.7006
18671TIP3    H277505   2.985   4.784  16.635  1.2470 -0.8171 -1.0571
18672TIP3   OH277506   5.926   2.564   3.444 -0.5233  0.2096 -0.0570
18672TIP3    H177507   5.976   2.639   3.476 -0.8880  0.3781  0.1167
18672TIP3    H277508   5.909   2.511   3.522  1.8709 -1.3404 -0.5245
18673TIP3   OH277509   3.944   6.232   6.221 -0.0868  0.1936 -0.6564
18673TIP3    H177510   3.896   6.308   6.188  2.6653  2.4199  0.2583
18673TIP3    H277511   3.996   6.266   6.294  0.2020 -2.8783  0.6341
18674TIP3   OH277512   6.133   1.048  14.960 -0.7714 -0.0068 -0.3558
18674TIP3    H177513   6.211   1.010  14.919  0.0725 -0.8061  1.9334
18674TIP3    H277514   6.146   1.142  14.951  0.6223 -0.1208  0.2764
18675TIP3   OH277515   5.470   3.055   3.120 -0.4440 -0.1649 -0.1544
18675TIP3    H177516   5.561   3.029   3.101  0.4784  3.5816 -1.2686
18675TIP3    H277517   5.473   3.087   3.210 -0.9354 -1.0311  0.1807
18676TIP3   OH277518   4.649   2.703   6.060  0.1567  0.0613  0.0294
18676TIP3    H177519   4.558   2.677   6.044 -0.4087  2.4192 -0.6785
18676TIP3    H277520   4.691   2.623   6.093 -2.4071 -0.7642  1.3852
18677TIP3   OH277521   3.015   1.063   2.048  0.1924 -0.5839  0.2539
18677TIP3    H177522   3.016   1.069   2.144 -0.0801  1.2071  0.1763
18677TIP3    H277523   3.009   0.970   2.030  1.7984 -1.0585  1.9673
18678TIP3   OH277524   5.304   5.105  13.055 -0.3967 -0.4230  0.4407
18678TIP3    H177525   5.271   5.158  13.127 -2.0722 -2.4226  1.1900
18678TIP3    H277526   5.399   5.103  13.067 -0.7470 -1.6942  3.3202
18679TIP3   OH277527   0.054   0.680   1.809 -0.0193  0.2609 -0.0122
18679TIP3    H177528   0.121   0.713   1.869  0.9721 -0.1545 -0.8790
18679TIP3    H277529   0.018   0.604   1.853  1.9571 -1.1212 -0.6975
18680TIP3   OH277530   1.225   0.919  16.043 -0.0163  0.2055 -0.5525
18680TIP3    H177531   1.266   0.833  16.038 -0.1961  0.0737  0.1489
18680TIP3    H277532   1.138   0.903  16.079 -0.1539  0.6457 -0.6860
18681TIP3   OH277533   3.526   6.374  16.435  0.4607  0.2344 -0.4127
18681TIP3    H177534   3.538   6.432  16.359  1.1431 -0.9014 -1.1890
18681TIP3    H277535   3.590   6.404  16.499  2.5599 -1.2096 -1.7698
18682TIP3   OH277536   4.039   5.695   3.987  0.0552  0.1855  0.8611
18682TIP3    H177537   3.999   5.739   4.062 -0.0147 -0.1495  1.0207
18682TIP3    H277538   4.005   5.742   3.910 -0.4864  0.0301  1.0037
18683TIP3   OH277539   5.187   2.429  16.605 -0.4711 -0.2301 -0.0378
18683TIP3    H177540   5.120   2.497  16.607 -1.9940 -1.6122 -2.5848
18683TIP3    H277541   5.221   2.431  16.516  2.3037 -0.1703  0.9560
18684TIP3   OH277542   6.044   5.417  15.740  0.5622  0.0092 -0.1043
18684TIP3    H177543   6.016   5.453  15.656  0.8927 -0.3471 -0.3676
18684TIP3    H277544   5.987   5.460  15.804 -1.0732 -1.2305 -0.6920
18685TIP3   OH277545   3.634   1.592   2.006 -0.1935 -0.0291 -0.3767
18685TIP3    H177546   3.544   1.597   1.975 -0.3660 -0.5214  0.0423
18685TIP3    H277547   3.679   1.538   1.941 -0.5681 -1.1100  0.2601
18686TIP3   OH277548   5.706   1.119   6.260  0.0748  0.3624  0.3944
18686TIP3    H177549   5.659   1.038   6.282  0.2474 -0.9944 -3.8293
18686TIP3    H277550   5.798   1.092   6.255  0.7109  1.8092  3.0235
18687TIP3   OH277551   6.377   4.509   6.396 -0.0737  0.1484  0.0372
18687TIP3    H177552   6.303   4.540   6.345 -0.8803 -2.1622 -0.2749
18687TIP3    H277553   6.339   4.478   6.479  0.4736 -1.2256 -0.1998
18688TIP3   OH277554   0.251   1.262   4.522  0.1249 -0.0646 -0.1777
18688TIP3    H177555   0.268   1.349   4.486 -2.1086  0.1719 -0.7327
18688TIP3    H277556   0.261   1.202   4.448 -0.1593 -0.0635 -0.2190
18689TIP3   OH277557   4.326   2.783  12.176 -0.3160 -0.0257  0.1172
18689TIP3    H177558   4.414   2.771  12.140 -0.5773 -1.2069 -0.1491
18689TIP3    H277559   4.338   2.846  12.247  0.7207 -0.0751 -0.0001
18690TIP3   OH277560   2.338   3.225  15.711  0.2277  0.1223  0.6676
18690TIP3    H177561   2.257   3.186  15.745  0.9078 -0.7236  1.3202
18690TIP3    H277562   2.388   3.152  15.676  0.6330  0.6752  0.0605
18691TIP3   OH277563   3.851   0.703   3.736  0.1378  0.2742  0.2747
18691TIP3    H177564   3.892   0.781   3.773 -0.3389  0.4157  0.5044
18691TIP3    H277565   3.804   0.735   3.659 -1.2334  0.4591  1.1698
18692TIP3   OH277566   6.381   1.735   2.120  0.9526 -0.0909  0.3120
18692TIP3    H177567   6.289   1.721   2.141  1.0158 -0.5709  0.2683
18692TIP3    H277568   6.427   1.668   2.171  1.2537 -0.0523  0.0878
18693TIP3   OH277569   1.287   0.650   0.585  0.1305  0.6270 -0.0942
18693TIP3    H177570   1.220   0.718   0.571 -0.5735 -0.2409 -0.9871
18693TIP3    H277571   1.244   0.587   0.643  0.4154  0.4098 -0.1210
18694TIP3   OH277572   2.430   3.426  15.547 -0.1038  0.0762 -0.1912
18694TIP3    H177573   2.505   3.474  15.581  1.0434 -1.2187 -0.8230
18694TIP3    H277574   2.401   3.371  15.620  0.1894 -0.1457 -0.2397
18695TIP3   OH277575   3.764   3.560  10.803 -0.3917  0.3748 -0.2253
18695TIP3    H177576   3.816   3.600  10.733  0.6685  0.8131  0.7931
18695TIP3    H277577   3.693   3.516  10.758  0.5697  0.2181 -1.6137
18696TIP3   OH277578   5.069   5.981   0.307  0.1729  0.3801 -0.2060
18696TIP3    H177579   5.083   5.906   0.250 -0.0138 -0.8251  1.3111
18696TIP3    H277580   4.975   5.978   0.328  0.2362  0.8139  0.1581
18697TIP3   OH277581   1.438   4.439  16.053  0.1949  0.2518  0.0324
18697TIP3    H177582   1.361   4.386  16.033 -0.9568  2.3957 -1.4934
18697TIP3    H277583   1.417   4.481  16.136  0.2037 -0.0586  0.1920
18698TIP3   OH277584   2.279   1.626  14.767  0.2891  0.5079 -0.1472
18698TIP3    H177585   2.275   1.662  14.679  1.5865 -1.5664 -1.0996
18698TIP3    H277586   2.350   1.674  14.809  0.1571  0.9964 -0.4774
18699TIP3   OH277587   1.024   3.373  12.044  0.3567 -0.0699 -0.1446
18699TIP3    H177588   0.986   3.289  12.018  1.2799 -0.3048 -0.7900
18699TIP3    H277589   1.012   3.429  11.967 -0.1864  0.3675  0.2568
18700TIP3   OH277590   3.096   5.407   0.555  0.3545  0.6215  0.5402
18700TIP3    H177591   3.041   5.357   0.616  0.8995 -0.0756  0.4637
18700TIP3    H277592   3.130   5.479   0.607  0.4156  0.3124  0.9289
18701TIP3   OH277593   3.700   4.577   4.548 -0.1447 -0.0390 -0.2459
18701TIP3    H177594   3.688   4.666   4.581 -1.3004 -0.5381  0.7110
18701TIP3    H277595   3.618   4.533   4.568  0.7927 -1.6032  0.1697
18702TIP3   OH277596   5.894   6.046  15.778  0.1757  0.3001  0.1093
18702TIP3    H177597   5.819   5.997  15.745 -0.0796  1.9819 -1.9373
18702TIP3    H277598   5.964   6.029  15.715 -0.5409  4.1798 -1.8649
18703TIP3   OH277599   2.717   3.788   5.895  0.7448  0.0153  0.3413
18703TIP3    H177600   2.675   3.719   5.844 -0.4437  0.6802  0.4157
18703TIP3    H277601   2.724   3.862   5.835  0.3515  0.4336  0.8049
18704TIP3   OH277602   3.465   2.703   0.999  0.2181 -0.2903  0.8144
18704TIP3    H177603   3.412   2.757   1.058 -0.2944 -0.4173  0.4733
18704TIP3    H277604   3.523   2.654   1.058 -0.2240 -0.3457  1.2081
18705TIP3   OH277605   2.346   1.615  16.031 -0.0533 -0.1080 -0.2145
18705TIP3    H177606   2.272   1.645  16.084 -1.5677  0.1466 -2.4268
18705TIP3    H277607   2.373   1.533  16.073 -0.1280  0.9302  1.9345
18706TIP3   OH277608   3.306   4.511  15.943  0.4416  0.9507  0.4382
18706TIP3    H177609   3.350   4.469  15.869  0.3082  2.2211 -0.3743
18706TIP3    H277610   3.304   4.604  15.920 -4.2016  0.7636 -0.3822
18707TIP3   OH277611   4.754   1.026   1.168 -0.8352  0.2916  0.2175
18707TIP3    H177612   4.820   1.091   1.191 -0.2956 -0.3307  0.4346
18707TIP3    H277613   4.671   1.070   1.186 -0.5171  1.3294 -0.7211
18708TIP3   OH277614   6.634   2.421  11.665 -0.0281 -0.1925 -0.4686
18708TIP3    H177615   6.655   2.466  11.583  1.3174 -0.1128 -0.0927
18708TIP3    H277616   6.645   2.487  11.733 -0.5985 -0.3998 -0.1725
18709TIP3   OH277617   3.444   1.555  16.297  0.6227 -0.1232  0.0778
18709TIP3    H177618   3.511   1.489  16.281 -0.2797 -0.9651 -0.3271
18709TIP3    H277619   3.387   1.516  16.363  0.3271  0.4277  0.1561
18710TIP3   OH277620   1.264   5.129  13.287 -0.2949 -0.2353 -0.1216
18710TIP3    H177621   1.308   5.211  13.265 -2.6415  1.1678  0.2878
18710TIP3    H277622   1.308   5.064  13.233 -0.9895  1.9284 -3.4715
18711TIP3   OH277623   4.345   4.382  11.470 -0.3884 -0.0109 -0.3162
18711TIP3    H177624   4.421   4.410  11.418 -0.5227 -2.4319 -1.8912
18711TIP3    H277625   4.377   4.307  11.519 -1.2438  0.1454  0.4827
18712TIP3   OH277626   5.416   6.546  11.077 -0.3775  0.0684 -0.6765
18712TIP3    H177627   5.491   6.503  11.037  0.3014  0.1774  0.4678
18712TIP3    H277628   5.420   6.636  11.045  2.0389  1.0354  2.1148
18713TIP3   OH277629   1.612   4.284   3.373 -0.1266 -0.3702 -0.5251
18713TIP3    H177630   1.574   4.328   3.449  2.0817 -0.7549  0.8600
18713TIP3    H277631   1.569   4.199   3.369  0.2062 -0.6004  0.7027
18714TIP3   OH277632   6.753   5.442   4.263  0.7284  0.1209 -0.0578
18714TIP3    H177633   6.748   5.455   4.168  0.4510  3.0057  0.3002
18714TIP3    H277634   6.791   5.523   4.296  0.4013 -0.6712  2.3603
18715TIP3   OH277635   2.761   1.029  14.790  0.5049  0.2960  0.3558
18715TIP3    H177636   2.803   1.095  14.734 -1.6978 -0.2631 -2.0689
18715TIP3    H277637   2.818   0.953  14.783  1.1904  0.8020  0.3245
18716TIP3   OH277638   2.780   4.908   1.583  0.6296  0.2996  0.8537
18716TIP3    H177639   2.756   4.817   1.569 -1.6375  1.0191 -0.0324
18716TIP3    H277640   2.812   4.910   1.674 -1.2586 -0.9785  1.5803
18717TIP3   OH277641   2.227   1.030   0.167 -0.0607  0.4002 -0.2526
18717TIP3    H177642   2.240   1.041   0.073  1.5322 -0.2724 -0.1219
18717TIP3    H277643   2.249   1.115   0.205 -0.4144  0.5826 -0.4607
18718TIP3   OH277644   3.119   5.979  16.180 -0.2270 -0.4176 -0.3580
18718TIP3    H177645   3.207   6.016  16.169  0.0482 -0.8081  0.4671
18718TIP3    H277646   3.084   5.974  16.091  0.3665  0.2725 -0.6402
18719TIP3   OH277647   2.215   5.015   1.028 -0.4132 -0.4593  0.1071
18719TIP3    H177648   2.283   5.081   1.038 -0.7419 -0.0628 -0.1979
18719TIP3    H277649   2.184   5.026   0.938 -0.0846 -1.4127 -0.1265
18720TIP3   OH277650   2.225   4.197   3.649 -0.2282  0.6736  0.1713
18720TIP3    H177651   2.148   4.190   3.705 -0.6424 -2.3624 -0.6988
18720TIP3    H277652   2.190   4.219   3.562  0.0245  0.9683  0.1435
18721TIP3   OH277653   2.017   0.492   5.061 -0.0068  0.8307 -0.0407
18721TIP3    H177654   2.045   0.563   5.119 -0.6261  1.7220 -0.8096
18721TIP3    H277655   1.924   0.510   5.046  0.2978  0.9820 -1.8198
18722TIP3   OH277656   4.725   5.808  12.351  0.1890 -0.0496  0.1843
18722TIP3    H177657   4.653   5.773  12.403 -1.9780  0.9173 -2.0728
18722TIP3    H277658   4.727   5.752  12.273  0.6193  1.1421 -0.6610
18723TIP3   OH277659   4.590   3.379  12.785  0.1272  0.2106  0.3128
18723TIP3    H177660   4.516   3.354  12.841  0.7444  1.2101  1.6001
18723TIP3    H277661   4.582   3.474  12.776 -0.7074 -0.0726 -2.3958
18724TIP3   OH277662   1.614   5.133   0.783  0.1953 -0.1203 -1.3014
18724TIP3    H177663   1.577   5.171   0.863  0.7098  1.8537 -1.9942
18724TIP3    H277664   1.676   5.067   0.815  0.0802  0.3479 -0.0844
18725TIP3   OH277665   2.534   5.459  16.042 -0.5067  0.1922  0.3191
18725TIP3    H177666   2.567   5.488  16.128  2.3203 -2.4563  0.2187
18725TIP3    H277667   2.552   5.533  15.984  0.9715  0.6359  1.2847
18726TIP3   OH277668   0.254   1.088   4.977 -0.0317 -0.3748 -0.1804
18726TIP3    H177669   0.206   1.008   4.955  0.6808 -0.7556 -0.3817
18726TIP3    H277670   0.307   1.106   4.899  1.6059 -1.0450  0.7363
18727TIP3   OH277671   4.588   6.059   4.526  0.4595 -0.6856 -0.6532
18727TIP3    H177672   4.674   6.088   4.556  0.3473  1.0227 -1.9269
18727TIP3    H277673   4.590   5.963   4.536  2.5668 -0.6794 -0.8477
18728TIP3   OH277674   5.552   5.322  13.361  0.2726  0.5743 -0.3929
18728TIP3    H177675   5.481   5.382  13.339 -0.4380 -0.9581 -2.3447
18728TIP3    H277676   5.511   5.256  13.417  0.6276  0.7906  0.1317
18729TIP3   OH277677   2.386   4.218  14.791  0.1972 -0.9078 -0.4380
18729TIP3    H177678   2.345   4.265  14.718 -0.7077 -1.8297 -0.5489
18729TIP3    H277679   2.315   4.206  14.854  0.5873 -1.4899 -0.1076
18730TIP3   OH277680   3.456   4.830  16.407 -0.2342 -0.3194 -0.0028
18730TIP3    H177681   3.499   4.896  16.461 -0.1877  0.2197 -0.6881
18730TIP3    H277682   3.407   4.880  16.342 -1.5180 -0.9372  0.4741
18731TIP3   OH277683   5.629   1.425  12.105 -0.3818  0.3229  0.3570
18731TIP3    H177684   5.537   1.418  12.081 -0.0859 -1.1379 -0.4666
18731TIP3    H277685   5.635   1.383  12.191 -0.5227  0.5903  0.4950
18732TIP3   OH277686   3.928   3.420  16.225  0.5463 -0.1107 -0.1256
18732TIP3    H177687   3.966   3.381  16.304 -1.1272  0.6339  1.0934
18732TIP3    H277688   3.871   3.351  16.190  0.0509  0.1146  0.2299
18733TIP3   OH277689   0.976   1.608   3.109  0.2936  0.0003  0.1409
18733TIP3    H177690   0.992   1.515   3.124  0.2392  0.2281  1.6946
18733TIP3    H277691   1.061   1.644   3.085  1.0175  0.1659  2.8467
18734TIP3   OH277692   5.021   5.044  13.759 -0.1042  0.4191  0.3532
18734TIP3    H177693   5.029   5.002  13.673  0.3165  1.0101  0.1050
18734TIP3    H277694   5.109   5.076  13.778 -0.1748  0.2208  1.0461
18735TIP3   OH277695   3.476   6.410   0.322  0.2784  0.5693  0.4096
18735TIP3    H177696   3.494   6.491   0.369  2.2561  0.5257 -0.2468
18735TIP3    H277697   3.430   6.355   0.386  1.6381  1.0463  1.8165
18736TIP3   OH277698   0.016   5.462  17.223 -0.2940 -0.3179  0.1160
18736TIP3    H177699  -0.011   5.532  17.282 -0.6604 -0.4142  0.0611
18736TIP3    H277700  -0.031   5.385  17.254  0.9044 -0.7790  0.8141
18737TIP3   OH277701   6.201   1.958  13.498  0.3234 -0.4637  0.6272
18737TIP3    H177702   6.149   2.038  13.495  0.2376 -0.5569 -1.8685
18737TIP3    H277703   6.291   1.987  13.484  0.0797 -0.9228 -2.2017
18738TIP3   OH277704   2.181   3.927   5.696  0.4101 -1.0272 -0.3669
18738TIP3    H177705   2.121   3.932   5.770 -0.0781 -0.5499 -0.7891
18738TIP3    H277706   2.138   3.977   5.627 -0.2347 -3.4053 -1.7367
18739TIP3   OH277707   4.558   1.415   6.414  0.4131  0.1283  0.0240
18739TIP3    H177708   4.532   1.323   6.412  0.9584 -0.0274 -0.0663
18739TIP3    H277709   4.526   1.451   6.332  0.1123  0.0428  0.1032
18740TIP3   OH277710   1.464   6.786  11.077 -0.3840 -0.0955  0.0702
18740TIP3    H177711   1.423   6.730  11.143  0.8891 -0.1063  0.8779
18740TIP3    H277712   1.413   6.867  11.079 -1.5172 -0.7917 -0.2806
18741TIP3   OH277713   5.387   4.562  13.230  0.1049 -0.4162  0.1116
18741TIP3    H177714   5.329   4.637  13.218 -1.2989 -1.5647 -0.5396
18741TIP3    H277715   5.459   4.577  13.170 -0.2402  0.3438 -0.1115
18742TIP3   OH277716   2.728   4.128   6.453  0.4087  0.0451 -0.2518
18742TIP3    H177717   2.760   4.133   6.363  0.0937 -0.4205 -0.3904
18742TIP3    H277718   2.770   4.050   6.489 -0.5244 -0.5510 -0.4246
18743TIP3   OH277719   2.577   6.661  14.794  0.2173  0.0010  1.0726
18743TIP3    H177720   2.525   6.584  14.768 -0.3072 -0.0533  2.2570
18743TIP3    H277721   2.551   6.729  14.733 -1.0109 -0.1200  1.4507
18744TIP3   OH277722   4.424   1.503  12.793 -0.3757  0.1107  0.7409
18744TIP3    H177723   4.362   1.432  12.774 -0.8839  0.7960 -0.2426
18744TIP3    H277724   4.510   1.466  12.774 -0.7137  0.0565 -0.7672
18745TIP3   OH277725   0.486   4.688   4.759 -0.0626  0.6151  0.2221
18745TIP3    H177726   0.567   4.661   4.804  0.0463  0.1039 -0.2778
18745TIP3    H277727   0.416   4.655   4.815  0.0614  1.7258  1.0613
18746TIP3   OH277728   6.555   6.405   1.962  0.1728  0.2877 -0.9300
18746TIP3    H177729   6.639   6.385   1.921  1.1941  2.3957  0.0980
18746TIP3    H277730   6.502   6.443   1.892  0.4554 -0.0263 -1.3140
18747TIP3   OH277731   1.569   6.812   0.402 -0.1949  0.3089 -0.3813
18747TIP3    H177732   1.563   6.721   0.375 -1.5708  0.0016  0.8374
18747TIP3    H277733   1.616   6.856   0.331  0.0423 -1.2483 -1.2056
18748TIP3   OH277734   0.725   2.656   0.352 -0.0351  0.0554 -0.0089
18748TIP3    H177735   0.678   2.710   0.416  0.4869  1.4368 -0.7947
18748TIP3    H277736   0.808   2.634   0.396  0.0524  0.4676  0.0285
18749TIP3   OH277737   1.880   6.013  17.162  0.1430  0.5733 -0.9988
18749TIP3    H177738   1.851   5.943  17.104 -0.4779  1.2921 -1.5754
18749TIP3    H277739   1.934   6.069  17.107  1.2446  0.1520 -0.3547
18750TIP3   OH277740   4.954   0.554  11.804 -0.4031 -0.6378 -0.2413
18750TIP3    H177741   4.913   0.522  11.724  0.7984 -1.0881 -0.6700
18750TIP3    H277742   4.889   0.535  11.873 -1.4614 -0.1891 -1.0954
18751TIP3   OH277743   4.046   0.580   2.173  0.2302 -0.2333  0.0445
18751TIP3    H177744   4.112   0.585   2.242  1.0345  0.7069 -0.7710
18751TIP3    H277745   4.046   0.668   2.135  1.5765 -1.3962 -2.7955
18752TIP3   OH277746   1.716   4.154  12.183 -0.0816 -0.4297  0.1288
18752TIP3    H177747   1.805   4.168  12.214 -0.4655 -1.2579  1.6112
18752TIP3    H277748   1.672   4.238  12.197 -0.9181 -1.4378  4.1448
18753TIP3   OH277749   2.790   4.418   1.676 -0.2262 -0.2213  0.2859
18753TIP3    H177750   2.766   4.326   1.670 -0.8621  0.0411 -1.7332
18753TIP3    H277751   2.885   4.419   1.685 -0.0692 -1.0308 -1.2629
18754TIP3   OH277752   4.546   5.224  15.753 -0.1310 -0.4826 -0.4309
18754TIP3    H177753   4.637   5.243  15.776 -0.0277  0.5960 -1.6953
18754TIP3    H277754   4.495   5.254  15.828  0.4201  0.4540 -0.4300
18755TIP3   OH277755   1.335   0.260   2.776 -0.2701  0.3287  0.2857
18755TIP3    H177756   1.280   0.221   2.708 -0.5202 -0.6586  1.0510
18755TIP3    H277757   1.316   0.354   2.770 -1.0352  0.1419 -0.3461
18756TIP3   OH277758   1.988   0.555  15.444  0.4651 -0.2697 -0.3105
18756TIP3    H177759   1.916   0.521  15.498  0.1788  0.4365 -0.2419
18756TIP3    H277760   2.049   0.594  15.507 -0.0164  0.8277 -0.5141
18757TIP3   OH277761   4.518   5.740  17.236 -0.2360 -0.1588 -0.2389
18757TIP3    H177762   4.475   5.740  17.150 -1.4491  0.9872  0.3440
18757TIP3    H277763   4.508   5.651  17.268 -0.8804 -0.2801 -0.7560
18758TIP3   OH277764   3.151   4.484  15.587 -0.6615  0.1825 -0.0239
18758TIP3    H177765   3.065   4.512  15.618 -0.3655 -0.7358  1.6729
18758TIP3    H277766   3.207   4.560  15.597 -1.1037  0.5742 -0.4862
18759TIP3   OH277767   3.377   4.426  15.368  0.3253 -0.3627 -0.0614
18759TIP3    H177768   3.351   4.492  15.432 -0.4198  0.8104 -1.5193
18759TIP3    H277769   3.301   4.366  15.363  1.7588 -2.5130  2.6876
18760TIP3   OH277770   2.741   1.375   5.994  0.1966 -0.2733  0.2853
18760TIP3    H177771   2.701   1.288   5.995 -1.8051  0.6152  0.8812
18760TIP3    H277772   2.759   1.394   6.086  2.1535 -0.7035  0.0167
18761TIP3   OH277773   3.020   6.170   3.486  0.2357  0.2851 -0.2685
18761TIP3    H177774   2.943   6.114   3.477  0.0985  0.1815  1.4765
18761TIP3    H277775   2.990   6.245   3.537  1.3020  0.1911  0.5249
18762TIP3   OH277776   5.407   6.372   6.301  0.5390 -0.7625  0.1438
18762TIP3    H177777   5.420   6.319   6.222 -0.4996 -2.1098  0.8475
18762TIP3    H277778   5.379   6.309   6.368  1.1085  0.3964  1.5143
18763TIP3   OH277779   3.633   1.787  13.835  0.1678 -0.6347 -0.7230
18763TIP3    H177780   3.643   1.764  13.927  0.6101  1.3539 -0.2459
18763TIP3    H277781   3.646   1.705  13.788  0.2943 -1.6002  0.9621
18764TIP3   OH277782   3.758   6.718  14.781  0.3699 -0.1929  0.1179
18764TIP3    H177783   3.672   6.703  14.819  0.0978 -0.9449 -0.7705
18764TIP3    H277784   3.786   6.802  14.816  0.2460 -0.9694  2.1872
18765TIP3   OH277785   2.526   0.960   3.562 -0.0099  0.0737 -0.0867
18765TIP3    H177786   2.565   0.936   3.646  1.8514 -0.3080 -1.0504
18765TIP3    H277787   2.600   0.984   3.507 -1.2588  0.7109 -1.5030
18766TIP3   OH277788   6.433   0.811  11.429  0.0930  0.0495 -0.3113
18766TIP3    H177789   6.421   0.903  11.449  0.8909  0.2028 -0.5507
18766TIP3    H277790   6.474   0.773  11.506  0.8132  0.1244 -0.6563
18767TIP3   OH277791   5.650   4.103  16.859 -0.0778  0.2015 -0.2163
18767TIP3    H177792   5.556   4.088  16.852  0.2710 -1.9225 -0.6120
18767TIP3    H277793   5.668   4.092  16.953  0.1094 -1.5670 -0.4435
18768TIP3   OH277794   5.945   4.626  11.439 -0.1887 -0.5302  0.5726
18768TIP3    H177795   5.933   4.550  11.383 -1.4189 -1.0314  1.4838
18768TIP3    H277796   6.032   4.614  11.478 -0.9369 -2.1819  1.7608
18769TIP3   OH277797   2.333   4.195   5.595  0.1579 -0.2118  0.7087
18769TIP3    H177798   2.402   4.261   5.592  1.5388 -1.4318  3.6575
18769TIP3    H277799   2.252   4.245   5.590  1.1911  1.3713 -1.1246
18770TIP3   OH277800   0.468   5.764   2.877 -0.0598  0.3638  0.0493
18770TIP3    H177801   0.461   5.728   2.966 -1.2216  1.3817  0.3847
18770TIP3    H277802   0.405   5.713   2.827  0.0430  0.3059 -0.0203
18771TIP3   OH277803   5.881   1.342   5.127  0.1484  0.5500  0.4891
18771TIP3    H177804   5.831   1.421   5.147  0.0143  0.2241  1.4476
18771TIP3    H277805   5.917   1.314   5.211 -0.4048 -0.8258  0.2828
18772TIP3   OH277806   3.144   2.771   1.457 -0.3584 -0.1824  0.0497
18772TIP3    H177807   3.092   2.691   1.443 -0.8746  0.2274 -0.3712
18772TIP3    H277808   3.133   2.821   1.377 -1.2606  1.0053  0.8950
18773TIP3   OH277809   1.013   0.881   1.771 -0.5259 -0.2786  0.6302
18773TIP3    H177810   0.964   0.879   1.689  1.0961  0.3036 -0.3629
18773TIP3    H277811   1.076   0.952   1.760 -0.2819 -0.1971  2.3747
18774TIP3   OH277812   4.756   2.380  13.574 -0.2901 -0.0372  0.5159
18774TIP3    H177813   4.726   2.458  13.528  0.6233 -1.9780 -3.6080
18774TIP3    H277814   4.851   2.384  13.567 -0.1050 -0.1753  2.6925
18775TIP3   OH277815   3.880   4.466  15.164  0.1511 -0.0616  0.2963
18775TIP3    H177816   3.876   4.521  15.242  2.4183  2.1023 -1.0345
18775TIP3    H277817   3.843   4.521  15.095  0.0602 -1.1933 -0.5608
18776TIP3   OH277818   0.140   1.201  11.456  0.4718  0.2769 -0.2560
18776TIP3    H177819   0.049   1.229  11.451  0.5054  1.0560  2.5466
18776TIP3    H277820   0.189   1.268  11.409  0.0035  2.1909  1.9024
18777TIP3   OH277821   2.017   5.025   1.469 -0.3574 -0.2273  0.2855
18777TIP3    H177822   2.010   4.961   1.399 -0.4096 -0.1303  0.2029
18777TIP3    H277823   2.045   5.106   1.426 -1.2725  0.0723  0.2458
18778TIP3   OH277824   5.150   2.772  11.473 -0.4653 -0.4523 -0.1964
18778TIP3    H177825   5.058   2.757  11.452 -0.5951 -0.9478  0.6690
18778TIP3    H277826   5.181   2.833  11.407 -0.8013 -2.0985 -1.9297
18779TIP3   OH277827   6.777   0.591  12.454 -0.0285  0.0441  0.1203
18779TIP3    H177828   6.752   0.579  12.546 -0.1921  0.1975  0.0981
18779TIP3    H277829   6.847   0.529  12.439 -0.0439 -0.0249  0.3352
18780TIP3   OH277830   3.298   3.748   3.515 -0.4128 -0.2093 -0.2209
18780TIP3    H177831   3.293   3.823   3.456 -1.9175  0.4976  0.7590
18780TIP3    H277832   3.333   3.785   3.597 -0.8756 -0.6307  0.1706
18781TIP3   OH277833   5.830   5.737   1.111 -0.8004  0.0597  0.0047
18781TIP3    H177834   5.903   5.676   1.119 -2.9021 -2.6859 -0.9257
18781TIP3    H277835   5.870   5.823   1.121  3.0101 -1.1714 -3.1011
18782TIP3   OH277836   5.051   3.421   2.517 -0.2532 -0.2983  0.0741
18782TIP3    H177837   5.132   3.463   2.488 -0.4995 -0.2102 -0.5053
18782TIP3    H277838   4.982   3.482   2.490 -0.8895 -2.5367 -3.7779
18783TIP3   OH277839   3.099   0.726  13.857  0.3438 -0.2390 -0.0605
18783TIP3    H177840   3.061   0.770  13.933  1.4356 -1.3161  1.1306
18783TIP3    H277841   3.028   0.723  13.793 -1.0587 -0.6815  1.4779
18784TIP3   OH277842   3.640   0.313  12.829 -0.4517  0.0778  0.6845
18784TIP3    H177843   3.686   0.231  12.811 -1.6923 -0.7630  1.3775
18784TIP3    H277844   3.665   0.370  12.755 -0.2864 -1.1910 -0.2501
18785TIP3   OH277845   0.172   2.347  12.413  0.7691  0.8814 -0.2043
18785TIP3    H177846   0.134   2.398  12.341  0.1002  1.3421  0.4702
18785TIP3    H277847   0.226   2.281  12.369  1.8639  2.3414 -1.0759
18786TIP3   OH277848   3.083   4.599   3.194  0.1771 -0.1716  0.7598
18786TIP3    H177849   3.136   4.549   3.256 -1.2313 -1.2794  1.0989
18786TIP3    H277850   3.090   4.550   3.112 -0.3995 -0.3796  0.8329
18787TIP3   OH277851   0.473   4.970   1.295  0.3303 -0.6444 -0.3250
18787TIP3    H177852   0.400   4.977   1.234  1.8212 -0.9175 -2.1963
18787TIP3    H277853   0.506   5.059   1.304 -0.9836 -0.3301  1.4811
18788TIP3   OH277854   1.763   2.454   2.349 -0.6573 -0.4522 -0.1466
18788TIP3    H177855   1.822   2.380   2.364 -0.7442 -0.4215  0.3582
18788TIP3    H277856   1.766   2.469   2.254  1.5847  0.7594  0.0995
18789TIP3   OH277857   1.553   4.646  12.172 -0.1896  0.6309  0.1533
18789TIP3    H177858   1.490   4.608  12.111  0.9286 -0.1092 -0.5516
18789TIP3    H277859   1.581   4.727  12.130 -0.8333  1.0782  0.5753
18790TIP3   OH277860   2.729   1.636  12.333 -0.0230  0.0830  0.2196
18790TIP3    H177861   2.715   1.573  12.263  0.1791 -2.0932  2.0774
18790TIP3    H277862   2.751   1.718  12.288  1.7925 -1.6647 -2.1804
18791TIP3   OH277863   0.061   2.576  12.754 -0.0601  0.3892  0.4936
18791TIP3    H177864   0.087   2.595  12.663  0.8999 -0.3901  0.6019
18791TIP3    H277865   0.108   2.496  12.776 -1.9194 -0.5852  0.9823
18792TIP3   OH277866   3.182   3.830  12.309 -0.5137 -0.2758  0.0270
18792TIP3    H177867   3.250   3.801  12.369  0.9020 -1.9629 -2.3211
18792TIP3    H277868   3.209   3.918  12.283  0.2499 -0.5604 -0.1545
18793TIP3   OH277869   6.736   1.008  15.971  0.1504  0.0373 -0.2178
18793TIP3    H177870   6.685   1.075  16.017  0.3991  1.3239 -1.7921
18793TIP3    H277871   6.762   0.947  16.040 -2.4216  0.0595  0.8139
18794TIP3   OH277872   4.400   3.648  12.125  0.1462  0.2747 -0.0171
18794TIP3    H177873   4.492   3.672  12.130  0.1048  0.3732  0.2725
18794TIP3    H277874   4.389   3.613  12.037  0.2450  1.1485 -0.3813
18795TIP3   OH277875   5.918   1.494   0.854  0.1881  0.3008  0.8007
18795TIP3    H177876   5.949   1.448   0.776  0.5247  0.7962  0.6406
18795TIP3    H277877   5.947   1.584   0.842 -0.1518  0.4774  1.2872
18796TIP3   OH277878   3.502   4.806   4.928  0.4564 -0.0626  0.2964
18796TIP3    H177879   3.574   4.746   4.908  0.4622  0.0965 -0.1481
18796TIP3    H277880   3.537   4.892   4.908 -0.5282 -0.1292 -1.8280
18797TIP3   OH277881   2.791   2.538   1.876  0.1172 -0.9006  0.0068
18797TIP3    H177882   2.772   2.582   1.960 -1.7012 -0.8422 -0.4350
18797TIP3    H277883   2.773   2.446   1.893  0.3439 -0.9726 -0.1493
18798TIP3   OH277884   5.202   0.177   1.448  0.2001  0.7032  0.4920
18798TIP3    H177885   5.158   0.262   1.443  1.8047  1.4609 -1.4270
18798TIP3    H277886   5.269   0.189   1.515  1.1285  1.3254 -0.5212
18799TIP3   OH277887   2.615   2.479  14.611 -0.2431  0.3041  0.6728
18799TIP3    H177888   2.608   2.409  14.545 -0.6799  0.7681  0.2261
18799TIP3    H277889   2.642   2.556  14.561 -2.4291  1.1284  0.7236
18800TIP3   OH277890   1.433   0.154  13.776  0.0569  0.1524 -0.0649
18800TIP3    H177891   1.529   0.156  13.772  0.0408 -1.4633 -3.1296
18800TIP3    H277892   1.405   0.233  13.729 -0.0775 -0.2646 -0.7032
18801TIP3   OH277893   1.187   6.326   3.824  0.1279  0.4028  0.2863
18801TIP3    H177894   1.194   6.286   3.737 -1.4216  0.0931  0.2848
18801TIP3    H277895   1.114   6.387   3.816 -1.4457 -1.1756  1.9162
18802TIP3   OH277896   2.520   1.986   1.699  0.1489  0.2732  0.2747
18802TIP3    H177897   2.441   2.002   1.750  0.6579 -0.2143  1.2233
18802TIP3    H277898   2.573   2.065   1.713 -0.7446  1.2325 -1.4954
18803TIP3   OH277899   6.640   1.014  11.878  0.1162 -0.4281  0.1210
18803TIP3    H177900   6.628   1.106  11.857  1.1104 -0.5608 -1.0394
18803TIP3    H277901   6.670   0.974  11.796  0.6133 -1.6050  0.8632
18804TIP3   OH277902   4.539   0.408  16.212 -0.6261  0.2002  0.5948
18804TIP3    H177903   4.586   0.433  16.291  0.2489 -2.7249  1.0852
18804TIP3    H277904   4.457   0.371  16.245 -0.9224  0.3687  0.0439
18805TIP3   OH277905   1.571   3.957  17.014  0.0637 -0.0569  0.2720
18805TIP3    H177906   1.488   3.945  17.060  0.9296 -1.2474  1.5690
18805TIP3    H277907   1.554   4.028  16.952 -2.3954 -1.3979 -0.6574
18806TIP3   OH277908   2.095   3.417   4.008 -0.0799 -0.0281 -0.0709
18806TIP3    H177909   2.134   3.371   4.082  0.1424 -3.2058 -2.1110
18806TIP3    H277910   2.002   3.421   4.028  0.2455  0.9286  1.2995
18807TIP3   OH277911   3.383   1.266  10.730  0.6870 -0.0298  0.1876
18807TIP3    H177912   3.339   1.343  10.694 -0.5359 -0.0194  1.6559
18807TIP3    H277913   3.345   1.192  10.684  1.1514  0.1671 -0.5211
18808TIP3   OH277914   1.427   3.276  14.396 -0.1178  0.1291  0.0454
18808TIP3    H177915   1.334   3.277  14.420  0.1359 -0.3214  1.0931
18808TIP3    H277916   1.455   3.367  14.403 -0.6519  0.3861 -1.0027
18809TIP3   OH277917   2.388   0.470   2.523 -0.5846  0.5142 -1.1967
18809TIP3    H177918   2.333   0.417   2.465  1.8794 -1.9153 -1.4248
18809TIP3    H277919   2.397   0.416   2.602 -0.1077  1.7435 -0.4086
18810TIP3   OH277920   4.078   0.303  12.645 -0.0544 -0.0266 -0.4053
18810TIP3    H177921   4.143   0.276  12.709  0.6888  5.4659  1.4397
18810TIP3    H277922   3.997   0.260  12.674  0.9274 -0.0509  2.4758
18811TIP3   OH277923   6.308   0.273  14.796 -0.0082 -0.2043 -0.1481
18811TIP3    H177924   6.290   0.246  14.706 -1.4815 -0.4480  0.2077
18811TIP3    H277925   6.267   0.205  14.850  0.4118  0.2130  0.7071
18812TIP3   OH277926   0.848   0.597   0.299  0.0110 -0.5271 -0.2695
18812TIP3    H177927   0.851   0.658   0.372 -0.3283  0.3861 -1.0033
18812TIP3    H277928   0.756   0.572   0.291  0.1115 -0.9427 -0.1211
18813TIP3   OH277929   4.421   2.281  13.219  0.1161 -0.1325 -0.6111
18813TIP3    H177930   4.413   2.216  13.149 -0.2289 -0.3115 -0.4050
18813TIP3    H277931   4.496   2.334  13.194 -0.6767  0.5007 -1.7020
18814TIP3   OH277932   3.780   1.906  14.773 -0.1376  0.3280 -0.0717
18814TIP3    H177933   3.803   1.814  14.762  3.2244  0.8614  1.7574
18814TIP3    H277934   3.764   1.938  14.684  1.6770 -1.3281 -1.0340
18815TIP3   OH277935   3.468   2.764   1.775  0.2988 -0.2758 -0.3591
18815TIP3    H177936   3.508   2.784   1.690  1.1194 -1.7322 -0.3275
18815TIP3    H277937   3.390   2.712   1.752 -0.4756  0.8338 -0.3035
18816TIP3   OH277938   4.836   5.211   3.620 -0.4691 -0.1437  0.1924
18816TIP3    H177939   4.826   5.126   3.576  1.2557 -0.5374  0.5247
18816TIP3    H277940   4.924   5.239   3.598 -0.7700  1.2285  0.7045
18817TIP3   OH277941   3.666   5.513  12.327 -0.0546  0.1414  0.0204
18817TIP3    H177942   3.617   5.594  12.312  2.2470  1.3438 -1.1981
18817TIP3    H277943   3.721   5.533  12.403  2.4820  0.6751 -1.9087
18818TIP3   OH277944   6.092   4.082   0.421  0.2043 -0.0645 -0.0487
18818TIP3    H177945   6.071   4.005   0.473  0.0554  0.5261  0.7838
18818TIP3    H277946   6.009   4.129   0.415  0.6544  0.8709  0.8749
18819TIP3   OH277947   0.617   2.415   6.584  0.1816 -0.3881 -0.2896
18819TIP3    H177948   0.687   2.474   6.556 -0.0289 -0.2108 -0.4439
18819TIP3    H277949   0.589   2.450   6.669  2.0291 -1.9594  1.0132
18820TIP3   OH277950   6.518   0.841   3.180  0.5705  0.0969  0.5253
18820TIP3    H177951   6.511   0.746   3.192  0.7104 -0.0841 -0.7970
18820TIP3    H277952   6.464   0.859   3.103  0.0668  1.1739  1.1246
18821TIP3   OH277953   5.461   1.387   4.745  0.6089 -0.0294  0.2241
18821TIP3    H177954   5.553   1.390   4.772  1.2190  1.9291 -1.9532
18821TIP3    H277955   5.435   1.479   4.739 -1.9558 -0.5635  2.2556
18822TIP3   OH277956   4.450   2.872  13.747 -0.1725 -0.0378 -0.4155
18822TIP3    H177957   4.387   2.885  13.818  0.6236  0.0858  0.2753
18822TIP3    H277958   4.401   2.825  13.680 -1.0358  0.1695  0.0612
18823TIP3   OH277959   3.458   1.635  12.237 -0.1264 -0.1955 -0.0595
18823TIP3    H177960   3.392   1.571  12.212 -0.4360 -0.1216  0.5772
18823TIP3    H277961   3.408   1.712  12.264  0.2059 -0.2738  0.8012
18824TIP3   OH277962   2.084   1.805   1.574  0.0916  0.4065 -0.2749
18824TIP3    H177963   2.121   1.799   1.662  0.4087  1.0722 -0.3563
18824TIP3    H277964   2.159   1.791   1.516 -0.0436  0.3506 -0.4367
18825TIP3   OH277965   5.593   5.925  14.352  0.5802  0.0838 -0.1976
18825TIP3    H177966   5.653   5.925  14.277  0.7305 -2.1718 -0.1121
18825TIP3    H277967   5.642   5.881  14.422 -0.1380  0.7587  0.7415
18826TIP3   OH277968   4.414   0.123  12.210  0.2503 -0.3824  0.0322
18826TIP3    H177969   4.350   0.194  12.204 -0.7892 -1.3168 -0.0284
18826TIP3    H277970   4.467   0.145  12.287 -0.9698 -0.2778  0.8484
18827TIP3   OH277971   3.842   4.097  13.152  0.1479 -0.2478  0.2358
18827TIP3    H177972   3.937   4.087  13.147  0.0622 -1.3549  0.7413
18827TIP3    H277973   3.830   4.171  13.212  0.6908  0.0910 -0.0606
18828TIP3   OH277974   4.349   0.164  13.323 -0.4174  0.0015 -0.2335
18828TIP3    H177975   4.362   0.256  13.344  1.5130 -0.7813  2.2344
18828TIP3    H277976   4.263   0.143  13.360 -0.1320  0.3927  0.6552
18829TIP3   OH277977   4.004   5.730   2.170 -0.0928  0.6358 -0.2538
18829TIP3    H177978   4.019   5.792   2.242  0.6050 -1.1571  1.1724
18829TIP3    H277979   4.045   5.771   2.094  0.6986  1.7445  0.7608
18830TIP3   OH277980   3.809   1.868   0.784  0.3819 -0.6002  0.1779
18830TIP3    H177981   3.852   1.860   0.699 -1.2129  0.3907 -0.7536
18830TIP3    H277982   3.843   1.795   0.836 -0.3408 -2.5656 -2.0513
18831TIP3   OH277983   5.213   6.765  14.148 -0.2067 -0.0276  0.1380
18831TIP3    H177984   5.260   6.845  14.125 -1.1994  0.5080 -0.0390
18831TIP3    H277985   5.276   6.695  14.130 -0.1187  0.5416 -1.9153
18832TIP3   OH277986   5.213   6.736   3.675 -0.2862 -0.0566  0.6746
18832TIP3    H177987   5.233   6.798   3.605  1.5322 -2.2522 -0.8179
18832TIP3    H277988   5.162   6.667   3.633 -1.5738 -0.0038  2.1302
18833TIP3   OH277989   3.572   1.624   2.736  0.3946  0.4505  0.1631
18833TIP3    H177990   3.570   1.709   2.690  0.2208 -0.9149 -2.4430
18833TIP3    H277991   3.660   1.591   2.720  0.5369  0.2229  1.3720
18834TIP3   OH277992   1.361   1.268  11.446 -0.2189  0.1421  0.3196
18834TIP3    H177993   1.369   1.243  11.538 -1.7040 -2.2478 -0.1488
18834TIP3    H277994   1.421   1.210  11.400  0.5837  1.3896 -0.2443
18835TIP3   OH277995   6.340   1.422   4.641 -0.0935  0.1279  0.5248
18835TIP3    H177996   6.393   1.356   4.685  2.2607  1.6561  0.0934
18835TIP3    H277997   6.378   1.428   4.553 -0.6288  1.6150  0.3837
18836TIP3   OH277998   4.973   2.549   2.323  0.0176 -0.4332 -0.8876
18836TIP3    H177999   5.041   2.616   2.317  0.5091 -0.8883 -0.5026
18836TIP3    H278000   5.012   2.481   2.379 -0.5032 -0.9982 -1.2071
18837TIP3   OH278001   6.625   5.896   0.737 -0.5230  0.7253 -0.1179
18837TIP3    H178002   6.643   5.819   0.682 -1.5535  1.9667 -2.2491
18837TIP3    H278003   6.704   5.949   0.729 -0.6793  0.9134 -0.4045
18838TIP3   OH278004   6.631   1.848   3.290 -0.2764  0.1526  0.0219
18838TIP3    H178005   6.723   1.856   3.266 -0.8800 -0.7584 -2.8067
18838TIP3    H278006   6.590   1.929   3.259 -0.8830 -0.6053 -1.2266
18839TIP3   OH278007   2.815   6.341  12.723 -0.3933 -0.3762  0.4718
18839TIP3    H178008   2.891   6.384  12.762 -0.6506 -0.8795  1.5518
18839TIP3    H278009   2.741   6.397  12.746 -0.7252 -1.3477  1.8547
18840TIP3   OH278010   1.312   3.780   3.379 -0.1589  0.4191  1.0322
18840TIP3    H178011   1.252   3.706   3.375 -0.8451  1.0283 -0.3077
18840TIP3    H278012   1.301   3.815   3.467 -0.7963 -0.2846  1.2319
18841TIP3   OH278013   1.246   6.378   2.158  0.4217 -0.3484  0.1850
18841TIP3    H178014   1.313   6.366   2.090  1.0897 -3.0572  1.2508
18841TIP3    H278015   1.190   6.300   2.150 -0.3414  0.0275  1.7842
18842TIP3   OH278016   5.235   1.202   5.584 -0.7948 -0.0794  0.0173
18842TIP3    H178017   5.237   1.124   5.529  1.3186  0.5040 -0.8161
18842TIP3    H278018   5.235   1.275   5.522  2.7198  0.6016  0.6913
18843TIP3   OH278019   1.717   0.510  16.357  0.2347  0.1270 -0.0256
18843TIP3    H178020   1.686   0.482  16.271 -0.0193  0.9825 -0.2134
18843TIP3    H278021   1.793   0.454  16.374 -0.6528 -1.1309 -0.1018
18844TIP3   OH278022   3.293   0.467   4.777  0.4254  0.3320 -0.5632
18844TIP3    H178023   3.381   0.492   4.803  0.3735  2.5053 -2.3341
18844TIP3    H278024   3.238   0.540   4.805 -0.4598  0.0636 -1.5751
18845TIP3   OH278025   4.468   5.058  12.613 -0.0347  0.6354 -0.3872
18845TIP3    H178026   4.380   5.045  12.578  1.0868 -1.4093 -2.5635
18845TIP3    H278027   4.492   5.146  12.583 -1.6179  1.5835  0.9798
18846TIP3   OH278028   4.987   4.365   0.577 -0.3832 -0.0377  0.2809
18846TIP3    H178029   4.978   4.379   0.483  1.5522  0.3904  0.1364
18846TIP3    H278030   4.940   4.283   0.593  0.9852 -1.1941 -1.4113
18847TIP3   OH278031   1.318   2.122   1.045  0.2382 -0.6082  0.0162
18847TIP3    H178032   1.387   2.138   1.109 -0.6492 -1.0030  1.0862
18847TIP3    H278033   1.345   2.172   0.968  0.6801  0.9154  1.1289
18848TIP3   OH278034   4.423   3.385   4.049 -0.3850  0.4333  0.6326
18848TIP3    H178035   4.429   3.324   4.123 -0.7478 -1.2837 -0.7134
18848TIP3    H278036   4.509   3.381   4.007 -0.5741  0.4602  0.2420
18849TIP3   OH278037   2.384   0.651   3.719  0.1926 -0.3006 -0.2058
18849TIP3    H178038   2.468   0.688   3.693  1.3946 -3.3742 -0.8718
18849TIP3    H278039   2.358   0.596   3.645 -0.8185 -1.9430  1.3330
18850TIP3   OH278040   1.600   0.857   2.003  0.5867 -0.0044 -0.3886
18850TIP3    H178041   1.619   0.771   1.966  1.0780 -0.2148  0.3430
18850TIP3    H278042   1.601   0.843   2.097  1.6415  1.0114 -0.2489
18851TIP3   OH278043   5.945   3.248   0.310  0.2163 -0.3814  0.4789
18851TIP3    H178044   5.912   3.159   0.296  0.1402  0.0339 -2.2044
18851TIP3    H278045   6.039   3.241   0.296  0.2940 -0.1263  0.8505
18852TIP3   OH278046   2.853   2.035   5.900 -0.0647 -0.0124  0.0426
18852TIP3    H178047   2.893   2.119   5.922  0.3043 -0.0938 -0.3097
18852TIP3    H278048   2.834   1.995   5.985 -0.3068  0.4550  0.2107
18853TIP3   OH278049   3.465   4.921  10.489 -0.5813  0.3298  0.0726
18853TIP3    H178050   3.430   4.877  10.566  0.6535  1.2428  1.1790
18853TIP3    H278051   3.402   4.990  10.469 -0.9416  0.0402  0.2095
18854TIP3   OH278052   4.040   3.936  16.823  0.2371 -0.5715  0.0048
18854TIP3    H178053   4.112   3.997  16.836 -0.5073  1.0693 -3.1618
18854TIP3    H278054   4.065   3.884  16.747 -2.1635  0.5276 -1.6200
18855TIP3   OH278055   6.049   1.948  14.872 -0.9557 -0.0254  0.5983
18855TIP3    H178056   6.000   1.892  14.812 -0.9272 -0.4829  1.0050
18855TIP3    H278057   6.086   1.888  14.936  1.9677  0.0537 -0.9282
18856TIP3   OH278058   6.735   1.399  12.705  0.4584 -0.3010 -0.1388
18856TIP3    H178059   6.772   1.391  12.793  0.2523 -1.0426 -0.1151
18856TIP3    H278060   6.810   1.418  12.649  1.0521 -2.7484 -0.2444
18857TIP3   OH278061   3.091   0.011  15.884  0.4650  0.1408 -0.4605
18857TIP3    H178062   3.118   0.102  15.873  0.3522  0.2850  0.4545
18857TIP3    H278063   3.089  -0.024  15.795 -0.6811  1.3672 -0.9224
18858TIP3   OH278064   6.529   1.885  14.581 -0.3456 -0.3782 -0.3282
18858TIP3    H178065   6.449   1.881  14.632  1.0410  0.2590  1.9741
18858TIP3    H278066   6.579   1.958  14.619  0.1131  1.0681 -3.5598
18859TIP3   OH278067   2.091   5.508   5.719  0.1839 -0.5343 -0.1581
18859TIP3    H178068   2.107   5.421   5.755  0.3640 -0.8592 -1.0171
18859TIP3    H278069   2.015   5.497   5.661  0.6138 -0.2642 -0.7826
18860TIP3   OH278070   2.261   2.177  12.722 -0.0522  0.2202 -0.1200
18860TIP3    H178071   2.316   2.099  12.717 -0.6420 -0.2445  0.5573
18860TIP3    H278072   2.221   2.183  12.635  0.7309  0.3069 -0.4709
18861TIP3   OH278073   6.167   3.484  11.879 -0.7836  0.4482 -0.2181
18861TIP3    H178074   6.251   3.441  11.867 -0.8971  0.2995 -0.4905
18861TIP3    H278075   6.162   3.501  11.973 -0.1067  1.1687 -0.3150
18862TIP3   OH278076   0.393   2.651  12.116 -0.1356 -0.0825  0.0479
18862TIP3    H178077   0.357   2.705  12.186  0.3488  0.2985  0.0129
18862TIP3    H278078   0.319   2.631  12.059 -0.2262  1.0069 -0.2332
18863TIP3   OH278079   1.399   5.336   1.902  0.4185  0.1009 -0.3504
18863TIP3    H178080   1.492   5.341   1.925 -0.3828 -1.0647  3.3919
18863TIP3    H278081   1.382   5.242   1.891 -0.4411  0.2716 -0.4957
18864TIP3   OH278082   3.139   5.772  16.733  0.1266  0.2763  0.6881
18864TIP3    H178083   3.131   5.756  16.639 -1.0799  0.1043  0.8130
18864TIP3    H278084   3.143   5.867  16.741 -1.5240  0.3571  0.5894
18865TIP3   OH278085   5.339   0.750   4.260 -1.4032  0.3663 -0.7910
18865TIP3    H178086   5.291   0.833   4.265 -0.4191  1.0384 -1.8810
18865TIP3    H278087   5.418   0.773   4.210 -0.1283 -0.7762  0.6813
18866TIP3   OH278088   0.515   4.681  16.185 -0.3266 -0.4827 -0.1998
18866TIP3    H178089   0.549   4.695  16.097 -1.1527 -0.5789 -0.5440
18866TIP3    H278090   0.537   4.590  16.205 -0.6366 -0.6296 -0.5314
18867TIP3   OH278091   1.994   2.998   2.117 -0.1585  0.5649  0.1037
18867TIP3    H178092   1.921   2.955   2.072  1.0631 -0.3902 -0.9964
18867TIP3    H278093   1.993   3.087   2.083  0.2619  0.0702 -1.2480
18868TIP3   OH278094   6.675   6.220  16.230  0.0242 -0.0457  0.9415
18868TIP3    H178095   6.677   6.139  16.179  1.4868  1.6058 -1.6845
18868TIP3    H278096   6.767   6.242  16.245 -0.3243  1.9103  0.3360
18869TIP3   OH278097   0.552   1.853  11.221  0.1829 -0.3188 -0.1231
18869TIP3    H178098   0.459   1.850  11.196  0.9858 -1.9307 -3.0654
18869TIP3    H278099   0.562   1.937  11.266 -3.0388 -0.8373  1.7542
18870TIP3   OH278100   5.983   6.579  13.997  0.3554  0.1928  0.2637
18870TIP3    H178101   6.071   6.569  13.960  0.6694  1.5678  0.6371
18870TIP3    H278102   5.970   6.674  14.004 -1.3765  0.0294 -0.3228
18871TIP3   OH278103   4.848   0.052   4.864 -0.0263  0.1222  0.0013
18871TIP3    H178104   4.938   0.018   4.864 -0.1575 -0.2291  0.7037
18871TIP3    H278105   4.806   0.009   4.938 -0.5305  0.9356  0.1998
18872TIP3   OH278106   6.349   4.325  16.049 -0.5402  0.0203  0.2762
18872TIP3    H178107   6.321   4.383  15.978 -1.8774 -0.6240  0.2745
18872TIP3    H278108   6.423   4.371  16.090  1.0610 -0.1475 -2.2940
18873TIP3   OH278109   1.259   4.800  16.566 -0.6219  0.4681 -0.0221
18873TIP3    H178110   1.206   4.722  16.581  1.1891 -1.0282 -1.1126
18873TIP3    H278111   1.198   4.865  16.533 -2.1652 -0.4831  0.8978
18874TIP3   OH278112   4.138   2.454   5.376 -0.3461  0.0490 -0.0772
18874TIP3    H178113   4.062   2.416   5.420 -1.0668  1.1293 -0.3615
18874TIP3    H278114   4.116   2.450   5.283 -0.6856  1.6692 -0.0802
18875TIP3   OH278115   3.533   6.390   1.937  0.8697 -0.4174 -0.0687
18875TIP3    H178116   3.612   6.433   1.905  0.9550 -0.2798  0.3288
18875TIP3    H278117   3.518   6.429   2.023 -0.5407  0.7602 -0.8112
18876TIP3   OH278118   2.937   4.448   2.972 -0.8164 -0.0445  0.3260
18876TIP3    H178119   3.029   4.472   2.958 -1.0841  1.2894  0.7642
18876TIP3    H278120   2.941   4.364   3.019  0.2378  0.9681  2.1154
18877TIP3   OH278121   5.759   1.451  13.369 -0.2792 -0.0028 -0.7124
18877TIP3    H178122   5.767   1.543  13.393 -1.4805 -0.1084  0.1082
18877TIP3    H278123   5.731   1.407  13.449 -1.3495 -0.8213 -1.5209
18878TIP3   OH278124   4.663   3.105  14.858 -0.3329  0.2344 -0.1793
18878TIP3    H178125   4.596   3.063  14.912 -0.1611 -1.5748 -1.3510
18878TIP3    H278126   4.619   3.124  14.775 -0.0650  1.3072 -0.0908
18879TIP3   OH278127   6.543   2.626   4.740  0.0105  0.8523  0.1188
18879TIP3    H178128   6.519   2.719   4.738 -0.3943  0.7157 -1.7246
18879TIP3    H278129   6.489   2.589   4.810  1.8556  2.4303  2.5014
18880TIP3   OH278130   1.352   1.540   0.245  0.7948 -0.6048  0.3262
18880TIP3    H178131   1.430   1.486   0.232  0.4796 -1.4197  1.7286
18880TIP3    H278132   1.282   1.477   0.266  0.3432  0.3067  1.6082
18881TIP3   OH278133   0.114   3.491   0.168 -0.3312 -0.2359 -0.5085
18881TIP3    H178134   0.078   3.530   0.088 -0.3619  1.6644  0.4121
18881TIP3    H278135   0.079   3.402   0.168  1.2319 -0.9473 -3.6047
18882TIP3   OH278136   4.830   5.613   1.755 -0.1502  0.2180 -0.1128
18882TIP3    H178137   4.879   5.659   1.687  0.3483  0.6234  0.5153
18882TIP3    H278138   4.743   5.601   1.718 -0.0672  1.0144 -0.5749
18883TIP3   OH278139   0.768   4.226   3.751 -0.1342 -0.5172 -0.3077
18883TIP3    H178140   0.700   4.200   3.689 -0.9175  0.9745 -0.1080
18883TIP3    H278141   0.728   4.212   3.837 -0.5204  1.1564 -0.1953
18884TIP3   OH278142   5.266   5.857  16.530  0.2404 -0.0917 -0.2692
18884TIP3    H178143   5.302   5.931  16.481 -0.5225  0.4801  0.0214
18884TIP3    H278144   5.214   5.809  16.465  0.7119 -0.3576 -0.4508
18885TIP3   OH278145   5.395   5.027  11.585  0.0365 -0.0839 -0.7098
18885TIP3    H178146   5.435   5.114  11.582 -0.7203  0.3709  1.4053
18885TIP3    H278147   5.301   5.044  11.594 -0.1567 -1.1314 -0.7361
18886TIP3   OH278148   3.920   4.642  16.100  0.0889 -0.3182  0.3618
18886TIP3    H178149   3.862   4.625  16.025  1.9207  0.5829 -1.3197
18886TIP3    H278150   3.862   4.675  16.169 -1.3286  1.0107 -1.4185
18887TIP3   OH278151   0.219   3.624   5.339  0.5765 -0.3172 -0.5398
18887TIP3    H178152   0.158   3.696   5.357  0.2779 -0.5236 -0.7173
18887TIP3    H278153   0.301   3.651   5.381  1.0442  1.0146 -2.2317
18888TIP3   OH278154   2.916   4.015  17.231 -0.1342  0.9040 -0.1743
18888TIP3    H178155   2.983   4.036  17.166 -0.7492  2.5333 -0.3061
18888TIP3    H278156   2.941   3.928  17.264  1.3238  0.9516 -1.1094
18889TIP3   OH278157   5.727   3.456   5.243  0.2153  0.6245 -0.1074
18889TIP3    H178158   5.703   3.484   5.154 -1.8589  0.8162  0.4775
18889TIP3    H278159   5.733   3.538   5.292  0.2746  0.4463  0.1771
18890TIP3   OH278160   1.917   5.643  13.011  0.1907  0.9353 -0.7879
18890TIP3    H178161   1.863   5.716  13.040 -0.4698  0.6468 -1.2770
18890TIP3    H278162   1.855   5.571  12.998  0.9979 -0.0905  0.9109
18891TIP3   OH278163   2.610   4.654   6.390  0.0616  0.5717 -0.1077
18891TIP3    H178164   2.568   4.706   6.459  0.1006  0.9265 -0.3476
18891TIP3    H278165   2.635   4.573   6.433  1.3596  1.3549  0.6573
18892TIP3   OH278166   4.287   0.942  16.619 -0.5674  0.5593 -0.6306
18892TIP3    H178167   4.273   0.894  16.537 -1.1326  0.4332 -0.4599
18892TIP3    H278168   4.208   0.925  16.671  0.1762 -0.0872  0.2988
18893TIP3   OH278169   0.921   5.653   4.789  0.0539  0.3916 -0.5935
18893TIP3    H178170   0.845   5.706   4.764 -0.3607 -0.0125 -0.2213
18893TIP3    H278171   0.994   5.714   4.788 -0.7309  1.4178  1.6692
18894TIP3   OH278172   0.324   1.340  12.608  0.0724 -0.2674  0.0497
18894TIP3    H178173   0.377   1.416  12.585  0.3177 -0.4758 -0.0842
18894TIP3    H278174   0.249   1.343  12.549 -0.0464  0.0086  0.2155
18895TIP3   OH278175   4.175   0.742   6.353  0.0834 -0.0816 -0.3504
18895TIP3    H178176   4.268   0.747   6.379 -0.7831  7.0230  2.5514
18895TIP3    H278177   4.171   0.789   6.270 -0.8825 -0.6351 -0.6168
18896TIP3   OH278178   4.843   6.048   4.636  0.1185  0.4359  0.7620
18896TIP3    H178179   4.908   6.103   4.592 -0.6690  0.1716 -0.7518
18896TIP3    H278180   4.890   6.011   4.711  2.1898 -1.0026 -1.1863
18897TIP3   OH278181   4.704   6.659  16.321 -0.0707 -0.4398 -0.0017
18897TIP3    H178182   4.692   6.622  16.408 -2.1216 -2.0041 -0.8970
18897TIP3    H278183   4.644   6.734  16.318  0.7275  0.2158  0.2592
18898TIP3   OH278184   6.358   0.728   6.210 -0.1596 -0.3543  0.2008
18898TIP3    H178185   6.441   0.686   6.187 -0.9491 -2.5420  1.1918
18898TIP3    H278186   6.347   0.797   6.145  0.7251 -2.3069 -2.1021
18899TIP3   OH278187   0.184   2.384   2.776  0.0996 -0.5259 -0.6030
18899TIP3    H178188   0.191   2.470   2.733 -1.5432  0.2467  0.6204
18899TIP3    H278189   0.207   2.401   2.867  2.8566 -2.0206 -0.9725
18900TIP3   OH278190   3.259   1.520  13.058  0.5700  0.2512 -0.6685
18900TIP3    H178191   3.315   1.468  13.115  0.6461  0.1963 -0.7910
18900TIP3    H278192   3.181   1.465  13.045  1.1362 -0.3314 -1.7097
18901TIP3   OH278193   1.610   6.732  16.787 -0.5536  0.1651 -0.7244
18901TIP3    H178194   1.695   6.693  16.763 -0.5308 -0.2882  0.0637
18901TIP3    H278195   1.632   6.820  16.817  0.0090 -0.9179  2.2077
18902TIP3   OH278196   5.486   1.862   5.638 -0.0437  0.2454 -0.0923
18902TIP3    H178197   5.542   1.884   5.563 -1.5612  1.6947 -0.8423
18902TIP3    H278198   5.504   1.931   5.702 -0.0562  0.0153  0.1566
18903TIP3   OH278199   3.261   2.897  16.950 -0.1154  0.4650 -0.1749
18903TIP3    H178200   3.281   2.941  16.868 -1.6498 -2.0571 -1.9728
18903TIP3    H278201   3.181   2.940  16.981 -1.5943 -0.9260 -1.9066
18904TIP3   OH278202   1.366   5.565  15.314  0.2857  0.2508 -0.2627
18904TIP3    H178203   1.420   5.642  15.300  0.2746  0.4112  0.5392
18904TIP3    H278204   1.352   5.563  15.409 -2.4282  1.0859 -0.6165
18905TIP3   OH278205   3.371   6.179  13.053  0.2623 -0.7998 -0.3183
18905TIP3    H178206   3.421   6.256  13.081 -0.4433 -1.0535  1.6975
18905TIP3    H278207   3.437   6.111  13.040  0.8125 -0.0891 -1.4218
18906TIP3   OH278208   5.258   2.564  13.970  0.6971  0.1564  0.5565
18906TIP3    H178209   5.301   2.644  13.938 -0.6220  0.4234 -0.6060
18906TIP3    H278210   5.330   2.506  13.992  1.6741  1.2389  0.2817
18907TIP3   OH278211   1.810   6.357  13.948  0.5041  0.0723  0.0336
18907TIP3    H178212   1.728   6.345  13.995 -0.8314  0.5638 -2.0720
18907TIP3    H278213   1.832   6.449  13.961  0.5860  0.0037  0.3832
18908TIP3   OH278214   3.053   5.294   2.184 -0.1922  0.2184  0.3266
18908TIP3    H178215   3.069   5.201   2.198  0.1267  0.2711  0.3058
18908TIP3    H278216   3.136   5.336   2.202 -0.2508  0.4676  0.0234
18909TIP3   OH278217   3.693   6.482   3.309 -0.2518  0.1713  0.1998
18909TIP3    H178218   3.680   6.395   3.271 -1.3388 -0.6165  2.3191
18909TIP3    H278219   3.653   6.542   3.246  0.6698 -0.8110 -1.3688
18910TIP3   OH278220   4.984   2.797  10.899 -0.0629 -0.0064  0.0658
18910TIP3    H178221   4.910   2.857  10.892  0.3416  0.6665  1.3434
18910TIP3    H278222   4.956   2.732  10.964  0.4909  0.2979  0.6122
18911TIP3   OH278223   2.924   5.397  16.480 -0.2732  0.4259  0.5441
18911TIP3    H178224   2.883   5.484  16.489  0.2330  1.0089 -2.2473
18911TIP3    H278225   3.018   5.414  16.488 -0.1426  0.2249 -0.4852
18912TIP3   OH278226   1.135   2.915   2.514 -0.2323 -0.0573 -0.0971
18912TIP3    H178227   1.077   2.977   2.469 -0.7953 -0.0001  0.6958
18912TIP3    H278228   1.111   2.923   2.606  1.4854  0.4462  0.3353
18913TIP3   OH278229   1.506   3.238   3.891 -0.1285 -0.9617  0.0584
18913TIP3    H178230   1.577   3.199   3.941  1.3367  0.7483 -0.6447
18913TIP3    H278231   1.485   3.319   3.939  0.3706 -0.0039 -1.3180
18914TIP3   OH278232   5.283   0.337   6.417 -0.3665 -0.0598  0.0499
18914TIP3    H178233   5.213   0.400   6.401  0.6676  0.9276 -0.7351
18914TIP3    H278234   5.357   0.391   6.447 -0.3785 -1.2377  2.2722
18915TIP3   OH278235   5.902   2.162   4.142 -0.3584 -0.3381 -0.3928
18915TIP3    H178236   5.914   2.206   4.058  0.3001  0.6678  0.2139
18915TIP3    H278237   5.819   2.196   4.176 -0.0743  0.1053 -0.1333
18916TIP3   OH278238   2.446   1.316  12.071  0.2778  0.1899  0.1123
18916TIP3    H178239   2.357   1.317  12.036 -0.2101  0.0681  1.3268
18916TIP3    H278240   2.443   1.254  12.144  1.4056  0.0355  0.0440
18917TIP3   OH278241   5.668   1.041  12.160 -0.1985  0.5442  0.5062
18917TIP3    H178242   5.735   1.077  12.219  0.6811 -0.2602  0.0164
18917TIP3    H278243   5.714   0.973  12.111 -1.0821  0.8011 -0.6910
18918TIP3   OH278244   6.170   3.470  14.164  0.1189  0.4768 -0.4093
18918TIP3    H178245   6.243   3.528  14.186 -1.3812  2.8433 -1.4811
18918TIP3    H278246   6.187   3.390  14.215  0.6945  2.9196  3.4478
18919TIP3   OH278247   3.705   0.933   6.573  0.0916 -0.2043 -0.4137
18919TIP3    H178248   3.745   1.004   6.624 -0.6089  0.3292 -0.5882
18919TIP3    H278249   3.779   0.884   6.538  0.5844 -0.0895  0.4416
18920TIP3   OH278250   1.854   5.110   3.320  0.0840  0.1215 -0.3521
18920TIP3    H178251   1.855   5.044   3.389 -1.5979 -0.3210 -0.7094
18920TIP3    H278252   1.799   5.181   3.355  0.1543  0.3956 -0.7852
18921TIP3   OH278253   3.993   3.456   4.815  0.3056  0.4474  0.2656
18921TIP3    H178254   3.949   3.389   4.866  0.3115  0.3111  0.0933
18921TIP3    H278255   3.962   3.539   4.852 -1.3319  0.3800 -0.8713
18922TIP3   OH278256   2.775   4.964  13.186  0.4280 -0.2211 -0.1695
18922TIP3    H178257   2.805   4.990  13.099 -2.4483  0.0612 -1.1589
18922TIP3    H278258   2.791   4.869  13.190 -0.7518 -0.5045 -1.6318
18923TIP3   OH278259   3.613   6.384  12.689  0.1310 -0.4423 -0.4765
18923TIP3    H178260   3.524   6.421  12.687  0.3356  0.0217 -2.8066
18923TIP3    H278261   3.601   6.293  12.658  0.6503  0.1462 -2.5175
18924TIP3   OH278262   2.785   5.164  11.855  0.6619  0.2968 -0.1307
18924TIP3    H178263   2.725   5.128  11.920  0.0680  0.3397 -0.6486
18924TIP3    H278264   2.740   5.150  11.771  0.8664  1.3475 -0.4205
18925TIP3   OH278265   0.436   4.401  11.545  0.1137  0.1481 -0.7818
18925TIP3    H178266   0.530   4.395  11.530  0.1671 -1.0244 -0.0236
18925TIP3    H278267   0.424   4.377  11.637 -1.0157 -0.6965 -1.1332
18926TIP3   OH278268   5.419   5.413   4.936  0.1838  0.0253 -0.0538
18926TIP3    H178269   5.474   5.336   4.942  1.5096  0.8922 -0.9321
18926TIP3    H278270   5.468   5.482   4.980  0.0540  0.9289 -1.2757
18927TIP3   OH278271   1.264   3.837  14.674  0.5253  0.3113 -0.0377
18927TIP3    H178272   1.283   3.868  14.585  0.3308 -0.4169 -0.3322
18927TIP3    H278273   1.336   3.777  14.695  0.5685  0.4781  0.2971
18928TIP3   OH278274   1.921   4.703   0.740  0.0921 -0.1988 -0.4634
18928TIP3    H178275   1.948   4.787   0.702 -0.4407  0.0394 -0.3158
18928TIP3    H278276   2.004   4.660   0.764  0.4094 -0.1514 -1.4561
18929TIP3   OH278277   2.648   0.484   5.868 -0.1619  0.3495 -0.3400
18929TIP3    H178278   2.632   0.568   5.910 -0.5194  1.0589 -1.8601
18929TIP3    H278279   2.741   0.468   5.882 -0.1330  0.8976  0.1316
18930TIP3   OH278280   0.185   2.626   3.322  0.3125  0.5368  0.3820
18930TIP3    H178281   0.127   2.581   3.383  1.6535 -0.4633  0.9429
18930TIP3    H278282   0.142   2.615   3.237 -0.3106 -0.2061  0.7790
18931TIP3   OH278283   5.690   0.975  14.070  0.6809  0.2852 -0.0036
18931TIP3    H178284   5.648   1.028  14.002  0.3671  1.3665  1.0194
18931TIP3    H278285   5.621   0.917  14.102  1.1376 -1.0877 -1.4333
18932TIP3   OH278286   1.444   3.432   6.048 -0.3771  0.6058  0.3391
18932TIP3    H178287   1.452   3.340   6.075  2.0989  0.1435 -1.7648
18932TIP3    H278288   1.498   3.438   5.969 -0.9557  3.7588  0.1386
18933TIP3   OH278289   5.294   0.478   2.369 -0.4037  0.3288 -0.1799
18933TIP3    H178290   5.266   0.569   2.372  0.9546  0.7606 -0.5947
18933TIP3    H278291   5.288   0.453   2.277 -1.4396 -0.2205  0.0248
18934TIP3   OH278292   3.482   4.172  12.077  0.3419  1.0070 -0.1779
18934TIP3    H178293   3.417   4.232  12.113  0.6618  0.6295  1.0648
18934TIP3    H278294   3.496   4.107  12.146 -0.2769 -0.7189 -1.6337
18935TIP3   OH278295   5.839   6.271  13.437 -0.0591  0.2662 -0.0351
18935TIP3    H178296   5.822   6.325  13.515 -1.8446  1.5237 -1.2646
18935TIP3    H278297   5.913   6.314  13.394  1.0829 -0.5591  1.0417
18936TIP3   OH278298   4.535   5.103  16.662  0.1816 -0.2885  0.2842
18936TIP3    H178299   4.543   5.067  16.751 -0.0076 -1.8142 -0.3001
18936TIP3    H278300   4.568   5.193  16.669 -2.4178  0.5451  2.4714
18937TIP3   OH278301   0.476   5.431  13.843 -0.1392  0.4621 -0.2690
18937TIP3    H178302   0.417   5.463  13.911 -2.1387 -0.3006 -1.5839
18937TIP3    H278303   0.483   5.503  13.780 -0.8393  0.0499 -0.8330
18938TIP3   OH278304   5.362   5.298   2.242 -0.2475  0.2097 -0.1309
18938TIP3    H178305   5.288   5.298   2.182 -1.0667 -0.2394  0.8587
18938TIP3    H278306   5.343   5.369   2.303 -0.3271 -0.4977  0.6773
18939TIP3   OH278307   4.486   3.532  15.678  0.4403  0.0945  0.0696
18939TIP3    H178308   4.577   3.561  15.676  0.0456  1.3635 -0.4336
18939TIP3    H278309   4.461   3.526  15.585 -0.6814  2.0767  0.2094
18940TIP3   OH278310   6.432   0.666   4.887  0.1713  0.1500  0.3634
18940TIP3    H178311   6.463   0.755   4.899 -1.2678  0.6493  0.5563
18940TIP3    H278312   6.340   0.676   4.861 -0.2385 -1.2800  1.1766
18941TIP3   OH278313   6.297   3.000  15.064  0.3160  0.4486 -0.0592
18941TIP3    H178314   6.206   2.970  15.067  0.3205 -0.0115 -3.0819
18941TIP3    H278315   6.329   2.987  15.154 -2.5036  0.4293  1.0110
18942TIP3   OH278316   6.237   2.498   2.698  0.2403  0.2197  0.3462
18942TIP3    H178317   6.256   2.409   2.668  0.0023  0.4692 -0.5681
18942TIP3    H278318   6.151   2.491   2.741 -0.1783  0.1652 -0.4840
18943TIP3   OH278319   5.407   4.979  11.906  0.0586  0.7179  0.0744
18943TIP3    H178320   5.418   5.070  11.877  1.6836  0.8760  1.1311
18943TIP3    H278321   5.312   4.969  11.917 -0.1349  2.2885 -0.0367
18944TIP3   OH278322   4.956   1.850  13.653 -0.1403  0.7978 -0.0483
18944TIP3    H178323   5.048   1.837  13.674 -0.4214 -0.6502  0.2914
18944TIP3    H278324   4.947   1.945  13.645  1.5688  0.9100 -0.9506
18945TIP3   OH278325   5.713   6.267  17.252 -0.1859 -0.3414 -1.0249
18945TIP3    H178326   5.737   6.340  17.196 -3.5944  2.5703  1.1348
18945TIP3    H278327   5.688   6.197  17.191 -0.7798  1.6581 -3.1287
18946TIP3   OH278328   2.137   6.735  14.932 -0.2373  0.2718  0.2754
18946TIP3    H178329   2.216   6.705  14.977 -0.7655 -1.0858  0.3279
18946TIP3    H278330   2.168   6.769  14.848  0.2618 -1.7083 -0.3745
18947TIP3   OH278331   0.974   6.614  14.624 -0.1803  0.4391  0.2350
18947TIP3    H178332   0.884   6.596  14.599 -0.4988  2.3109 -0.0616
18947TIP3    H278333   0.977   6.595  14.718 -0.7629 -0.0356  0.1616
18948TIP3   OH278334   4.657   0.453   5.552  0.2095  0.2502 -0.2052
18948TIP3    H178335   4.679   0.495   5.469 -1.4167  0.7580 -0.4118
18948TIP3    H278336   4.602   0.517   5.597  2.7792  0.8476  2.2047
18949TIP3   OH278337   1.284   5.928   0.660 -0.3912  0.4793  0.0641
18949TIP3    H178338   1.369   5.957   0.628 -0.1980 -0.3733 -0.2086
18949TIP3    H278339   1.304   5.850   0.713 -1.1726 -0.8591 -1.5516
18950TIP3   OH278340   6.733   0.233   0.870  0.0528 -0.4014 -0.2462
18950TIP3    H178341   6.779   0.283   0.937 -0.8158  1.3148 -0.8850
18950TIP3    H278342   6.706   0.152   0.914  0.5133  0.1892  1.1378
18951TIP3   OH278343   4.139   2.417  12.353  0.3150  0.3749  0.0073
18951TIP3    H178344   4.220   2.431  12.402 -0.8364  0.9410  1.7756
18951TIP3    H278345   4.069   2.426  12.418 -1.2357  0.8831 -1.6942
18952TIP3   OH278346   4.034   2.615  16.980  0.1868 -0.7181  0.2244
18952TIP3    H178347   4.013   2.600  17.073  0.2859 -0.6718  0.2556
18952TIP3    H278348   4.107   2.556  16.963  1.2616  0.4880  0.6197
18953TIP3   OH278349   4.714   6.515  11.257 -0.2833 -0.1373 -0.1613
18953TIP3    H178350   4.797   6.544  11.295 -1.7277 -0.4766  3.4797
18953TIP3    H278351   4.711   6.421  11.275 -0.4282 -0.5771 -2.3843
18954TIP3   OH278352   0.389   5.202  11.802 -0.2017 -0.2078 -0.5556
18954TIP3    H178353   0.446   5.272  11.834 -0.3648  0.0697 -0.8760
18954TIP3    H278354   0.441   5.122  11.814 -0.2319 -0.1018  0.3273
18955TIP3   OH278355   2.588   0.771   4.168  0.3014 -0.0741 -0.6418
18955TIP3    H178356   2.557   0.859   4.148  1.4530  0.5081  0.1407
18955TIP3    H278357   2.616   0.775   4.259 -1.4657 -1.7685  0.0151
18956TIP3   OH278358   3.605   3.180   1.835 -0.0535  0.1470  0.8001
18956TIP3    H178359   3.632   3.100   1.880 -0.5488 -0.1578  0.5574
18956TIP3    H278360   3.685   3.232   1.828  0.2367 -0.2613  1.0976
18957TIP3   OH278361   1.286   1.048  11.095  0.3363 -0.5032 -0.4601
18957TIP3    H178362   1.203   1.035  11.049 -0.6497  1.7691  0.5566
18957TIP3    H278363   1.264   1.036  11.187  1.0451  0.4303 -0.1588
18958TIP3   OH278364   3.195   3.804   2.300  0.3290 -0.3746 -0.5128
18958TIP3    H178365   3.125   3.842   2.247  0.3450 -0.7445 -0.8043
18958TIP3    H278366   3.173   3.711   2.305  0.3310 -0.3390  0.1300
18959TIP3   OH278367   2.263   1.535  11.187  0.2115 -0.6226 -0.0181
18959TIP3    H178368   2.182   1.499  11.151 -1.7028  2.8356  0.6099
18959TIP3    H278369   2.282   1.480  11.262 -2.7357 -0.2912  1.0500
18960TIP3   OH278370   1.291   2.911   5.196  0.1934  0.0310  0.4387
18960TIP3    H178371   1.316   2.886   5.285 -0.9447  2.2837  1.4267
18960TIP3    H278372   1.195   2.915   5.198  0.1287 -0.4436 -1.0412
18961TIP3   OH278373   5.294   6.129  11.717  0.5831  0.1209  0.1555
18961TIP3    H178374   5.217   6.186  11.722 -0.2074 -0.6630 -2.1855
18961TIP3    H278375   5.330   6.146  11.630  2.3010 -0.4992  0.7333
18962TIP3   OH278376   2.589   6.605   3.360 -0.1644  0.3298 -0.3803
18962TIP3    H178377   2.597   6.695   3.390  1.6283 -0.2774  1.0317
18962TIP3    H278378   2.621   6.606   3.270  2.1875  0.6829  0.4233
18963TIP3   OH278379   6.028   3.146  16.516 -0.6998 -0.8167 -0.0930
18963TIP3    H178380   6.018   3.077  16.451  0.3356  0.2912 -1.4674
18963TIP3    H278381   6.033   3.100  16.600  2.3568 -2.6109 -1.1744
18964TIP3   OH278382   6.135   2.140  16.477 -0.0082  0.4402 -0.0691
18964TIP3    H178383   6.208   2.138  16.414  0.0188 -1.2690  0.0063
18964TIP3    H278384   6.155   2.071  16.539 -2.2889 -0.8646 -0.7336
18965TIP3   OH278385   6.138   5.063   4.905  0.0366  0.2325 -0.3379
18965TIP3    H178386   6.092   5.119   4.843 -0.9172 -0.7527 -0.5297
18965TIP3    H278387   6.215   5.033   4.858  0.8232  1.7858 -0.0594
18966TIP3   OH278388   4.037   3.783  16.119  0.2699  0.1130  0.2183
18966TIP3    H178389   4.102   3.843  16.157  2.6824 -1.5332 -1.1621
18966TIP3    H278390   4.077   3.697  16.125 -2.0252 -1.0246 -0.2327
18967TIP3   OH278391   0.826   5.199   3.896  0.8317 -0.1518 -0.2672
18967TIP3    H178392   0.919   5.222   3.888  0.9244  0.2205  1.4872
18967TIP3    H278393   0.826   5.113   3.937  0.4118  0.3511  0.8207
18968TIP3   OH278394   1.488   4.751   6.416  0.1687 -0.4478  0.1636
18968TIP3    H178395   1.486   4.691   6.491  1.3376  0.3305  0.8294
18968TIP3    H278396   1.472   4.837   6.454  1.7807  0.0765 -0.3365
18969TIP3   OH278397   1.028   1.031   4.877  0.6677  0.0210  0.1736
18969TIP3    H178398   1.109   0.987   4.851  1.2629  0.5973  1.0311
18969TIP3    H278399   0.961   0.963   4.871  1.6355 -1.1175  1.8613
18970TIP3   OH278400   0.514   5.801  15.386  0.0865  0.2292  0.3409
18970TIP3    H178401   0.493   5.824  15.476 -2.6697 -0.7177 -0.0187
18970TIP3    H278402   0.429   5.802  15.340  0.9482 -2.6138 -1.4749
18971TIP3   OH278403   4.439   2.942  12.407 -0.2832 -0.1631  0.1271
18971TIP3    H178404   4.517   2.890  12.388 -2.2365 -2.3853 -2.1523
18971TIP3    H278405   4.472   3.018  12.454  3.0630 -1.8237  0.6461
18972TIP3   OH278406   4.539   2.237  10.845 -0.1488  0.1019 -0.2193
18972TIP3    H178407   4.528   2.145  10.822  1.8573 -0.9907  2.8477
18972TIP3    H278408   4.594   2.272  10.775  0.8364 -1.5883 -0.3350
18973TIP3   OH278409   1.951   4.039   1.889 -0.1650  0.3445  0.2009
18973TIP3    H178410   1.893   3.984   1.941 -0.8540  0.9600  0.0886
18973TIP3    H278411   1.892   4.095   1.838  0.4676 -1.1065 -2.2050
18974TIP3   OH278412   3.181   0.867   2.243  0.1868  0.5597  0.8906
18974TIP3    H178413   3.252   0.832   2.296  0.8059  0.0889 -0.2332
18974TIP3    H278414   3.169   0.956   2.276  1.6440  0.8237  0.7657
18975TIP3   OH278415   6.649   1.259  13.150  0.7124  0.2284 -0.8371
18975TIP3    H178416   6.642   1.352  13.128 -0.8008  0.4220  0.3459
18975TIP3    H278417   6.584   1.216  13.095  0.1444  0.1074 -0.0725
18976TIP3   OH278418   5.767   2.894   1.480 -0.2380 -0.3628  0.2725
18976TIP3    H178419   5.702   2.882   1.550 -0.9457 -0.7898 -0.4490
18976TIP3    H278420   5.825   2.962   1.513 -2.0773  1.2695  0.2237
18977TIP3   OH278421   3.883   1.119  11.974  0.4234 -0.3109  0.0276
18977TIP3    H178422   3.852   1.039  11.931  0.8324 -0.8985  0.8061
18977TIP3    H278423   3.953   1.151  11.916  0.1326 -0.4139 -0.3825
18978TIP3   OH278424   6.673   1.866   4.157 -0.7240 -0.3356 -0.1365
18978TIP3    H178425   6.712   1.823   4.081 -1.2222 -0.7170 -0.1861
18978TIP3    H278426   6.711   1.954   4.158 -0.2428 -0.5378 -0.4599
18979TIP3   OH278427   4.004   5.782  13.387  0.1163  0.4798 -0.0458
18979TIP3    H178428   4.086   5.751  13.349  1.0686  1.1084  1.4348
18979TIP3    H278429   3.957   5.702  13.412  0.0417  0.1086 -1.3742
18980TIP3   OH278430   3.765   6.806   0.456  0.3573  0.2492  0.3866
18980TIP3    H178431   3.719   6.890   0.458  0.9340  0.5558  0.8821
18980TIP3    H278432   3.702   6.743   0.492 -0.9424  0.0246 -2.1822
18981TIP3   OH278433   1.888   3.231  15.834 -0.3545  0.5562  0.2614
18981TIP3    H178434   1.907   3.255  15.924 -2.0385 -1.6900  1.2639
18981TIP3    H278435   1.795   3.211  15.834 -0.2777  0.0823 -1.8875
18982TIP3   OH278436   4.042   4.504  11.197  0.2083 -0.1868  0.4153
18982TIP3    H178437   4.095   4.565  11.249 -0.2562  0.1672  0.4700
18982TIP3    H278438   4.027   4.430  11.256 -0.0880  0.0936  0.6951
18983TIP3   OH278439   3.377   1.500  12.796  0.2160  0.1970 -0.1560
18983TIP3    H178440   3.389   1.406  12.785  1.9327  0.2410  1.2433
18983TIP3    H278441   3.350   1.511  12.888 -0.5051  1.0242 -0.4526
18984TIP3   OH278442   2.426   1.494  11.521  0.0247 -0.1227 -0.0936
18984TIP3    H178443   2.459   1.567  11.573  0.9156 -0.5689 -0.0204
18984TIP3    H278444   2.331   1.493  11.538  0.2752 -0.1307  1.3666
18985TIP3   OH278445   1.126   2.610  11.888  0.2678 -0.0902 -0.9312
18985TIP3    H178446   1.171   2.582  11.968  0.7199 -0.1090 -1.1919
18985TIP3    H278447   1.035   2.622  11.915  0.5382  0.5125 -0.2615
18986TIP3   OH278448   6.613   4.201   2.866  0.2939 -0.2977  0.1009
18986TIP3    H178449   6.628   4.271   2.930  0.9331 -0.0207 -0.3465
18986TIP3    H278450   6.691   4.146   2.872  0.2939 -0.3495 -0.3401
18987TIP3   OH278451   5.820   3.904  16.070  0.1704 -0.1623  0.8317
18987TIP3    H178452   5.739   3.882  16.116  0.1444  0.6928  1.2143
18987TIP3    H278453   5.794   3.915  15.979 -0.1856  0.3387  0.9953
18988TIP3   OH278454   0.740   2.829   3.876 -0.1064  0.5069 -0.5079
18988TIP3    H178455   0.826   2.866   3.860  0.2160 -0.8431 -2.0759
18988TIP3    H278456   0.697   2.890   3.936  2.1269  0.9109  0.7193
18989TIP3   OH278457   2.586   3.663  13.630  0.0099  0.0230  0.0126
18989TIP3    H178458   2.578   3.759  13.631  0.9602  0.1175 -1.1685
18989TIP3    H278459   2.679   3.647  13.613 -0.2904 -1.1125 -0.5772
18990TIP3   OH278460   5.629   4.484  14.076  0.6323  0.2911 -0.3541
18990TIP3    H178461   5.614   4.431  14.154  0.9025  0.4160 -0.2190
18990TIP3    H278462   5.667   4.422  14.012  0.2159  0.1398 -0.4577
18991TIP3   OH278463   0.542   4.753   0.403 -0.1224  0.0737  0.1897
18991TIP3    H178464   0.464   4.778   0.355 -1.4563  0.6083  2.5552
18991TIP3    H278465   0.532   4.659   0.419  0.9408 -0.3768 -1.6196
18992TIP3   OH278466   2.371   5.090  16.456  0.6368  0.1268 -0.1994
18992TIP3    H178467   2.343   5.050  16.539 -2.5431  1.9670 -0.3423
18992TIP3    H278468   2.440   5.152  16.482 -0.6268  0.9980  1.1504
18993TIP3   OH278469   1.429   5.222  12.426 -0.5510  0.5554 -0.0322
18993TIP3    H178470   1.348   5.223  12.376 -1.1186  1.5265  0.9060
18993TIP3    H278471   1.424   5.297  12.484  1.0021  0.6068  0.0777
18994TIP3   OH278472   3.439   1.605   4.868  0.6846  0.0965  0.5472
18994TIP3    H178473   3.386   1.683   4.884 -0.5701 -0.5699 -0.2901
18994TIP3    H278474   3.468   1.578   4.955  2.8920  2.6814  0.6955
18995TIP3   OH278475   6.421   0.660  13.959 -0.6768  0.7983 -0.6249
18995TIP3    H178476   6.399   0.567  13.951  0.4553  0.5929 -1.3339
18995TIP3    H278477   6.512   0.666  13.932  0.4389  1.5316  3.0314
18996TIP3   OH278478   0.702   2.690  13.059  0.2121  0.2269  0.6272
18996TIP3    H178479   0.675   2.598  13.056 -1.9436  0.8318  0.6495
18996TIP3    H278480   0.690   2.721  12.969 -1.5140  1.1206  1.1355
18997TIP3   OH278481   6.491   1.886  16.055  0.1550  0.5223 -0.7701
18997TIP3    H178482   6.569   1.886  16.110  0.0760  0.1365 -0.6574
18997TIP3    H278483   6.433   1.820  16.095 -0.6332  1.4985 -0.2824
18998TIP3   OH278484   5.593   6.194  11.551 -0.3722  0.3924 -0.1616
18998TIP3    H178485   5.673   6.246  11.559  0.5615 -0.7545 -1.7393
18998TIP3    H278486   5.609   6.137  11.476 -3.1290  0.9511 -1.2331
18999TIP3   OH278487   3.618   0.651  11.907 -0.1580  0.0569  0.0516
18999TIP3    H178488   3.532   0.642  11.947 -0.7335  0.4938 -1.0684
18999TIP3    H278489   3.659   0.725  11.953  0.0807 -0.8659  1.3638
19000TIP3   OH278490   2.873   1.275   2.320  0.2995  0.0864 -0.1640
19000TIP3    H178491   2.785   1.246   2.296  1.4169 -2.8862 -0.8929
19000TIP3    H278492   2.896   1.338   2.253 -0.4459 -0.7290 -1.2071
19001TIP3   OH278493   4.387   2.241  14.320 -0.3710 -0.1379 -0.2496
19001TIP3    H178494   4.385   2.220  14.413  1.5294 -0.2532 -0.2092
19001TIP3    H278495   4.470   2.203  14.289 -0.7806  0.2688 -1.8838
19002TIP3   OH278496   5.777   2.118  15.822 -0.1571 -0.0768  0.2783
19002TIP3    H178497   5.803   2.030  15.852 -1.7672 -0.6249  0.1041
19002TIP3    H278498   5.726   2.154  15.895  0.9361  0.9444  0.5643
19003TIP3   OH278499   6.163   0.272   3.093  0.0728  0.4056  0.4265
19003TIP3    H178500   6.191   0.351   3.139 -0.3038 -0.0936  1.5459
19003TIP3    H278501   6.089   0.240   3.145 -0.9662  0.3316 -1.0584
19004TIP3   OH278502   6.374   2.426   0.874 -0.4883 -0.0289 -0.0055
19004TIP3    H178503   6.358   2.417   0.968  0.8712 -1.1365  0.1346
19004TIP3    H278504   6.398   2.338   0.845  0.8954  0.6751 -1.0436
19005TIP3   OH278505   5.561   3.667  14.574 -0.5702  0.0486 -0.7697
19005TIP3    H178506   5.529   3.687  14.662  0.6340  0.4866 -0.4175
19005TIP3    H278507   5.527   3.579  14.555 -1.5692  0.3106 -0.2330
19006TIP3   OH278508   0.324   5.401  14.497  0.5369  0.9005 -0.5666
19006TIP3    H178509   0.317   5.344  14.573  2.6515  0.7999 -0.4219
19006TIP3    H278510   0.397   5.365  14.446  0.2626  1.9729 -1.7629
19007TIP3   OH278511   6.439   3.379  11.501  0.9076  0.1911 -0.3780
19007TIP3    H178512   6.439   3.455  11.442 -0.1248 -0.7941 -1.6807
19007TIP3    H278513   6.404   3.413  11.583 -2.2431  0.5608 -1.7982
19008TIP3   OH278514   6.730   3.902   1.001 -0.1669 -0.1748 -0.5714
19008TIP3    H178515   6.709   3.990   1.034 -0.8253 -0.0250 -1.3811
19008TIP3    H278516   6.645   3.862   0.983  0.1627 -0.5741 -1.2691
19009TIP3   OH278517   2.801   4.963  14.353 -0.2740 -0.0885 -0.6519
19009TIP3    H178518   2.812   5.015  14.433  0.4706  1.6544 -1.8417
19009TIP3    H278519   2.709   4.978  14.328  0.1489  1.3450 -1.4199
19010TIP3   OH278520   2.655   3.460   6.047  0.3400  0.4318 -0.6575
19010TIP3    H178521   2.649   3.554   6.036 -0.0537  0.5151  0.2181
19010TIP3    H278522   2.564   3.431   6.059  0.5145  0.0353 -0.2530
19011TIP3   OH278523   0.107   3.512  16.934 -0.5678  0.0400 -0.2132
19011TIP3    H178524   0.023   3.482  16.900 -1.3987  1.9531  0.0756
19011TIP3    H278525   0.160   3.433  16.942 -3.0138 -1.4867  1.4678
19012TIP3   OH278526   0.311   5.598   1.395  0.7432  0.1920  0.4780
19012TIP3    H178527   0.330   5.574   1.486 -0.5508  0.3783  0.8149
19012TIP3    H278528   0.321   5.693   1.393  2.4056  0.0123  0.0124
19013TIP3   OH278529   4.366   6.767   1.171  0.3159  0.4340 -0.1359
19013TIP3    H178530   4.297   6.833   1.180  1.1609  1.2587  0.4720
19013TIP3    H278531   4.344   6.720   1.091 -0.0742  1.7343 -0.8068
19014TIP3   OH278532   1.597   5.305   3.058  0.2463 -0.5470  0.0919
19014TIP3    H178533   1.629   5.304   3.147  2.3390  2.6167 -0.5505
19014TIP3    H278534   1.502   5.294   3.067  0.5853 -1.8103  2.5488
19015TIP3   OH278535   6.109   0.749  17.232  0.1199 -0.3159 -0.5029
19015TIP3    H178536   6.155   0.672  17.198 -0.8262 -0.8121 -0.6729
19015TIP3    H278537   6.031   0.713  17.273 -0.5725  0.6010 -1.0206
19016TIP3   OH278538   6.203   1.722   4.607 -0.0699  0.3203 -0.5019
19016TIP3    H178539   6.123   1.770   4.629  0.3283  0.7287  0.0716
19016TIP3    H278540   6.231   1.684   4.690  0.8042  0.8930 -0.5278
19017TIP3   OH278541   5.855   3.158   5.458  0.0667 -0.2484 -0.5109
19017TIP3    H178542   5.770   3.125   5.488 -0.7868 -0.3594 -2.8943
19017TIP3    H278543   5.870   3.112   5.375  2.5271 -0.3044 -0.0592
19018TIP3   OH278544   4.095   1.698  11.859 -0.1426 -0.0930  0.3383
19018TIP3    H178545   4.156   1.669  11.926  0.0148 -0.9618 -0.1638
19018TIP3    H278546   4.010   1.666  11.889 -0.0563 -0.5779  0.0850
19019TIP3   OH278547   1.687   6.114   4.953 -0.3236 -0.4253  0.0506
19019TIP3    H178548   1.658   6.030   4.990 -1.6228  1.2554  2.9904
19019TIP3    H278549   1.782   6.112   4.963 -0.6218 -0.0325  3.6377
19020TIP3   OH278550   4.323   3.657  12.616 -0.0192  0.3332 -0.0310
19020TIP3    H178551   4.249   3.712  12.590  0.1791  0.4299 -0.3851
19020TIP3    H278552   4.377   3.651  12.538  0.8895  1.1280  0.5376
19021TIP3   OH278553   3.551   3.671  10.469 -0.4436  0.4559 -0.0057
19021TIP3    H178554   3.639   3.636  10.481 -0.4402  0.2925 -0.5100
19021TIP3    H278555   3.538   3.672  10.375 -0.7170  1.1387  0.0362
19022TIP3   OH278556   4.811   1.956  16.919  0.2541 -0.0778  0.7521
19022TIP3    H178557   4.892   1.957  16.971  0.8146 -0.4779 -0.1097
19022TIP3    H278558   4.820   2.030  16.860  0.4456 -0.7302 -0.0368
19023TIP3   OH278559   3.457   1.700   6.326 -0.2656 -0.0127  0.2535
19023TIP3    H178560   3.369   1.732   6.345 -0.8028 -1.4283  0.2312
19023TIP3    H278561   3.503   1.705   6.410 -0.1040  1.5139  0.0804
19024TIP3   OH278562   5.201   4.026  14.207  0.5033  0.1917 -0.7670
19024TIP3    H178563   5.254   3.947  14.202 -0.6196 -0.5105 -1.9063
19024TIP3    H278564   5.257   4.095  14.170  1.0295 -0.3077 -0.9059
19025TIP3   OH278565   0.045   3.959  14.367  0.3897  0.4595 -0.3005
19025TIP3    H178566   0.135   3.992  14.365  0.7663 -0.4964  0.4312
19025TIP3    H278567   0.009   3.984  14.282  0.9494  1.9228 -0.1173
19026TIP3   OH278568   0.364   1.992  12.588 -0.3367  0.1752  0.2932
19026TIP3    H178569   0.399   2.014  12.674 -0.7349  0.4070  0.3992
19026TIP3    H278570   0.301   1.921  12.605  0.8895 -1.0044 -0.0439
19027TIP3   OH278571   1.163   3.039   1.403 -0.2679 -0.0189 -0.5733
19027TIP3    H178572   1.204   3.125   1.414 -1.2042  0.2346  1.0509
19027TIP3    H278573   1.218   2.994   1.339  0.9099  1.3533 -0.5365
19028TIP3   OH278574   0.884   0.956   5.308 -0.4846 -0.2990  0.8771
19028TIP3    H178575   0.815   0.996   5.361 -0.9176  0.1798 -0.0356
19028TIP3    H278576   0.917   1.028   5.254 -2.0841 -1.3871 -1.6485
19029TIP3   OH278577   2.418   6.711  11.497  0.1942  0.0714 -0.2631
19029TIP3    H178578   2.412   6.806  11.488  3.1110  0.4976  1.5074
19029TIP3    H278579   2.354   6.689  11.565  1.7389  1.2308  1.5999
19030TIP3   OH278580   4.446   6.345  16.159 -0.2069 -0.4044  0.3943
19030TIP3    H178581   4.541   6.343  16.144 -0.3227  1.2253 -0.7420
19030TIP3    H278582   4.435   6.314  16.249  1.3230 -1.4816  0.2376
19031TIP3   OH278583   6.438   1.441   0.541  0.3774 -0.6306  0.0683
19031TIP3    H178584   6.399   1.482   0.618 -0.2975 -1.8675  0.4070
19031TIP3    H278585   6.418   1.501   0.469  1.9713  1.0739  1.0186
19032TIP3   OH278586   4.436   0.352   3.957  0.7601  0.6333  0.3103
19032TIP3    H178587   4.375   0.305   4.014  1.3200  0.9256  1.1507
19032TIP3    H278588   4.512   0.294   3.951  0.0602 -0.1481 -1.4652
19033TIP3   OH278589   4.018   0.065   3.866 -0.3058 -0.3109 -0.0389
19033TIP3    H178590   3.953  -0.005   3.867  1.2581 -1.7586  1.3920
19033TIP3    H278591   4.027   0.091   3.957 -0.0654  1.0275 -0.4315
19034TIP3   OH278592   3.705   4.354  12.037  0.6867  0.7129 -0.2805
19034TIP3    H178593   3.656   4.289  12.087  0.0491  0.3113 -1.4135
19034TIP3    H278594   3.651   4.371  11.959  0.8557  2.5732 -0.0167
19035TIP3   OH278595   0.257   1.738  15.400 -0.7310 -0.4653  0.4051
19035TIP3    H178596   0.312   1.659  15.397  1.5602  1.0826  0.6911
19035TIP3    H278597   0.235   1.754  15.308  0.4017 -0.3472  0.1465
19036TIP3   OH278598   2.625   0.804  14.954  0.3671 -0.0706  0.6020
19036TIP3    H178599   2.619   0.868  14.883 -1.9890 -1.9948 -1.0325
19036TIP3    H278600   2.708   0.759  14.938 -0.3530 -0.8030 -1.2844
19037TIP3   OH278601   3.633   4.007  13.025  0.0118  0.4333 -0.2377
19037TIP3    H178602   3.714   4.028  13.072 -0.7309  2.5055  0.1804
19037TIP3    H278603   3.580   3.959  13.088  0.2915  0.4581  0.0164
19038TIP3   OH278604   2.043   5.445   3.198  0.1399  0.8878 -1.0793
19038TIP3    H178605   1.960   5.468   3.156  0.1606  0.9703 -1.0738
19038TIP3    H278606   2.106   5.443   3.127  0.0703  0.5133 -1.1313
19039TIP3   OH278607   6.790   0.819   6.614 -0.1487  0.2828  0.0249
19039TIP3    H178608   6.776   0.906   6.576  0.1785 -0.1732 -1.1690
19039TIP3    H278609   6.885   0.806   6.610  0.3444  1.7029  4.3784
19040TIP3   OH278610   3.599   0.877  11.272  0.4302  0.5961  0.0139
19040TIP3    H178611   3.673   0.818  11.254 -1.2340 -0.6747 -3.0340
19040TIP3    H278612   3.600   0.889  11.367  4.6160  0.7319  0.0550
19041TIP3   OH278613   0.629   2.741  14.251 -0.3278  0.5570  0.2806
19041TIP3    H178614   0.685   2.686  14.306 -1.6366 -0.0537  1.0388
19041TIP3    H278615   0.619   2.692  14.170  1.3603  1.3185 -0.4199
19042TIP3   OH278616   2.357   2.686   2.286  0.5220 -0.5614  0.0801
19042TIP3    H178617   2.272   2.723   2.307  0.7871  0.9977 -1.5202
19042TIP3    H278618   2.357   2.600   2.329 -0.4269  0.8858  3.1379
19043TIP3   OH278619   2.297   4.105   6.445  0.2186  0.3335  0.2205
19043TIP3    H178620   2.237   4.037   6.417  0.0583 -0.3366  2.1168
19043TIP3    H278621   2.277   4.180   6.389 -0.4288 -0.7901 -1.0576
19044TIP3   OH278622   3.224   2.621   6.107 -0.2819  0.0339  0.8190
19044TIP3    H178623   3.290   2.659   6.165 -0.5503 -2.3494  2.7713
19044TIP3    H278624   3.143   2.667   6.129 -0.3889 -0.8594  2.4339
19045TIP3   OH278625   5.043   0.492   4.240  0.0417  0.3697 -1.0658
19045TIP3    H178626   5.037   0.577   4.283  0.5770 -0.2135  0.1824
19045TIP3    H278627   4.953   0.462   4.232 -0.1447  1.0303 -1.4655
19046TIP3   OH278628   3.931   0.012  14.238  0.1678 -0.0642 -0.3535
19046TIP3    H178629   4.010  -0.040  14.220  0.1552 -0.2786  0.2117
19046TIP3    H278630   3.947   0.095  14.193  0.5788 -0.2218 -0.5070
19047TIP3   OH278631   1.514   0.558  15.129 -0.5446  0.1933  0.5599
19047TIP3    H178632   1.433   0.513  15.154  0.7542 -1.7413  1.3954
19047TIP3    H278633   1.579   0.488  15.122  1.0430  1.7111 -0.1873
19048TIP3   OH278634   1.200   0.439   4.527  0.0263  0.1705 -0.0424
19048TIP3    H178635   1.116   0.484   4.538 -0.2994 -0.6377  0.8534
19048TIP3    H278636   1.181   0.364   4.472 -0.0738 -0.6237  1.0477
19049TIP3   OH278637   4.506   4.537   1.728  0.2660 -0.1958 -0.0644
19049TIP3    H178638   4.544   4.549   1.641  0.6269  2.5954  0.4435
19049TIP3    H278639   4.570   4.574   1.788 -0.9282 -0.1761  1.2185
19050TIP3   OH278640   4.911   0.484   5.067 -0.3091  0.1032 -0.1074
19050TIP3    H178641   4.877   0.409   5.115 -1.3467 -0.6222 -1.9238
19050TIP3    H278642   4.937   0.448   4.982  0.0744  1.6209 -0.6425
19051TIP3   OH278643   6.632   2.593   1.378  0.3041  0.2170 -0.1857
19051TIP3    H178644   6.548   2.595   1.424  1.1119 -0.7352  1.3682
19051TIP3    H278645   6.694   2.633   1.438  1.3014 -0.6654 -0.5982
19052TIP3   OH278646   1.384   1.885  11.201 -0.5315  0.5856 -0.3934
19052TIP3    H178647   1.321   1.813  11.192  0.1543 -0.1548  0.5641
19052TIP3    H278648   1.429   1.888  11.117  1.3465 -1.9460  0.4667
19053TIP3   OH278649   6.558   0.700  15.572 -0.2470  0.3634 -0.3850
19053TIP3    H178650   6.644   0.662  15.555 -0.0679 -0.0657  1.4120
19053TIP3    H278651   6.569   0.748  15.654 -1.4668  1.1298 -0.6547
19054TIP3   OH278652   0.322   0.383  13.874 -0.5819  0.0117  0.1708
19054TIP3    H178653   0.388   0.411  13.937 -0.5110 -0.0332  0.1164
19054TIP3    H278654   0.293   0.298  13.906 -1.0747  0.3176  0.5498
19055TIP3   OH278655   4.210   3.029  10.570  0.0041  0.1430  0.0338
19055TIP3    H178656   4.221   3.055  10.479 -0.3087  1.1174  0.2624
19055TIP3    H278657   4.270   3.086  10.619  2.0900 -2.1370  0.2012
19056TIP3   OH278658   4.752   0.203   4.621 -0.6892 -0.2563 -0.0073
19056TIP3    H178659   4.686   0.188   4.553  1.9204 -1.6522 -2.3273
19056TIP3    H278660   4.746   0.125   4.677 -0.4260 -0.8124 -0.7399
19057TIP3   OH278661   2.916   3.282  13.973  0.1298  0.0900 -0.5087
19057TIP3    H178662   2.882   3.202  13.933  0.5004 -1.0547  1.3763
19057TIP3    H278663   2.870   3.353  13.929 -1.0865 -1.2218 -1.3835
19058TIP3   OH278664   5.919   2.797  12.866  0.0049 -0.6259  0.4228
19058TIP3    H178665   5.925   2.703  12.885 -1.6689 -0.8196  0.0534
19058TIP3    H278666   5.826   2.817  12.874  0.5618  1.4298  2.4212
19059TIP3   OH278667   2.279   5.166  16.205 -0.4948  0.8612  0.1947
19059TIP3    H178668   2.231   5.085  16.186 -0.9271  1.7102 -2.6090
19059TIP3    H278669   2.307   5.157  16.296 -1.8579 -1.7569  0.3968
19060TIP3   OH278670   3.906   4.430   4.588 -0.0094 -0.4065  0.5489
19060TIP3    H178671   3.827   4.483   4.575 -0.8644 -1.7866 -0.0683
19060TIP3    H278672   3.875   4.351   4.632  0.7088 -1.8137 -1.4095
19061TIP3   OH278673   1.323   2.055  12.530  0.3342 -0.5152 -0.2574
19061TIP3    H178674   1.241   2.093  12.498 -0.0562 -0.0749  1.1978
19061TIP3    H278675   1.357   2.120  12.591  1.9412 -0.5606 -1.0892
19062TIP3   OH278676   5.109   6.360   3.710  0.1278 -0.2298  0.1563
19062TIP3    H178677   5.069   6.436   3.668  0.6135  0.6756  1.2954
19062TIP3    H278678   5.069   6.357   3.796  0.5293 -0.9257  0.3193
19063TIP3   OH278679   6.444   1.457   5.462  0.9901  0.0449  0.4520
19063TIP3    H178680   6.468   1.505   5.542  0.0427 -0.1853  0.8873
19063TIP3    H278681   6.485   1.372   5.472 -0.1611 -0.4333  1.3079
19064TIP3   OH278682   5.242   5.996  12.614  1.0665  0.0090 -0.0663
19064TIP3    H178683   5.170   5.974  12.556  0.4867 -1.7385  1.2585
19064TIP3    H278684   5.268   6.085  12.589 -1.4959  0.6382 -0.6121
19065TIP3   OH278685   4.650   4.067   5.020  0.6209  0.4656 -0.4947
19065TIP3    H178686   4.711   4.038   4.952  0.6660 -0.0429 -0.2390
19065TIP3    H278687   4.706   4.103   5.089  0.6369 -0.0032 -0.2591
19066TIP3   OH278688   0.790   3.391   1.682  0.5756 -0.6303  0.3634
19066TIP3    H178689   0.847   3.321   1.650 -0.9833 -1.5266 -0.5647
19066TIP3    H278690   0.752   3.356   1.763 -0.2927 -0.9246 -0.1615
19067TIP3   OH278691   5.210   2.014  13.827 -0.2216 -0.1863 -0.2170
19067TIP3    H178692   5.154   2.051  13.759 -0.6716 -2.1828 -0.9819
19067TIP3    H278693   5.206   1.919  13.812  1.2953 -0.5208  1.3345
19068TIP3   OH278694   3.235   1.450  13.839 -0.1323 -0.2835 -0.0426
19068TIP3    H178695   3.275   1.512  13.779  2.7441 -0.5196  1.5606
19068TIP3    H278696   3.153   1.491  13.865  0.7349  1.8727 -0.6306
19069TIP3   OH278697   4.491   3.664  16.514 -0.3993 -0.3191  0.7524
19069TIP3    H178698   4.550   3.589  16.518 -0.7307 -0.5645  1.1069
19069TIP3    H278699   4.466   3.670  16.422  1.0310  0.4521  0.4186
19070TIP3   OH278700   3.849   3.075  15.286  0.5074 -0.1537 -0.1431
19070TIP3    H178701   3.805   3.160  15.291 -2.5542 -1.6861  0.6576
19070TIP3    H278702   3.813   3.035  15.207  1.5333 -0.9042 -0.2256
19071TIP3   OH278703   1.322   2.600  12.507  0.3506  0.1825 -0.1550
19071TIP3    H178704   1.351   2.679  12.554 -0.5703  1.7383 -2.1353
19071TIP3    H278705   1.259   2.632  12.443 -0.6791 -2.3035 -0.4311
19072TIP3   OH278706   5.989   2.710   0.320  0.1935  0.1720 -0.0106
19072TIP3    H178707   6.045   2.634   0.306 -0.3068 -0.0607 -0.7922
19072TIP3    H278708   6.010   2.769   0.248  0.0105  0.4296  0.1464
19073TIP3   OH278709   2.143   2.356   3.457  0.2197 -0.2483 -0.0767
19073TIP3    H178710   2.148   2.416   3.383  1.5046 -0.7512 -0.4010
19073TIP3    H278711   2.049   2.343   3.470 -0.0871  1.8553  0.0340
19074TIP3   OH278712   3.297   3.426  15.075  0.1616  0.7830  0.4963
19074TIP3    H178713   3.211   3.461  15.053  0.9572  1.2654 -2.0440
19074TIP3    H278714   3.308   3.351  15.016  1.8017  1.2310  0.1906
19075TIP3   OH278715   1.912   0.596   2.711 -0.3469 -0.2447 -0.5284
19075TIP3    H178716   1.971   0.568   2.780 -1.1253 -1.2946 -0.2845
19075TIP3    H278717   1.967   0.648   2.652  0.3550  0.5313  0.7869
19076TIP3   OH278718   1.505   5.344  13.962  0.5380  0.3525 -0.6696
19076TIP3    H178719   1.564   5.418  13.953  2.2118 -0.9980 -1.1298
19076TIP3    H278720   1.434   5.361  13.899  0.9644  1.4857 -0.8444
19077TIP3   OH278721   2.121   2.822   4.447 -0.2858 -0.9219  0.6824
19077TIP3    H178722   2.189   2.775   4.397  1.6706  2.1007  0.3567
19077TIP3    H278723   2.039   2.779   4.422  1.1717 -2.6026 -1.4178
19078TIP3   OH278724   1.155   3.308  14.436 -0.5722  0.1834  0.3387
19078TIP3    H178725   1.157   3.393  14.478 -0.5019 -0.1340  0.9804
19078TIP3    H278726   1.101   3.253  14.494  1.4392 -0.8956  1.2530
19079TIP3   OH278727   3.016   5.988   0.645  0.1840  0.5250 -0.5989
19079TIP3    H178728   3.050   6.074   0.622 -0.3246  1.4841  2.0299
19079TIP3    H278729   3.091   5.929   0.637  1.1729  1.6724  0.0799
19080TIP3   OH278730   5.177   2.148   0.788 -0.3163 -0.2484  0.4621
19080TIP3    H178731   5.228   2.169   0.709  2.6034  0.5637  2.4670
19080TIP3    H278732   5.116   2.221   0.797 -1.7125 -1.0794 -1.8165
19081TIP3   OH278733   5.789   6.117   5.428  0.2765  0.5919 -0.2602
19081TIP3    H178734   5.793   6.164   5.345  2.1101  0.6759 -0.1350
19081TIP3    H278735   5.861   6.152   5.480 -0.5919  0.2496  1.2307
19082TIP3   OH278736   5.024   4.038  15.694 -0.2834 -0.1468 -0.7831
19082TIP3    H178737   5.115   4.037  15.725 -0.9584  1.2401  1.3831
19082TIP3    H278738   4.972   4.020  15.772 -1.8770 -1.0618 -2.0325
19083TIP3   OH278739   5.933   6.813   3.709  0.6243  0.4267  0.1266
19083TIP3    H178740   5.985   6.829   3.788  0.0381  0.5958  0.4802
19083TIP3    H278741   5.863   6.755   3.738 -0.0951  1.1818 -0.0741
19084TIP3   OH278742   4.508   5.082   3.993 -0.0000  0.2972  0.2705
19084TIP3    H178743   4.473   5.163   4.030  0.5446  0.3342  0.7120
19084TIP3    H278744   4.568   5.111   3.924  0.6699  0.2872  0.8475
19085TIP3   OH278745   2.467   3.127   2.083 -0.0568 -0.5509  0.0850
19085TIP3    H178746   2.496   3.067   2.152  0.2675 -1.7759 -1.0853
19085TIP3    H278747   2.439   3.069   2.012  1.1224  0.7003 -1.4227
19086TIP3   OH278748   5.011   3.490  11.347 -0.2437  0.0998 -0.1106
19086TIP3    H178749   4.963   3.508  11.427  2.2126  0.9629  1.2214
19086TIP3    H278750   5.053   3.573  11.324 -0.4419 -0.2895 -1.9571
19087TIP3   OH278751   4.541   2.670  11.148 -0.3885 -0.7275  0.5269
19087TIP3    H178752   4.562   2.622  11.229  0.8914 -2.7177 -0.9398
19087TIP3    H278753   4.619   2.661  11.094 -0.5851  2.0585 -0.2833
19088TIP3   OH278754   4.598   4.889  14.467  0.1770 -0.4611  0.4166
19088TIP3    H178755   4.628   4.980  14.465  0.9423 -0.7252 -0.6965
19088TIP3    H278756   4.677   4.837  14.456 -0.5727 -1.1851 -1.8385
19089TIP3   OH278757   1.812   0.678  14.710  0.0968 -0.0994 -0.0944
19089TIP3    H178758   1.751   0.751  14.701 -0.9291 -0.8818  0.4687
19089TIP3    H278759   1.773   0.621  14.776  0.5390 -1.5227 -1.0267
19090TIP3   OH278760   5.313   4.102   2.610 -0.2101 -0.0210  0.0345
19090TIP3    H178761   5.287   4.054   2.689  1.2449 -0.7287  0.0883
19090TIP3    H278762   5.247   4.077   2.545  0.1508 -1.5699  0.2523
19091TIP3   OH278763   2.826   3.141   5.109  0.0015  0.2297  0.3172
19091TIP3    H178764   2.877   3.094   5.042 -0.3532  0.5510 -0.1776
19091TIP3    H278765   2.855   3.232   5.101  1.2962 -0.0236  1.8333
19092TIP3   OH278766   5.259   5.699   5.746  0.4517 -0.7321  0.2457
19092TIP3    H178767   5.190   5.679   5.683  1.1559 -0.3542 -0.6644
19092TIP3    H278768   5.217   5.756   5.810  0.1091  0.1528 -0.7459
19093TIP3   OH278769   4.292   6.374   1.083  0.0552  0.4054 -0.4428
19093TIP3    H178770   4.325   6.459   1.054 -1.2903  0.5066 -1.7197
19093TIP3    H278771   4.197   6.382   1.078 -0.0884 -1.1106 -0.3589
19094TIP3   OH278772   5.040   5.356  13.449  0.0092 -0.0594  1.0168
19094TIP3    H178773   4.977   5.314  13.506  0.0469 -0.3438  0.8507
19094TIP3    H278774   5.108   5.290  13.435  0.3156  0.2255  1.1534
19095TIP3   OH278775   5.010   1.440   1.448  0.1479 -0.2387  0.4233
19095TIP3    H178776   5.008   1.446   1.352 -0.6355  0.6449  0.4738
19095TIP3    H278777   5.030   1.530   1.476 -2.1988  0.0950  1.1278
19096TIP3   OH278778   0.792   1.318   3.678  0.2501  0.2395  0.8139
19096TIP3    H178779   0.869   1.327   3.735  1.2191  0.1388 -0.4561
19096TIP3    H278780   0.829   1.295   3.593 -1.1423  1.1236 -0.0342
19097TIP3   OH278781   3.136   0.898   5.573  0.3200  0.3331  0.0106
19097TIP3    H178782   3.192   0.830   5.611  0.1732 -0.2298 -0.7759
19097TIP3    H278783   3.178   0.921   5.491  0.0266  0.7377 -0.0282
19098TIP3   OH278784   2.788   1.222   0.341  0.5071 -0.2206 -0.2144
19098TIP3    H178785   2.850   1.184   0.403  0.3351  0.7014  0.5465
19098TIP3    H278786   2.836   1.294   0.301  0.1822  0.0105 -0.1885
19099TIP3   OH278787   0.360   6.139  16.369 -0.6502 -0.0251  0.3506
19099TIP3    H178788   0.398   6.109  16.287  0.3882  0.2537  0.7231
19099TIP3    H278789   0.362   6.235  16.364 -1.0284 -0.0066  0.4969
19100TIP3   OH278790   4.363   4.111  16.829  0.6019 -0.4873 -0.2542
19100TIP3    H178791   4.443   4.130  16.878 -0.5412 -0.4495  1.6712
19100TIP3    H278792   4.393   4.063  16.752  2.5672  0.4684 -0.1144
19101TIP3   OH278793   0.544   1.925  16.481  0.1169 -0.7469  0.4400
19101TIP3    H178794   0.616   1.909  16.419  0.7137 -1.1679  1.2442
19101TIP3    H278795   0.520   2.017  16.466  1.3668 -0.3669  0.7329
19102TIP3   OH278796   4.518   1.158  14.661 -0.2485  0.2369 -0.0614
19102TIP3    H178797   4.426   1.133  14.670  0.1678 -0.9646  0.9967
19102TIP3    H278798   4.535   1.154  14.567 -0.7593 -1.4573 -0.0978
19103TIP3   OH278799   6.498   4.854   4.111 -0.2568  0.2156 -0.0953
19103TIP3    H178800   6.549   4.869   4.031 -1.4050 -1.3506 -1.1273
19103TIP3    H278801   6.425   4.915   4.104  0.5709  1.3225  0.6254
19104TIP3   OH278802   6.287   0.836   1.037  0.3248  0.1291  0.4427
19104TIP3    H178803   6.284   0.871   0.948  1.3110  0.7726  0.6555
19104TIP3    H278804   6.268   0.911   1.093  1.0799  0.0337  0.8357
19105TIP3   OH278805   1.472   2.447   0.021 -0.0696  0.3334 -0.6108
19105TIP3    H178806   1.465   2.440  -0.075 -1.1296 -2.8437 -0.3748
19105TIP3    H278807   1.494   2.358   0.049  3.1286  1.8353  1.9174
19106TIP3   OH278808   5.667   4.783  14.273  0.0414  0.4685  0.1618
19106TIP3    H178809   5.713   4.719  14.326  1.5070  0.9147 -0.5333
19106TIP3    H278810   5.590   4.737  14.240  1.4404 -1.1761 -0.9015
19107TIP3   OH278811   1.431   6.250   1.623  0.6553  0.0714 -0.2378
19107TIP3    H178812   1.403   6.327   1.574  1.8781  0.9135  0.3719
19107TIP3    H278813   1.505   6.215   1.572  0.6607 -0.1962 -0.0476
19108TIP3   OH278814   4.799   6.056   1.244  0.1879  0.3623 -0.1211
19108TIP3    H178815   4.865   5.988   1.233 -0.9946 -0.6701 -0.9906
19108TIP3    H278816   4.803   6.107   1.163 -1.7960 -1.2642 -1.2983
19109TIP3   OH278817   1.765   0.092   4.488  0.1185  0.1404  0.0271
19109TIP3    H178818   1.856   0.067   4.498 -0.4385 -1.4943  1.1609
19109TIP3    H278819   1.723   0.063   4.569 -1.4411  0.7394 -0.5470
19110TIP3   OH278820   2.296   4.745  13.736  0.1598 -0.4314  0.0728
19110TIP3    H178821   2.247   4.699  13.668 -0.0024 -0.9969  0.5752
19110TIP3    H278822   2.231   4.774  13.798  0.4084 -0.7635  0.4909
19111TIP3   OH278823   2.169   2.860   2.321 -0.4309 -0.0547 -0.0027
19111TIP3    H178824   2.129   2.898   2.243  1.0873 -0.7804 -1.1677
19111TIP3    H278825   2.151   2.923   2.390  0.4197  1.8801 -1.4980
19112TIP3   OH278826   5.424   4.625  17.287 -0.0856  0.8592  0.4294
19112TIP3    H178827   5.480   4.576  17.227 -1.6099  0.1494 -0.4529
19112TIP3    H278828   5.367   4.677  17.229 -0.4170  1.4781  1.2940
19113TIP3   OH278829   6.660   3.526  17.170  0.0042 -0.2711 -1.0028
19113TIP3    H178830   6.667   3.494  17.080  1.5452  0.6380 -1.2222
19113TIP3    H278831   6.742   3.572  17.186 -1.1350  1.4279  0.1507
19114TIP3   OH278832   2.605   1.583  13.207 -0.0651  0.0329  0.1012
19114TIP3    H178833   2.513   1.569  13.185  0.2521 -1.1334 -0.5772
19114TIP3    H278834   2.605   1.655  13.269 -1.7070 -1.8894  2.4292
19115TIP3   OH278835   5.386   2.982  13.301 -0.3459  0.3076 -0.6988
19115TIP3    H178836   5.334   3.053  13.338  2.1912  1.4173  0.8034
19115TIP3    H278837   5.396   2.919  13.373 -1.0201 -0.7303 -1.4888
19116TIP3   OH278838   2.057   6.515  12.092 -0.5757 -0.8879 -0.0947
19116TIP3    H178839   2.019   6.429  12.113  0.7194 -1.2563  0.7772
19116TIP3    H278840   2.146   6.511  12.126 -0.8619  1.2112  0.9780
19117TIP3   OH278841   6.679   3.919   2.733  0.0513  0.3012 -0.4006
19117TIP3    H178842   6.764   3.951   2.764 -0.2293  2.8208 -2.0494
19117TIP3    H278843   6.623   3.921   2.810  0.8932  0.8762  0.2050
19118TIP3   OH278844   2.284   1.063  13.725 -0.6833 -0.4244 -0.1659
19118TIP3    H178845   2.375   1.067  13.697 -0.5330  1.9199  0.5953
19118TIP3    H278846   2.234   1.090  13.648 -0.5926  0.7405  0.1876
19119TIP3   OH278847   3.046   3.172  13.643 -0.1445  0.2146  0.1300
19119TIP3    H178848   3.067   3.141  13.556 -1.1056 -1.1230  0.3595
19119TIP3    H278849   3.096   3.254  13.653  0.4453  0.0447 -1.4155
19120TIP3   OH278850   5.108   5.309  14.565 -0.3702 -0.1140 -0.1235
19120TIP3    H178851   5.106   5.248  14.639 -2.1443  0.3501  0.2351
19120TIP3    H278852   5.143   5.390  14.601  0.9899 -0.5913 -0.3528
19121TIP3   OH278853   4.081   0.899  16.796 -0.2778 -0.0227 -0.0283
19121TIP3    H178854   4.035   0.956  16.734  0.8132  0.8809 -0.0151
19121TIP3    H278855   4.069   0.941  16.881  1.2690  0.6844 -0.1402
19122TIP3   OH278856   2.434   2.636   3.722 -0.6126 -0.0678 -0.3822
19122TIP3    H178857   2.473   2.628   3.636  0.2586 -1.3192  0.1238
19122TIP3    H278858   2.347   2.597   3.713  0.8053 -3.5629  0.1707
19123TIP3   OH278859   5.070   3.316  15.349  0.1398 -0.3818  0.0869
19123TIP3    H178860   5.128   3.265  15.292  1.4041  1.2034 -0.0770
19123TIP3    H278861   5.015   3.365  15.289  1.3508  1.1521  0.2117
19124TIP3   OH278862   3.939   5.989   4.595  0.0248 -0.8273  0.1125
19124TIP3    H178863   3.930   5.909   4.542  0.6052 -0.7010 -0.1782
19124TIP3    H278864   3.998   6.045   4.544  1.3600 -1.0967  1.3687
19125TIP3   OH278865   6.575   4.584  13.635 -0.4261 -0.0471 -0.5438
19125TIP3    H178866   6.537   4.497  13.647 -0.4826 -0.0040 -0.4070
19125TIP3    H278867   6.499   4.642  13.632 -0.3602  0.0795  0.0620
19126TIP3   OH278868   5.664   2.804  12.977 -0.3611  0.5037  0.5005
19126TIP3    H178869   5.681   2.736  13.042  0.2086  0.6805  0.5478
19126TIP3    H278870   5.593   2.856  13.014 -2.5634 -1.5841 -0.7243
19127TIP3   OH278871   4.141   1.437  12.914  0.1301  0.3365  0.0954
19127TIP3    H178872   4.175   1.381  12.844 -0.3580 -0.6530  0.6516
19127TIP3    H278873   4.217   1.455  12.970  0.0187 -0.8125  0.6174
19128TIP3   OH278874   6.595   0.369  12.139  0.3407  0.4982 -0.5076
19128TIP3    H178875   6.677   0.418  12.139 -0.1267  1.2886 -0.9516
19128TIP3    H278876   6.619   0.283  12.174  1.6488  0.2471 -1.9173
19129TIP3   OH278877   0.879   4.984  12.153  0.3050  0.1644  0.1117
19129TIP3    H178878   0.884   4.911  12.092  0.7049  1.1967 -1.1060
19129TIP3    H278879   0.943   4.963  12.221  0.3315 -0.6708 -0.1714
19130TIP3   OH278880   4.586   5.310  11.019 -0.7688  0.0033 -0.0797
19130TIP3    H178881   4.608   5.342  11.107 -2.4529  2.0128 -0.3527
19130TIP3    H278882   4.549   5.223  11.034 -0.0962 -0.1025  1.0837
19131TIP3   OH278883   2.554   2.583   6.000 -0.4569 -0.1651 -0.3959
19131TIP3    H178884   2.637   2.584   5.952  0.0998 -0.0477  0.5643
19131TIP3    H278885   2.517   2.670   5.988 -0.7121 -0.3831 -1.2729
19132TIP3   OH278886   6.587   3.997  12.504  0.2384  0.4887 -0.3249
19132TIP3    H178887   6.582   4.078  12.555 -0.0007  0.5792 -0.4895
19132TIP3    H278888   6.679   3.989  12.481  0.1749  0.9948 -0.7592
19133TIP3   OH278889   6.672   3.996   3.736 -0.4331  0.4043  0.2248
19133TIP3    H178890   6.768   3.991   3.741 -0.5551 -1.0135  1.8243
19133TIP3    H278891   6.650   4.078   3.780  0.0293  0.5642  0.1627
19134TIP3   OH278892   1.575   0.744  13.581 -0.3497 -0.0494 -0.0416
19134TIP3    H178893   1.510   0.717  13.516 -0.5110 -1.6809  0.7816
19134TIP3    H278894   1.652   0.691  13.561  0.2088  0.7406 -0.0154
19135TIP3   OH278895   5.220   5.808  13.940  0.1143 -0.7467 -0.2166
19135TIP3    H178896   5.209   5.733  13.998 -0.7019  1.8573  3.1349
19135TIP3    H278897   5.132   5.844  13.932  0.5082 -0.1051 -1.7729
19136TIP3   OH278898   0.667   3.972  13.470 -0.5302  0.2344 -0.2099
19136TIP3    H178899   0.588   3.949  13.519 -0.5558  1.9175  0.5752
19136TIP3    H278900   0.687   4.061  13.497  2.6367 -0.7691  0.9023
19137TIP3   OH278901   1.421   0.103   5.915 -0.5226  0.4500  0.3847
19137TIP3    H178902   1.377   0.136   5.836  0.5191 -0.7749 -0.7159
19137TIP3    H278903   1.351   0.062   5.965 -1.1765  1.1214  0.0344
19138TIP3   OH278904   6.546   5.757   3.937  0.5248  0.5044  0.2627
19138TIP3    H178905   6.482   5.794   3.876  1.0049  3.1264  1.2643
19138TIP3    H278906   6.599   5.698   3.883  0.3662  2.0732 -1.6893
19139TIP3   OH278907   4.211   2.776   2.964 -0.5728 -0.6244  0.3477
19139TIP3    H178908   4.270   2.830   2.910 -0.9450 -0.9569 -0.3961
19139TIP3    H278909   4.265   2.703   2.993  0.0963  0.4545  1.8482
19140TIP3   OH278910   0.488   1.891   4.735 -0.1741 -0.0964  0.2629
19140TIP3    H178911   0.424   1.962   4.735  0.3730  0.4136  1.7306
19140TIP3    H278912   0.468   1.841   4.814  1.6098  0.4180  1.0653
19141TIP3   OH278913   1.287   3.815  14.981  0.1716 -0.4055 -0.2921
19141TIP3    H178914   1.244   3.886  15.028  2.3276  1.0295 -0.4108
19141TIP3    H278915   1.306   3.852  14.895  1.5815 -1.0029 -0.2533
19142TIP3   OH278916   4.227   2.577  15.168 -0.0961  0.0328 -0.0710
19142TIP3    H178917   4.180   2.544  15.244 -0.3528 -1.2756 -0.7864
19142TIP3    H278918   4.165   2.637  15.125 -1.5083 -2.3999 -1.5375
19143TIP3   OH278919   3.044   6.039   1.182 -0.1414 -0.3271  0.2255
19143TIP3    H178920   2.985   6.071   1.114  0.3905 -0.1515 -0.1518
19143TIP3    H278921   2.996   5.968   1.225 -0.4275 -0.5076 -0.4016
19144TIP3   OH278922   1.389   6.676  16.614 -0.5488 -0.5756  0.1494
19144TIP3    H178923   1.354   6.592  16.584  0.5761 -2.0305  2.7059
19144TIP3    H278924   1.476   6.655  16.648 -1.1757  1.1299  3.0133
19145TIP3   OH278925   4.112   5.217  10.839  0.9102  1.1136 -0.3702
19145TIP3    H178926   4.184   5.271  10.807  0.7213  1.4655 -0.2028
19145TIP3    H278927   4.106   5.145  10.776  1.6276  0.8971 -0.1967
19146TIP3   OH278928   5.260   2.661  10.629  0.6810  0.0357  0.2319
19146TIP3    H178929   5.292   2.640  10.541  0.3516  0.7060 -0.0451
19146TIP3    H278930   5.276   2.755  10.639  0.0304  0.1078  0.6037
19147TIP3   OH278931   5.930   3.645   0.732  0.4950 -0.5109 -0.1140
19147TIP3    H178932   5.967   3.560   0.706 -1.5384 -0.6589 -2.7383
19147TIP3    H278933   5.961   3.658   0.821  4.8562 -1.7495 -1.3008
19148TIP3   OH278934   1.929   5.137   0.499  0.1257  0.1746 -0.7721
19148TIP3    H178935   1.889   5.120   0.414 -1.8490  2.8212 -0.4018
19148TIP3    H278936   1.962   5.226   0.493  1.5761 -0.2324  0.6683
19149TIP3   OH278937   4.536   1.338   0.460 -0.0210 -0.1981  0.0202
19149TIP3    H178938   4.531   1.323   0.365  1.1349 -1.1925  0.1050
19149TIP3    H278939   4.499   1.258   0.498  2.2381 -1.0722  0.4349
19150TIP3   OH278940   4.796   3.758  11.195  0.0338  0.2769 -0.8260
19150TIP3    H178941   4.777   3.833  11.251 -2.3506 -0.5636 -0.4551
19150TIP3    H278942   4.747   3.776  11.114 -1.1653 -1.2178 -0.4525
19151TIP3   OH278943   0.814   3.701  10.736  0.3446  0.0298 -0.0510
19151TIP3    H178944   0.897   3.654  10.727 -0.0087 -1.2120  2.6541
19151TIP3    H278945   0.830   3.766  10.804 -0.4320  0.9054 -0.6886
19152TIP3   OH278946   1.587   0.264  12.257 -0.0581 -0.1785  0.1599
19152TIP3    H178947   1.494   0.283  12.243  0.3011  1.2100 -0.4526
19152TIP3    H278948   1.607   0.193  12.197 -0.2210  0.9780 -1.2889
19153TIP3   OH278949   3.098   0.259  17.284  0.1420  0.3781 -0.0300
19153TIP3    H178950   3.047   0.307  17.220 -1.1433  0.4190  1.0049
19153TIP3    H278951   3.106   0.170  17.248 -1.4381  0.1266  0.2210
19154TIP3   OH278952   5.586   3.414   3.140  0.2951 -0.3596 -0.0857
19154TIP3    H178953   5.652   3.424   3.072  0.3205 -1.3280 -0.2172
19154TIP3    H278954   5.503   3.436   3.097  0.0716 -2.7594 -0.9666
19155TIP3   OH278955   0.256   0.447  10.337 -0.0945 -0.2868 -0.5431
19155TIP3    H178956   0.224   0.518  10.282 -1.1260  0.1979  0.6724
19155TIP3    H278957   0.345   0.474  10.360  0.9291 -1.2271 -3.2084
19156TIP3   OH278958   1.167   5.306  11.617  0.3251  0.1114  0.0840
19156TIP3    H178959   1.072   5.294  11.610  0.1590  0.1053  2.0702
19156TIP3    H278960   1.201   5.277  11.532 -1.4586  0.3399 -0.7478
19157TIP3   OH278961   4.612   5.183  14.841  0.0280 -0.5308  0.6451
19157TIP3    H178962   4.612   5.213  14.932 -1.3709  0.3883  0.3606
19157TIP3    H278963   4.549   5.241  14.797  1.4259 -0.3045 -1.1193
19158TIP3   OH278964   4.353   4.296   0.252  0.5384 -0.0564  1.2417
19158TIP3    H178965   4.323   4.277   0.341 -3.0620 -1.7342 -0.2331
19158TIP3    H278966   4.274   4.323   0.206  2.1281 -0.3393 -1.7612
19159TIP3   OH278967   0.890   1.050   6.076 -0.5251  0.2312  0.0101
19159TIP3    H178968   0.813   1.106   6.083 -1.4481 -0.8927 -0.8771
19159TIP3    H278969   0.890   1.022   5.984 -0.8509 -2.2474  0.7286
19160TIP3   OH278970   0.611   0.819  15.834 -0.0995 -0.1853 -0.2448
19160TIP3    H178971   0.601   0.875  15.911  2.8228 -1.4011  1.1330
19160TIP3    H278972   0.646   0.877  15.767  2.4736 -0.1768  1.0311
19161TIP3   OH278973   0.702   6.613  14.596  0.5273 -0.3280  0.2534
19161TIP3    H178974   0.615   6.584  14.569  0.0180 -0.2462  1.7279
19161TIP3    H278975   0.685   6.670  14.672  1.9671 -1.7763  1.7106
19162TIP3   OH278976   6.521   0.191   4.825  0.8215  0.3104 -0.6364
19162TIP3    H178977   6.486   0.244   4.898  0.5469 -1.0503  0.2410
19162TIP3    H278978   6.613   0.217   4.819  0.5873  1.2128 -0.5176
19163TIP3   OH278979   4.175   4.351  13.384  0.3684  0.3182  0.3873
19163TIP3    H178980   4.236   4.299  13.332  0.6011 -0.0189  0.9894
19163TIP3    H278981   4.162   4.431  13.333 -0.3641 -0.5283 -0.7665
19164TIP3   OH278982   5.364   5.817   4.211 -0.1970 -0.0948 -0.0339
19164TIP3    H178983   5.395   5.773   4.132 -0.9748 -4.3782  1.8725
19164TIP3    H278984   5.269   5.818   4.202 -0.1876  1.0284  0.0195
19165TIP3   OH278985   5.761   1.664   5.359  0.0693  0.2378  0.0468
19165TIP3    H178986   5.716   1.748   5.355 -0.5051  0.0188  1.4873
19165TIP3    H278987   5.725   1.613   5.287 -1.3253  0.3986  0.6269
19166TIP3   OH278988   2.943   4.557   1.294 -0.2280 -0.2476 -0.6331
19166TIP3    H178989   2.944   4.619   1.367 -0.2792 -0.1225 -0.7395
19166TIP3    H278990   2.961   4.472   1.335 -0.1070 -0.1558 -0.4947
19167TIP3   OH278991   2.456   6.166   4.242  0.6471  0.0701 -0.1980
19167TIP3    H178992   2.433   6.188   4.332  0.2831 -0.2955 -0.1984
19167TIP3    H278993   2.428   6.242   4.190  0.5953  0.1592 -0.0383
19168TIP3   OH278994   0.536   1.839   2.552 -0.1499  0.2464 -0.1361
19168TIP3    H178995   0.566   1.894   2.479 -2.1698  1.2067 -0.2955
19168TIP3    H278996   0.482   1.898   2.605  1.1454 -0.4890  2.0524
19169TIP3   OH278997   1.822   2.930   0.041  0.3526 -0.0001  0.2963
19169TIP3    H178998   1.860   2.924  -0.046  0.7496  1.3676  0.3697
19169TIP3    H278999   1.735   2.967   0.027 -0.2577 -1.3796  0.3237
19170TIP3   OH279000   6.074   3.135   0.020  0.2766  0.1329 -0.5645
19170TIP3    H179001   6.032   3.209  -0.023 -0.2164  0.1213 -0.1098
19170TIP3    H279002   6.112   3.171   0.100 -2.7331 -0.6669  1.3089
19171TIP3   OH279003   6.677   0.231  12.842  0.4920 -0.3432 -0.3515
19171TIP3    H179004   6.597   0.226  12.894  0.9587  0.3429  0.4469
19171TIP3    H279005   6.720   0.147  12.856  0.6434 -0.1424  0.4347
19172TIP3   OH279006   2.688   4.537   4.798  0.3712 -0.1715 -0.0414
19172TIP3    H179007   2.608   4.500   4.836 -0.4722  0.9831 -0.6465
19172TIP3    H279008   2.673   4.632   4.798  1.3807  0.0012 -0.9491
19173TIP3   OH279009   2.892   1.735  11.618  0.2464  0.4591 -0.2692
19173TIP3    H179010   2.930   1.804  11.563  1.9997 -0.4944 -0.2918
19173TIP3    H279011   2.834   1.686  11.559 -0.9584  1.8657 -0.2616
19174TIP3   OH279012   0.779   6.111  13.027 -0.5775  0.1187  0.1665
19174TIP3    H179013   0.695   6.066  13.033 -1.0485  0.8100 -1.1970
19174TIP3    H279014   0.769   6.172  12.955  0.8518  0.7456  0.4809
19175TIP3   OH279015   3.554   1.922   0.472  0.3905 -0.0358 -0.0540
19175TIP3    H179016   3.594   1.988   0.415  0.0685  0.6881  0.5532
19175TIP3    H279017   3.463   1.916   0.440  0.2496  0.2664  0.2888
19176TIP3   OH279018   3.532   1.867   3.940  0.2388 -0.7218 -0.1640
19176TIP3    H179019   3.490   1.949   3.916 -0.6794 -2.0196 -3.3009
19176TIP3    H279020   3.473   1.828   4.005  0.3567  0.7829  0.8525
19177TIP3   OH279021   2.082   3.816  16.635 -0.6216 -0.3063 -0.4866
19177TIP3    H179022   2.117   3.859  16.713  1.6109  1.2245 -2.3084
19177TIP3    H279023   1.989   3.804  16.655 -0.0281 -0.3043  2.5585
19178TIP3   OH279024   6.520   1.550  16.009  0.2924  0.1699  0.1638
19178TIP3    H179025   6.492   1.509  15.928 -1.7003  1.7978 -0.0163
19178TIP3    H279026   6.439   1.586  16.047  0.9003 -1.8814  3.6452
19179TIP3   OH279027   0.447   5.105  16.240 -0.3949  0.2998 -0.3089
19179TIP3    H179028   0.493   5.029  16.274  1.3957  0.3572 -2.4727
19179TIP3    H279029   0.354   5.085  16.255  0.1803 -0.9036  1.9070
19180TIP3   OH279030   3.229   2.841  13.033 -0.4584  0.1343 -0.3498
19180TIP3    H179031   3.291   2.836  12.960 -0.8149  1.2775 -0.7377
19180TIP3    H279032   3.226   2.752  13.068  0.9050 -0.0793 -0.7462
19181TIP3   OH279033   4.346   0.662   1.300 -0.1871  0.2701  0.2110
19181TIP3    H179034   4.394   0.585   1.270  1.3367  0.0255  3.1551
19181TIP3    H279035   4.386   0.735   1.254 -0.4791 -0.4664 -1.2626
19182TIP3   OH279036   3.665   6.767   3.239 -0.4637  0.1729 -0.4985
19182TIP3    H179037   3.751   6.762   3.281 -0.5799 -0.0546 -0.2858
19182TIP3    H279038   3.653   6.860   3.220 -0.4913  0.3050  0.1521
19183TIP3   OH279039   2.003   2.432  14.347 -0.7711 -0.4995  0.0904
19183TIP3    H179040   2.061   2.377  14.295  0.3023  0.4314  0.2848
19183TIP3    H279041   1.992   2.384  14.429 -1.2862 -1.2671 -0.4202
19184TIP3   OH279042   2.855   6.681  15.911 -0.3348  0.1783 -0.6007
19184TIP3    H179043   2.879   6.617  15.978 -0.6203 -2.3175 -2.7746
19184TIP3    H279044   2.938   6.711  15.875 -0.2392 -1.5456 -1.8695
19185TIP3   OH279045   5.844   4.272   6.038  0.0126  0.4483 -0.0667
19185TIP3    H179046   5.917   4.246   5.983 -0.2359 -1.0405  0.2955
19185TIP3    H279047   5.790   4.327   5.982  1.4053  1.5640 -0.3292
19186TIP3   OH279048   0.985   3.696  14.935 -0.0480 -0.6185  0.0189
19186TIP3    H179049   1.012   3.676  15.024  0.3713 -1.1100 -0.2154
19186TIP3    H279050   1.036   3.773  14.911  0.4690 -0.9928 -0.0938
19187TIP3   OH279051   0.186   2.996  11.676 -0.1365  0.5972 -0.0811
19187TIP3    H179052   0.204   2.917  11.624 -1.6184  0.4533 -0.4187
19187TIP3    H279053   0.259   3.055  11.656  1.6495 -1.1337  1.1347
19188TIP3   OH279054   3.844   6.228  12.026 -0.2916  0.4878 -0.0971
19188TIP3    H179055   3.881   6.261  12.108 -1.2965 -0.3151  0.6882
19188TIP3    H279056   3.759   6.271  12.018 -0.7938 -0.4671 -0.0096
19189TIP3   OH279057   1.322   6.763  14.312 -0.0711  0.0078 -0.5488
19189TIP3    H179058   1.358   6.817  14.242  1.1050  1.2552  0.9952
19189TIP3    H279059   1.228   6.761  14.295 -0.1150  2.4487 -0.6862
19190TIP3   OH279060   0.125   4.822   0.938 -0.0494 -0.0786 -0.0623
19190TIP3    H179061   0.186   4.802   0.868 -0.1459  2.1017 -0.8101
19190TIP3    H279062   0.043   4.846   0.893 -0.5820 -0.2046  0.8283
19191TIP3   OH279063   5.866   4.073  12.443 -0.0012 -0.2785 -0.1614
19191TIP3    H179064   5.846   3.982  12.419  4.8846 -1.3242 -0.7240
19191TIP3    H279065   5.934   4.065  12.510  0.0285  2.9815  0.2565
19192TIP3   OH279066   4.887   3.801  12.296  0.3284  0.0528 -0.3974
19192TIP3    H179067   4.824   3.871  12.312  0.0890  0.2815 -2.2204
19192TIP3    H279068   4.971   3.847  12.288  0.4147 -0.0362  0.0042
19193TIP3   OH279069   5.268   0.420  13.558 -0.2575 -0.9644 -0.3541
19193TIP3    H179070   5.352   0.452  13.526 -0.2216 -2.1763 -1.5506
19193TIP3    H279071   5.204   0.485  13.529  0.2138 -0.2346  0.2302
19194TIP3   OH279072   5.979   5.455  17.007 -0.1336 -0.8333  0.2637
19194TIP3    H179073   6.034   5.531  16.989  0.2772 -0.5113  2.6918
19194TIP3    H279074   5.889   5.490  17.005  0.0542 -0.2710  1.3677
19195TIP3   OH279075   6.589   3.932   2.462  0.2205  0.0727  0.0046
19195TIP3    H179076   6.681   3.945   2.441  0.0551  0.9273 -0.2052
19195TIP3    H279077   6.590   3.898   2.552  0.7335  0.0643 -0.0023
19196TIP3   OH279078   1.417   0.163  14.046 -0.6490 -0.3230  0.0178
19196TIP3    H179079   1.339   0.108  14.048 -1.5132  0.6873 -3.3778
19196TIP3    H279080   1.428   0.186  13.954  2.3020  1.4821  0.7688
19197TIP3   OH279081   4.354   3.260   2.486  0.3268  0.3917 -0.6657
19197TIP3    H179082   4.313   3.340   2.518  0.7735  0.3545  0.0139
19197TIP3    H279083   4.282   3.199   2.474  0.1360  0.4739  0.0863
19198TIP3   OH279084   0.626   0.529   1.157 -0.4535  0.4963 -0.1368
19198TIP3    H179085   0.630   0.478   1.239  0.3802  0.7172 -0.0379
19198TIP3    H279086   0.676   0.608   1.176 -0.2241  0.5280 -0.8767
19199TIP3   OH279087   3.872   4.670   3.428  0.1052 -0.3159 -0.5371
19199TIP3    H179088   3.866   4.616   3.507  1.2927 -1.4332 -1.1875
19199TIP3    H279089   3.785   4.665   3.389 -0.2467 -0.4492  0.2410
19200TIP3   OH279090   4.023   5.897  11.734  0.0721 -0.3565  0.0180
19200TIP3    H179091   4.055   5.808  11.744  1.1321 -0.0738 -0.7254
19200TIP3    H279092   3.991   5.901  11.644 -1.3778 -0.4141  0.5202
19201TIP3   OH279093   0.681   1.157   6.633  0.9391  0.5040  0.1148
19201TIP3    H179094   0.686   1.064   6.656 -0.6182  0.8562  2.0207
19201TIP3    H279095   0.768   1.191   6.653  1.3229 -0.4076  0.0259
19202TIP3   OH279096   3.536   5.851   6.160 -0.0468  0.3048  0.0900
19202TIP3    H179097   3.461   5.905   6.137 -1.0151  0.1084  2.6788
19202TIP3    H279098   3.499   5.764   6.177  1.1069 -0.4419 -1.0498
19203TIP3   OH279099   2.891   5.276   2.909 -0.3803 -0.1899 -0.3437
19203TIP3    H179100   2.924   5.260   2.998 -1.2187  0.1270  0.0342
19203TIP3    H279101   2.949   5.344   2.875 -1.2712  1.1515  0.7218
19204TIP3   OH279102   4.745   6.241   5.668  0.7889 -0.0491  0.3743
19204TIP3    H179103   4.660   6.199   5.653  0.8579 -0.6708  1.6810
19204TIP3    H279104   4.771   6.272   5.581 -0.8922  0.3820 -0.0112
19205TIP3   OH279105   4.455   2.004   0.043 -0.4072  0.1099 -0.2990
19205TIP3    H179106   4.513   1.933   0.069 -0.2754 -0.6784 -2.6524
19205TIP3    H279107   4.514   2.074   0.015 -0.5509  0.9759  1.4322
19206TIP3   OH279108   1.104   1.110  13.924 -0.5755  0.4180 -0.2577
19206TIP3    H179109   1.061   1.034  13.885 -0.3297  0.3455 -0.3918
19206TIP3    H279110   1.192   1.110  13.885 -1.1016  1.7196 -1.5117
19207TIP3   OH279111   0.915   2.709   2.098  0.0113 -0.0327 -0.6531
19207TIP3    H179112   0.835   2.733   2.146 -0.1266 -0.3658 -0.7139
19207TIP3    H279113   0.971   2.667   2.165 -0.0609 -0.2311 -0.7163
19208TIP3   OH279114   2.927   5.888  15.008 -0.1892  0.2334 -0.1356
19208TIP3    H179115   3.017   5.917  14.994  0.0220 -0.0338  0.6869
19208TIP3    H279116   2.920   5.807  14.957  0.1928 -0.0354  0.2423
19209TIP3   OH279117   3.756   0.787   4.698 -0.0968 -0.0505 -0.3930
19209TIP3    H179118   3.814   0.859   4.673  0.4732 -0.7496 -1.1308
19209TIP3    H279119   3.729   0.808   4.787  0.1848  0.9995 -0.5431
19210TIP3   OH279120   5.970   3.435  14.937  0.5550  0.4925  0.3908
19210TIP3    H179121   5.945   3.494  15.008  0.1600 -0.3243  0.9464
19210TIP3    H279122   6.056   3.465  14.909 -0.3067  2.2898 -0.3795
19211TIP3   OH279123   2.112   0.665   4.080 -0.6071 -0.1356  0.2974
19211TIP3    H179124   2.162   0.695   4.003 -0.0275  2.2264  1.5293
19211TIP3    H279125   2.172   0.608   4.127 -0.0536  0.4606  0.3176
19212TIP3   OH279126   3.913   3.689  15.578  0.5467 -0.0237  0.2828
19212TIP3    H179127   3.942   3.779  15.593 -1.1128  0.2770  1.9832
19212TIP3    H279128   3.884   3.659  15.665  0.4708 -1.9721 -0.3901
19213TIP3   OH279129   0.530   5.361  13.486 -0.9868 -0.3320 -0.2354
19213TIP3    H179130   0.583   5.382  13.409 -1.1457 -0.5714 -0.4131
19213TIP3    H279131   0.477   5.440  13.500  0.7040  0.6200  1.0544
19214TIP3   OH279132   5.194   5.352  14.168 -0.1209 -0.0418  0.0744
19214TIP3    H179133   5.229   5.268  14.140 -0.2020  0.4316 -1.4782
19214TIP3    H279134   5.270   5.410  14.174 -0.3579  0.3983 -1.1444
19215TIP3   OH279135   3.557   5.177   5.338 -0.2818 -0.0498 -0.0738
19215TIP3    H179136   3.568   5.106   5.275 -0.0063 -0.0866  0.0121
19215TIP3    H279137   3.463   5.192   5.342 -0.2451  0.5645 -1.1768
19216TIP3   OH279138   1.272   1.578  11.992  0.2982  0.2019 -0.4610
19216TIP3    H179139   1.235   1.657  12.033  3.2547  0.8528  1.0645
19216TIP3    H279140   1.348   1.610  11.944  2.4537 -1.9134  1.4728
19217TIP3   OH279141   1.662   4.628  17.110  0.0287  0.1041 -0.1723
19217TIP3    H179142   1.731   4.567  17.137  2.2608  1.8124 -1.8309
19217TIP3    H279143   1.601   4.629  17.183  1.7623 -1.4385  1.3407
19218TIP3   OH279144   6.691   3.703  14.565 -0.6330  0.1460 -0.1043
19218TIP3    H179145   6.707   3.623  14.515  1.2123  0.9487 -0.8539
19218TIP3    H279146   6.777   3.726  14.601 -1.2615  1.4684  0.5799
19219TIP3   OH279147   3.877   1.030   0.731 -0.8668  0.1698 -0.4193
19219TIP3    H179148   3.839   0.967   0.791 -0.6418  0.4849  0.0569
19219TIP3    H279149   3.904   0.978   0.655  0.5213 -0.5216  0.5245
19220TIP3   OH279150   6.323   6.347   4.768 -0.5808  0.1239 -0.2759
19220TIP3    H179151   6.373   6.359   4.849  1.0698 -0.2032 -1.2488
19220TIP3    H279152   6.317   6.435   4.731  2.3438 -0.3294 -1.9518
19221TIP3   OH279153   1.474   6.578   0.331  0.3909 -0.2747 -0.4830
19221TIP3    H179154   1.381   6.591   0.352  0.7849  1.6447  0.1796
19221TIP3    H279155   1.504   6.514   0.395 -0.5936 -1.2995 -1.0309
19222TIP3   OH279156   2.490   4.461  11.633 -0.1017 -0.6394 -0.1420
19222TIP3    H179157   2.449   4.402  11.696  0.9164 -0.0263  1.1216
19222TIP3    H279158   2.584   4.455  11.652  0.1774 -0.0279 -1.2409
19223TIP3   OH279159   6.619   0.448   5.537 -0.4549 -0.1589  0.7180
19223TIP3    H179160   6.711   0.471   5.521  0.3881 -2.4156  2.1151
19223TIP3    H279161   6.606   0.365   5.491 -2.4300  1.1660 -1.2290
19224TIP3   OH279162   3.237   1.624   1.584  0.5842  0.4068  0.1246
19224TIP3    H179163   3.182   1.561   1.630 -1.3809  1.0787 -1.2154
19224TIP3    H279164   3.320   1.579   1.571 -0.3358 -1.4183  0.3901
19225TIP3   OH279165   3.711   5.183   1.254  0.9013  0.0911 -0.5907
19225TIP3    H179166   3.699   5.210   1.345  2.3040  0.5020 -0.5248
19225TIP3    H279167   3.660   5.101   1.247  2.0831 -0.8140  0.9942
19226TIP3   OH279168   4.772   3.783   0.867  0.2526  0.0904 -0.2520
19226TIP3    H179169   4.715   3.726   0.816  0.7594  0.1733 -0.9158
19226TIP3    H279170   4.712   3.837   0.919 -0.2535 -0.2366 -0.4958
19227TIP3   OH279171   4.328   6.371  17.206  0.0762  0.4078  0.1965
19227TIP3    H179172   4.357   6.306  17.142  1.4361  1.4696 -0.2756
19227TIP3    H279173   4.407   6.417  17.232 -0.6126  0.6526  1.9150
19228TIP3   OH279174   5.700   6.194  12.533  0.4895 -0.1850 -0.2772
19228TIP3    H179175   5.692   6.238  12.618  1.5956  1.4469 -0.9760
19228TIP3    H279176   5.655   6.252  12.472  0.6346 -0.7960 -0.9727
19229TIP3   OH279177   5.746   3.337  14.648 -0.0447  0.4475  0.1713
19229TIP3    H179178   5.808   3.277  14.689 -0.7656  0.6437  1.5729
19229TIP3    H279179   5.661   3.295  14.660 -0.6657  2.0960  1.8856
19230TIP3   OH279180   4.511   5.386  14.463  0.2545  0.0061  0.1933
19230TIP3    H179181   4.543   5.399  14.374  0.9773  0.2946  0.4932
19230TIP3    H279182   4.589   5.367  14.515 -0.4221 -2.3618  0.3703
19231TIP3   OH279183   3.429   0.828   0.449 -0.0114  0.0221  0.5646
19231TIP3    H179184   3.515   0.846   0.413 -0.9489  0.6604 -1.3905
19231TIP3    H279185   3.415   0.897   0.514  1.0248 -0.2132  1.0514
19232TIP3   OH279186   2.984   1.577  14.764 -0.1901 -0.0926 -0.6309
19232TIP3    H179187   2.889   1.592  14.761 -0.0627  0.4281 -3.4704
19232TIP3    H279188   2.993   1.490  14.803 -2.0538 -1.5605 -3.2601
19233TIP3   OH279189   6.303   6.591  11.952 -0.5042  0.4482 -0.2499
19233TIP3    H179190   6.385   6.612  11.996 -0.5329  1.0556 -0.4820
19233TIP3    H279191   6.248   6.552  12.020 -0.9517  2.4070  0.5138
19234TIP3   OH279192   3.706   0.118  12.633  0.2371  0.8337  0.3997
19234TIP3    H179193   3.774   0.127  12.566 -0.2341  1.7047  0.0293
19234TIP3    H279194   3.675   0.028  12.623 -0.4664  1.2272 -1.1994
19235TIP3   OH279195   4.447   6.099  15.318  0.1015 -0.1979 -0.2676
19235TIP3    H179196   4.413   6.189  15.318  0.0341 -0.2229 -0.0636
19235TIP3    H279197   4.369   6.045  15.329  0.0558 -0.3123 -1.1414
19236TIP3   OH279198   4.803   5.461   5.422 -0.5468  0.1838 -0.2333
19236TIP3    H179199   4.839   5.376   5.449  0.7566  1.1456  1.1553
19236TIP3    H279200   4.876   5.505   5.379 -0.7691  1.2262  0.4595
19237TIP3   OH279201   4.875   2.759  12.372 -0.1762 -0.6928 -0.1829
19237TIP3    H179202   4.943   2.710  12.418 -0.9254 -1.7999 -0.2435
19237TIP3    H279203   4.802   2.763  12.433 -0.2512  0.0274 -0.3192
19238TIP3   OH279204   0.939   1.693   1.637  0.1892 -0.2697  0.3883
19238TIP3    H179205   0.894   1.676   1.554 -0.3277  1.2348  0.3474
19238TIP3    H279206   0.972   1.608   1.664 -0.1029 -0.8709 -1.0972
19239TIP3   OH279207   2.096   1.988  14.031  0.2991 -0.1916  0.2256
19239TIP3    H179208   2.155   1.943  13.971  0.5212 -0.4862  0.6695
19239TIP3    H279209   2.015   1.937  14.027  0.1144  0.1381 -0.2838
19240TIP3   OH279210   0.272   2.760   5.424 -0.2317 -0.1925 -0.7918
19240TIP3    H179211   0.257   2.849   5.392  0.6379  0.4575  0.5615
19240TIP3    H279212   0.322   2.718   5.354  0.7842  0.8957 -0.7423
19241TIP3   OH279213   2.775   1.931   3.027  0.2614 -0.0515 -0.0519
19241TIP3    H179214   2.720   1.873   2.975  0.6047 -0.2318 -0.2161
19241TIP3    H279215   2.732   2.016   3.023 -2.1165 -1.0138  2.9777
19242TIP3   OH279216   2.923   6.791  13.528 -0.3114  0.3785 -0.6484
19242TIP3    H179217   2.959   6.702  13.531 -0.1798  0.3992 -1.5094
19242TIP3    H279218   2.852   6.786  13.464 -1.5547  0.4528  0.7029
19243TIP3   OH279219   6.729   5.401  13.808  0.5425 -0.0163 -0.1241
19243TIP3    H179220   6.789   5.474  13.822  0.2655  0.5516 -1.7188
19243TIP3    H279221   6.665   5.435  13.745  0.9900 -1.9230 -1.6700
19244TIP3   OH279222   5.006   0.881   5.359 -0.3567 -0.0733 -0.1059
19244TIP3    H179223   5.025   0.806   5.416  2.4304  0.5797 -0.1020
19244TIP3    H279224   5.034   0.853   5.272  1.9966  1.3525  0.1228
19245TIP3   OH279225   3.382   2.784   3.117  0.5027 -0.2160  0.1275
19245TIP3    H179226   3.344   2.708   3.071 -0.0904 -0.1864  0.5596
19245TIP3    H279227   3.325   2.857   3.092  1.3262  0.1700 -0.6288
19246TIP3   OH279228   2.793   5.801   0.613  0.3646 -0.6245  0.4312
19246TIP3    H179229   2.859   5.862   0.580 -0.0685  1.1061  2.6783
19246TIP3    H279230   2.710   5.838   0.583  0.2234 -1.2659  0.0198
19247TIP3   OH279231   2.520   2.416  16.260  0.3540  0.0649 -0.5873
19247TIP3    H179232   2.614   2.418  16.274  0.1058  0.6756  1.1700
19247TIP3    H279233   2.483   2.393  16.346 -1.0758 -0.6168 -1.3497
19248TIP3   OH279234   4.743   5.775  14.559 -0.2297 -0.6458 -0.0359
19248TIP3    H179235   4.735   5.719  14.636 -0.1651 -2.8110 -1.5833
19248TIP3    H279236   4.657   5.772  14.517 -0.2010  0.3535 -0.1970
19249TIP3   OH279237   4.622   3.127   0.638 -0.0527 -0.1193  0.1632
19249TIP3    H179238   4.667   3.173   0.567 -0.0222 -0.2696  0.0837
19249TIP3    H279239   4.693   3.102   0.698  0.0509 -0.8787 -0.2562
19250TIP3   OH279240   5.108   6.553  14.278 -0.1612  0.2331 -0.6156
19250TIP3    H179241   5.112   6.620  14.209 -1.1380 -0.5644 -1.4589
19250TIP3    H279242   5.097   6.604  14.359  1.1807  1.1814 -1.0131
19251TIP3   OH279243   5.868   4.145  15.470  0.3244 -0.2452 -0.0991
19251TIP3    H179244   5.833   4.105  15.391 -0.6926  0.8721 -0.2192
19251TIP3    H279245   5.929   4.211  15.438 -1.2185  1.2477  0.0139
19252TIP3   OH279246   3.031   5.089   6.322 -0.4495  0.3128  0.0266
19252TIP3    H179247   3.119   5.120   6.343 -0.8153  1.4847 -0.1111
19252TIP3    H279248   2.973   5.160   6.351 -1.0976  1.2060 -3.2547
19253TIP3   OH279249   1.120   6.054  13.558 -0.1715 -0.0650 -0.0751
19253TIP3    H179250   1.192   5.992  13.572 -0.5072 -1.0086 -2.4209
19253TIP3    H279251   1.163   6.138  13.545  0.3041  0.1839  2.7526
19254TIP3   OH279252   2.089   0.561   1.731  0.4379  0.3773  0.4401
19254TIP3    H179253   2.108   0.469   1.751  1.6708  0.1999 -1.4413
19254TIP3    H279254   2.007   0.557   1.681 -0.1792  0.4342  1.4211
19255TIP3   OH279255   6.683   3.689  12.434 -0.8890 -0.3424  0.1278
19255TIP3    H179256   6.695   3.739  12.353 -1.4573  0.0331  0.2720
19255TIP3    H279257   6.712   3.749  12.503 -2.6567  0.2372  0.4012
19256TIP3   OH279258   5.640   2.859  11.002 -0.1402  0.1781  0.4698
19256TIP3    H179259   5.585   2.864  11.081 -2.5761 -0.6636 -1.1350
19256TIP3    H279260   5.693   2.780  11.016 -1.2495 -0.5219  0.8535
19257TIP3   OH279261   0.918   6.497  16.953  0.3657 -0.1243 -0.2812
19257TIP3    H179262   0.861   6.556  17.003 -0.9297 -0.5107 -1.2774
19257TIP3    H279263   0.991   6.552  16.925 -0.0090  0.6174  0.1743
19258TIP3   OH279264   3.903   3.890  11.707  0.4551  0.1427 -0.0715
19258TIP3    H179265   3.962   3.937  11.649 -2.1822  0.7138 -2.4093
19258TIP3    H279266   3.849   3.836  11.648 -0.2570 -1.6099  2.1050
19259TIP3   OH279267   4.944   5.174   0.437 -0.4104 -0.0178 -0.2881
19259TIP3    H179268   5.033   5.200   0.459 -0.6586 -0.1420  0.8723
19259TIP3    H279269   4.955   5.088   0.394 -0.0972 -0.7521  1.2366
19260TIP3   OH279270   3.391   2.370  14.021 -0.2272 -0.0311 -0.1700
19260TIP3    H179271   3.346   2.451  14.046 -0.9449  0.0471 -1.6410
19260TIP3    H279272   3.333   2.330  13.957  0.5929 -1.2425 -0.1728
19261TIP3   OH279273   2.527   6.341   2.987 -0.3209 -0.6090  0.4250
19261TIP3    H179274   2.567   6.407   2.930 -0.9777  0.6082  1.3647
19261TIP3    H279275   2.475   6.286   2.928  1.4045 -1.1958 -0.5699
19262TIP3   OH279276   6.202   2.993  13.387 -0.4167  0.1792  0.3712
19262TIP3    H179277   6.135   2.982  13.454  0.3798  0.4085  1.2077
19262TIP3    H279278   6.224   2.904  13.360  1.3170 -0.0657  2.4698
19263TIP3   OH279279   4.344   5.407  11.474 -0.7320  0.5108  0.2390
19263TIP3    H179280   4.417   5.459  11.441  0.3203 -1.2831 -0.3253
19263TIP3    H279281   4.266   5.458  11.450  0.2986  2.3895  0.7377
19264TIP3   OH279282   5.211   0.048   1.823  0.5218  0.0938 -0.2673
19264TIP3    H179283   5.158   0.058   1.743 -0.1497 -0.9393  0.0321
19264TIP3    H279284   5.300   0.067   1.795  0.0604  1.4330 -0.8861
19265TIP3   OH279285   4.941   2.966  16.236  0.4862  0.0316  0.0257
19265TIP3    H179286   4.987   2.884  16.253  0.6649  0.8094  3.8024
19265TIP3    H279287   4.894   2.952  16.154  0.9124 -3.6367  0.3597
19266TIP3   OH279288   3.110   1.500  14.128 -0.2780  0.3762 -0.4221
19266TIP3    H179289   3.127   1.406  14.120 -1.5226  0.0307  0.7480
19266TIP3    H279290   3.095   1.514  14.222 -2.4814  1.3058 -0.8690
19267TIP3   OH279291   1.169   5.222  14.901 -0.3268 -0.1901 -0.1543
19267TIP3    H179292   1.132   5.281  14.836 -0.7389 -2.1508 -1.7421
19267TIP3    H279293   1.099   5.211  14.966 -0.9756 -0.4710 -0.8887
19268TIP3   OH279294   1.696   3.712  16.948 -0.5039  0.8615 -0.8879
19268TIP3    H179295   1.658   3.800  16.953 -0.7621  0.7467 -0.8441
19268TIP3    H279296   1.700   3.683  17.039 -1.2524  0.4695 -0.9784
19269TIP3   OH279297   2.590   5.092  16.775 -0.1910  0.2081  0.3805
19269TIP3    H179298   2.498   5.081  16.751  0.1073 -0.9038 -0.2868
19269TIP3    H279299   2.588   5.139  16.858 -1.4616 -2.3634  1.8554
19270TIP3   OH279300   3.881   4.505  13.931 -0.0325  0.7553  0.0219
19270TIP3    H179301   3.882   4.467  14.019  1.1598  1.5413  0.3547
19270TIP3    H279302   3.803   4.468  13.890 -0.6264  0.4147  1.4289
19271TIP3   OH279303   4.654   0.940  11.213  0.0320  0.1109 -0.1181
19271TIP3    H179304   4.675   0.920  11.304 -0.5518 -0.6719 -0.1445
19271TIP3    H279305   4.577   0.886  11.194  0.5019 -0.1851 -1.2520
19272TIP3   OH279306   3.438   2.327   3.936 -0.4140  0.0054 -0.4280
19272TIP3    H179307   3.510   2.276   3.900  0.3438  0.0982  0.9086
19272TIP3    H279308   3.461   2.418   3.916 -0.5476 -0.0240 -0.7033
19273TIP3   OH279309   1.468   1.234  11.096  0.1144  0.0583  0.1222
19273TIP3    H179310   1.534   1.238  11.027  2.7704 -1.9443  2.4676
19273TIP3    H279311   1.406   1.167  11.066  0.5207  0.1240 -0.8861
19274TIP3   OH279312   1.417   0.978  15.031 -0.0946  0.1757 -0.4364
19274TIP3    H179313   1.328   1.014  15.031 -0.0383  0.3174 -0.3774
19274TIP3    H279314   1.453   1.005  15.116 -0.6215 -1.4351  0.3194
19275TIP3   OH279315   6.143   2.007  11.384 -0.4747  0.0272 -0.2211
19275TIP3    H179316   6.157   2.101  11.392 -0.6942  0.0660 -0.2800
19275TIP3    H279317   6.114   1.994  11.294  0.1607 -0.1774 -0.4006
19276TIP3   OH279318   2.102   3.617  16.868  0.0344 -0.8607 -0.7400
19276TIP3    H179319   2.052   3.655  16.795 -3.3364 -1.2624  1.2440
19276TIP3    H279320   2.102   3.523  16.850  1.5818 -0.7017 -1.6118
19277TIP3   OH279321   0.132   0.817  12.302 -0.1505  0.1867  0.1005
19277TIP3    H179322   0.172   0.847  12.221 -0.6770  0.9962  0.1330
19277TIP3    H279323   0.183   0.859  12.371  0.2024 -0.3821  0.1891
19278TIP3   OH279324   4.608   4.537   1.472  0.1445 -0.2761  0.7805
19278TIP3    H179325   4.694   4.507   1.498 -0.4444 -1.1100  1.7844
19278TIP3    H279326   4.608   4.529   1.376  0.2624 -2.7831  0.9698
19279TIP3   OH279327   2.082   3.898  15.591  0.0401  0.0340 -0.2748
19279TIP3    H179328   2.163   3.888  15.642  0.6127 -0.9045 -1.3402
19279TIP3    H279329   2.108   3.953  15.517 -0.6393  0.8858  0.1146
19280TIP3   OH279330   3.815   2.189   4.322 -0.0074 -0.7860 -0.2075
19280TIP3    H179331   3.870   2.248   4.271 -2.0211 -0.2623 -1.8298
19280TIP3    H279332   3.735   2.239   4.340  0.6033 -0.9594  3.4647
19281TIP3   OH279333   0.771   6.430   3.444 -0.2566  0.0110 -0.5471
19281TIP3    H179334   0.750   6.415   3.351  0.8403  0.0964 -0.8175
19281TIP3    H279335   0.861   6.462   3.443 -1.3478  3.3178  0.2830
19282TIP3   OH279336   5.035   5.144   4.721  0.0575  0.0158 -0.1535
19282TIP3    H179337   5.070   5.056   4.738  2.0320  0.9364  0.6272
19282TIP3    H279338   5.102   5.204   4.753 -0.9317  1.8328 -1.3763
19283TIP3   OH279339   2.687   1.665   0.791  0.6120  0.1961  0.1026
19283TIP3    H179340   2.781   1.650   0.799  0.5709  0.7144  1.5969
19283TIP3    H279341   2.648   1.578   0.797  1.1320 -0.2931 -2.9254
19284TIP3   OH279342   1.090   0.410  16.926 -0.4916  0.3695  0.2661
19284TIP3    H179343   1.076   0.501  16.902  0.4138  0.1670 -1.1181
19284TIP3    H279344   1.151   0.377  16.859  0.9706 -0.6297  2.0365
19285TIP3   OH279345   2.078   0.801   5.491  0.4036  0.1738 -0.5965
19285TIP3    H179346   2.084   0.897   5.486 -0.5351  0.3420  1.0750
19285TIP3    H279347   2.166   0.772   5.515  0.5809  0.6438 -0.6750
19286TIP3   OH279348   4.898   4.296   5.118 -0.2211 -0.5923  0.5332
19286TIP3    H179349   4.913   4.246   5.198  0.7264 -0.6151  0.3525
19286TIP3    H279350   4.951   4.251   5.052  0.2929  0.3855  0.2687
19287TIP3   OH279351   4.131   6.649  12.040  0.2704 -0.2305  0.8772
19287TIP3    H179352   4.151   6.614  12.127 -0.9896 -0.1915  1.1877
19287TIP3    H279353   4.124   6.573  11.984 -0.6071 -0.3741  1.1693
19288TIP3   OH279354   2.116   6.114   4.713 -0.3402 -0.5285  0.0919
19288TIP3    H179355   2.028   6.142   4.686  0.0851  1.1017  0.3521
19288TIP3    H279356   2.167   6.195   4.716  0.6556 -1.1965  1.9309
19289TIP3   OH279357   1.422   3.456  12.371  0.0074 -0.2423  0.0619
19289TIP3    H179358   1.385   3.435  12.285 -0.2723  0.9260 -0.1033
19289TIP3    H279359   1.498   3.397  12.378  0.1478 -0.2193 -1.0699
19290TIP3   OH279360   1.533   1.773   1.609  0.2258  0.1837 -0.4443
19290TIP3    H179361   1.495   1.854   1.576 -2.1846 -0.6021  0.3324
19290TIP3    H279362   1.484   1.703   1.566  0.7311 -0.8675  0.6268
19291TIP3   OH279363   2.123   6.430  12.672 -0.5877 -0.0309  0.0826
19291TIP3    H179364   2.142   6.336  12.667  2.3272  0.5239 -0.0183
19291TIP3    H279365   2.065   6.447  12.598  0.5595 -1.3738 -1.1424
19292TIP3   OH279366   0.579   5.236  11.283 -0.8014  0.1944  0.6204
19292TIP3    H179367   0.555   5.228  11.191  2.3646  0.3910 -0.3095
19292TIP3    H279368   0.550   5.155  11.323  1.9335 -2.0018 -1.6259
19293TIP3   OH279369   4.052   3.154   5.746 -0.0386 -0.6311 -0.5838
19293TIP3    H179370   4.051   3.059   5.753 -0.9674 -0.4572  2.2362
19293TIP3    H279371   3.971   3.183   5.789  1.2030  1.4917  0.4603
19294TIP3   OH279372   2.630   6.493  10.706 -0.0994  0.3827 -0.0852
19294TIP3    H179373   2.637   6.398  10.698 -1.8963  0.2393 -0.2519
19294TIP3    H279374   2.685   6.527  10.635  0.9674 -0.5130  0.3028
19295TIP3   OH279375   2.959   5.995   3.800 -0.2264  0.2448  0.4735
19295TIP3    H179376   2.942   5.948   3.719  0.6545 -1.0775  1.0449
19295TIP3    H279377   2.973   5.927   3.866 -0.0387  1.2965  1.5455
19296TIP3   OH279378   5.256   2.054   2.038 -0.0041  0.3426  0.1556
19296TIP3    H179379   5.252   2.049   1.943 -0.8187  0.3800  0.1840
19296TIP3    H279380   5.301   1.974   2.065  0.4766  0.4638 -0.2726
19297TIP3   OH279381   6.554   2.549   2.115 -0.5093 -0.7216  0.4439
19297TIP3    H179382   6.613   2.617   2.146 -1.7135  0.5677 -0.0422
19297TIP3    H279383   6.574   2.473   2.169  0.1341  0.3280  1.7020
19298TIP3   OH279384   2.012   4.968  16.483  0.6627 -0.8196  0.3648
19298TIP3    H179385   2.090   4.927  16.447  1.2055 -0.9338  1.6487
19298TIP3    H279386   2.004   4.931  16.571 -1.1725 -1.2638  0.0284
19299TIP3   OH279387   3.722   0.384   1.738  0.5346  0.4241 -0.0737
19299TIP3    H179388   3.774   0.463   1.753 -0.8534  1.1519  1.0226
19299TIP3    H279389   3.640   0.400   1.784 -0.6398 -0.7472 -1.6907
19300TIP3   OH279390   4.913   3.500  14.499 -0.1050 -0.0409 -0.0668
19300TIP3    H179391   4.819   3.498  14.479 -0.1221 -3.4611  0.0267
19300TIP3    H279392   4.942   3.587  14.470 -2.8502  0.2527 -2.1323
19301TIP3   OH279393   2.214   5.376  17.090 -0.0617 -0.1976  0.6292
19301TIP3    H179394   2.304   5.397  17.117 -1.0110  3.4139  1.2677
19301TIP3    H279395   2.170   5.353  17.171  0.3419 -2.3699  0.2626
19302TIP3   OH279396   3.178   0.253   4.326  0.3460 -0.3590 -0.3950
19302TIP3    H179397   3.095   0.208   4.342  0.2913  0.2818  1.2325
19302TIP3    H279398   3.236   0.220   4.395  0.1744  2.3790  1.1241
19303TIP3   OH279399   4.760   1.743   4.835  0.4012 -0.4722 -0.0884
19303TIP3    H179400   4.840   1.757   4.785 -0.0277 -0.6500 -0.8275
19303TIP3    H279401   4.789   1.746   4.926  1.3467 -1.0562 -0.3510
19304TIP3   OH279402   1.425   0.162  11.914 -0.0361 -0.5882  0.0849
19304TIP3    H179403   1.462   0.092  11.968 -0.5422 -0.4917  0.5715
19304TIP3    H279404   1.381   0.219  11.977  0.4252  0.2024 -0.3035
19305TIP3   OH279405   4.554   0.335  11.650 -0.1321 -0.6151 -0.4342
19305TIP3    H179406   4.539   0.268  11.584 -0.9479 -1.1697  0.3021
19305TIP3    H279407   4.503   0.306  11.726  0.1000  0.4539  0.1410
19306TIP3   OH279408   2.415   2.146  13.797 -0.5163 -0.0472  0.0469
19306TIP3    H179409   2.369   2.067  13.825 -1.3991  0.6406  0.5576
19306TIP3    H279410   2.346   2.210  13.783  0.1062  0.3387 -1.3578
19307TIP3   OH279411   2.344   6.589  14.567 -0.1232 -0.6329  0.4843
19307TIP3    H179412   2.303   6.676  14.563  1.0106 -0.1467 -1.2221
19307TIP3    H279413   2.342   6.566  14.659 -2.4267  0.2432  0.6952
19308TIP3   OH279414   5.083   4.616  12.647 -0.0123  0.2856 -0.0836
19308TIP3    H179415   5.049   4.594  12.560 -1.5428 -2.6953  1.2085
19308TIP3    H279416   5.165   4.566  12.653  1.2684  2.2846 -0.6653
19309TIP3   OH279417   5.675   6.412   1.607  0.0793  0.0652  0.2221
19309TIP3    H179418   5.617   6.339   1.628 -1.3279  0.9711 -0.4065
19309TIP3    H279419   5.639   6.448   1.526 -0.3315  2.5184  1.4382
19310TIP3   OH279420   0.096   4.087  15.594 -0.0549 -0.2986 -0.2036
19310TIP3    H179421   0.011   4.044  15.584 -0.6617  0.6213  0.8024
19310TIP3    H279422   0.140   4.072  15.511 -0.6666 -1.9281 -0.2605
19311TIP3   OH279423   6.327   0.318   0.881 -0.0048 -0.1435  0.1818
19311TIP3    H179424   6.349   0.411   0.874  1.3321 -0.4568  0.1676
19311TIP3    H279425   6.367   0.278   0.803 -0.7715 -0.6998  0.0648
19312TIP3   OH279426   4.812   1.222  13.247 -0.0623 -0.2780  0.3604
19312TIP3    H179427   4.733   1.238  13.195  0.3220 -0.7141 -0.3728
19312TIP3    H279428   4.780   1.206  13.335 -0.8010 -0.5475  0.0463
19313TIP3   OH279429   0.602   5.273  15.141 -0.0415  0.9302 -0.0981
19313TIP3    H179430   0.595   5.189  15.187 -0.8878  1.7914  1.4039
19313TIP3    H279431   0.616   5.250  15.049 -0.5860 -0.8553  0.2553
19314TIP3   OH279432   2.567   5.327  14.806 -0.5363 -0.0138 -0.3323
19314TIP3    H179433   2.630   5.354  14.873 -0.3722  0.1811 -0.5643
19314TIP3    H279434   2.568   5.398  14.742 -0.2031 -0.4992 -0.8733
19315TIP3   OH279435   4.247   3.950  15.666 -0.2892 -0.0304 -0.2376
19315TIP3    H179436   4.166   3.937  15.616  0.0670  0.4450 -0.9395
19315TIP3    H279437   4.304   3.879  15.638  0.6364  1.3796 -1.9918
19316TIP3   OH279438   0.933   0.842  16.552 -0.3194 -0.4906 -1.0607
19316TIP3    H179439   0.860   0.903  16.543  1.0347  1.4677  0.6165
19316TIP3    H279440   0.893   0.759  16.578 -2.1375 -0.1401 -2.6236
19317TIP3   OH279441   5.799   3.172   4.401 -0.5568  0.5293 -0.3226
19317TIP3    H179442   5.877   3.210   4.442 -0.3810 -0.7332  0.5300
19317TIP3    H279443   5.792   3.085   4.440 -0.7749 -0.4386 -2.4956
19318TIP3   OH279444   2.450   6.243   3.804  0.2845  0.8826 -0.0881
19318TIP3    H179445   2.396   6.247   3.883  1.0931 -0.1178  0.5273
19318TIP3    H279446   2.392   6.207   3.737  0.2008 -0.2969  0.6022
19319TIP3   OH279447   0.036   6.775  15.295  0.0007  0.4084  0.4431
19319TIP3    H179448  -0.008   6.837  15.237  1.3474  1.2980  0.3576
19319TIP3    H279449   0.082   6.715  15.236  0.7251  0.8370  0.5660
19320TIP3   OH279450   5.377   5.355  15.888 -0.3424  0.1820 -0.5658
19320TIP3    H179451   5.324   5.427  15.853  0.0812  0.9706  0.3925
19320TIP3    H279452   5.429   5.396  15.957 -0.8471 -1.2863  0.6876
19321TIP3   OH279453   1.867   5.441   5.577  0.0333  0.4242 -0.1195
19321TIP3    H179454   1.862   5.491   5.495 -0.8139 -0.2723 -0.4979
19321TIP3    H279455   1.777   5.415   5.594  0.4870 -1.0818  0.0097
19322TIP3   OH279456   5.859   5.772   0.726 -0.1224  0.1966 -0.2305
19322TIP3    H179457   5.855   5.682   0.758  2.7161  0.7812  1.9720
19322TIP3    H279458   5.795   5.819   0.779 -2.1410 -0.6147 -1.8813
19323TIP3   OH279459   6.787   0.882  12.638  0.1468 -0.0953 -0.5860
19323TIP3    H179460   6.773   0.968  12.599 -0.1339 -0.8653 -2.2280
19323TIP3    H279461   6.848   0.838  12.578 -0.9193 -1.5940 -0.5924
19324TIP3   OH279462   3.099   3.080   2.588  0.2255  0.1766  0.7746
19324TIP3    H179463   3.004   3.077   2.588  0.1322  1.7505  2.9487
19324TIP3    H279464   3.121   3.165   2.628  2.5100 -1.0073  2.1795
19325TIP3   OH279465   0.347   3.819  14.139 -0.3386  0.4880  0.6364
19325TIP3    H179466   0.399   3.746  14.107  0.2684  1.2111 -0.0205
19325TIP3    H279467   0.411   3.881  14.174 -0.7393  1.4522 -0.3168
19326TIP3   OH279468   4.764   0.745   5.665  0.2403  0.1951  0.7759
19326TIP3    H179469   4.827   0.816   5.648  0.4921 -0.0597  0.6554
19326TIP3    H279470   4.817   0.675   5.704  0.2047 -0.4115 -0.2620
19327TIP3   OH279471   4.955   0.829   1.620  0.3056  0.3875 -0.1937
19327TIP3    H179472   5.050   0.821   1.613  0.2690  1.1625 -1.7127
19327TIP3    H279473   4.937   0.922   1.607 -0.7508  0.0801 -1.0691
19328TIP3   OH279474   0.938   6.214  16.217 -0.3174 -0.1498  0.0217
19328TIP3    H179475   0.997   6.254  16.153 -1.0627  2.1666  0.7708
19328TIP3    H279476   0.896   6.142  16.169  1.7668 -0.7029 -1.0298
19329TIP3   OH279477   5.302   3.848  11.412 -0.1685 -0.4631  0.1687
19329TIP3    H179478   5.233   3.901  11.372  1.2264  0.0127 -1.6305
19329TIP3    H279479   5.306   3.878  11.503 -2.9175 -1.0973  0.5373
19330TIP3   OH279480   5.576   2.115   2.564  0.2827  0.0052  0.7002
19330TIP3    H179481   5.652   2.082   2.515  1.1727 -0.7402  2.5177
19330TIP3    H279482   5.570   2.057   2.640 -2.3312 -0.1496  0.4091
19331TIP3   OH279483   0.874   3.816   4.911  0.3321  0.1730 -0.9157
19331TIP3    H179484   0.959   3.777   4.892  1.3441  1.1397  1.4400
19331TIP3    H279485   0.824   3.745   4.953  0.8669  0.3175 -0.0198
19332TIP3   OH279486   0.457   4.764   2.003 -0.1908  0.0075 -0.4930
19332TIP3    H179487   0.477   4.727   2.089  1.1818  2.3242  0.2332
19332TIP3    H279488   0.368   4.797   2.010  1.3949  4.1789  1.5589
19333TIP3   OH279489   0.255   6.381  17.239  0.4438  0.2322 -0.0436
19333TIP3    H179490   0.256   6.315  17.170 -1.7521 -0.6183  0.6821
19333TIP3    H279491   0.255   6.331  17.321  0.4566  1.1564  0.5317
19334TIP3   OH279492   3.149   0.754  13.281 -0.0278  0.4774 -0.2449
19334TIP3    H179493   3.217   0.812  13.313  1.4238 -1.0042 -0.5531
19334TIP3    H279494   3.188   0.666  13.285 -1.8583 -0.3913 -0.5672
19335TIP3   OH279495   0.597   4.000  14.270  0.7115  0.3983 -0.0188
19335TIP3    H179496   0.679   3.995  14.319  1.6416  0.7410 -1.5000
19335TIP3    H279497   0.608   4.076  14.213 -1.0299  1.0246  0.4423
19336TIP3   OH279498   0.964   4.603   5.477  0.2341 -0.2480  0.3581
19336TIP3    H179499   1.041   4.548   5.466 -1.3984 -2.4509 -0.5165
19336TIP3    H279500   0.890   4.542   5.473 -1.6719  2.0427 -1.1453
19337TIP3   OH279501   2.860   2.684   0.663 -0.1232 -0.6747  0.2451
19337TIP3    H179502   2.777   2.718   0.696 -0.3644 -1.6708  0.6902
19337TIP3    H279503   2.906   2.761   0.629 -0.8034  0.0367  0.9068
19338TIP3   OH279504   3.737   6.336   5.551  0.4933 -0.1615  0.3249
19338TIP3    H179505   3.679   6.369   5.483 -0.0556 -1.2768  0.2322
19338TIP3    H279506   3.799   6.407   5.567  0.4059  0.2452 -1.0877
19339TIP3   OH279507   0.558   6.466  11.690  0.0675  0.0665 -0.5055
19339TIP3    H179508   0.643   6.488  11.651  0.7001 -1.5990 -0.1131
19339TIP3    H279509   0.499   6.460  11.615  0.4261  0.6051 -0.8371
19340TIP3   OH279510   2.733   4.509  16.836 -0.8341 -0.4283  0.1642
19340TIP3    H179511   2.718   4.594  16.794 -2.7984 -0.7911  0.0742
19340TIP3    H279512   2.720   4.527  16.930  0.3901 -0.2821  0.3058
19341TIP3   OH279513   0.081   2.568   4.561 -0.0576 -0.0506 -0.0817
19341TIP3    H179514   0.067   2.597   4.651  0.9384 -0.7856  0.3158
19341TIP3    H279515   0.154   2.622   4.530 -0.2562  0.0488 -0.3863
19342TIP3   OH279516   1.698   0.106  13.926  0.1712  0.1850  0.4100
19342TIP3    H179517   1.700   0.201  13.914 -1.1949  0.0238 -1.3435
19342TIP3    H279518   1.790   0.080  13.929  0.6338  1.1537 -2.9911
19343TIP3   OH279519   2.465   1.999  16.636 -0.3831  0.2491 -0.0289
19343TIP3    H179520   2.403   1.973  16.704  0.1806 -0.3086  0.2791
19343TIP3    H279521   2.497   1.916  16.599 -0.5560  0.5451 -0.8566
19344TIP3   OH279522   5.070   0.274  12.005  0.1708  0.4163 -0.3434
19344TIP3    H179523   5.136   0.339  11.983 -1.6241  2.0170 -1.1607
19344TIP3    H279524   5.083   0.204  11.942  1.5424  0.3797 -0.0329
19345TIP3   OH279525   2.336   4.056   2.353  0.4254  0.3847 -1.1532
19345TIP3    H179526   2.393   4.122   2.393 -0.4393  2.2276 -2.8771
19345TIP3    H279527   2.263   4.106   2.316 -0.5492 -1.5986 -2.0118
19346TIP3   OH279528   1.469   2.071  11.387 -0.3311 -0.3966 -0.1892
19346TIP3    H179529   1.451   2.125  11.309 -2.5703 -0.4122  0.2820
19346TIP3    H279530   1.455   1.981  11.357 -0.2995 -0.4646  0.0032
19347TIP3   OH279531   2.835   0.235  12.052  0.1623  0.2210  0.2117
19347TIP3    H179532   2.840   0.204  12.143 -0.4678 -0.7267 -0.0589
19347TIP3    H279533   2.743   0.261  12.041  0.7520  2.5026  0.5198
19348TIP3   OH279534   5.396   5.515   4.380  0.1248  0.0724  0.5615
19348TIP3    H179535   5.484   5.484   4.362  1.3422  2.9286  1.2366
19348TIP3    H279536   5.407   5.577   4.453 -1.8634  3.0850 -1.5628
19349TIP3   OH279537   0.143   6.460   6.211  0.4218  0.6578  0.2597
19349TIP3    H179538   0.173   6.448   6.301 -0.8771 -0.0859  0.6146
19349TIP3    H279539   0.131   6.371   6.178 -0.0281  0.9355 -0.3284
19350TIP3   OH279540   1.648   1.026   6.379 -0.3294 -0.1543  0.8682
19350TIP3    H179541   1.577   0.985   6.428  0.3121 -1.0043  1.1018
19350TIP3    H279542   1.717   0.960   6.378  0.4250  0.6365  0.5690
19351TIP3   OH279543   4.536   0.011   4.279  0.1588  0.0538  0.8255
19351TIP3    H179544   4.629   0.017   4.260  0.1405 -2.1831 -0.0836
19351TIP3    H279545   4.524   0.065   4.358  2.3104 -0.0865  1.2762
19352TIP3   OH279546   2.513   5.495   2.642  0.1306 -0.1725  0.4167
19352TIP3    H179547   2.503   5.590   2.644 -0.8638 -0.2618  0.3303
19352TIP3    H279548   2.539   5.472   2.731 -0.6577  0.0897  0.7271
19353TIP3   OH279549   6.125   6.359  16.463  0.3271 -0.1582 -0.6728
19353TIP3    H179550   6.188   6.320  16.522 -2.5962  0.9840  3.4467
19353TIP3    H279551   6.079   6.285  16.423  1.1826 -0.9415 -0.2046
19354TIP3   OH279552   3.322   0.389  11.598  0.4269 -0.5577  0.4039
19354TIP3    H179553   3.255   0.412  11.534  1.1606 -2.3328 -1.0664
19354TIP3    H279554   3.292   0.307  11.636  0.9416 -0.5107  0.9162
19355TIP3   OH279555   1.729   4.322   0.694 -0.1211 -0.4952 -0.1242
19355TIP3    H179556   1.808   4.275   0.667 -0.5908 -1.1210 -0.4286
19355TIP3    H279557   1.751   4.415   0.683  0.6157 -0.6593 -0.0789
19356TIP3   OH279558   4.787   4.708   2.399  0.1223 -0.1956 -0.1866
19356TIP3    H179559   4.846   4.654   2.347 -0.9868 -1.3668 -0.2694
19356TIP3    H279560   4.723   4.742   2.337 -1.4832 -1.9776  0.4255
19357TIP3   OH279561   5.796   0.322   2.701  0.2387  0.0803  0.0254
19357TIP3    H179562   5.829   0.292   2.786  0.1932 -0.1513 -0.0361
19357TIP3    H279563   5.719   0.267   2.685 -0.4240  0.9000  0.3618
19358TIP3   OH279564   5.796   1.721   3.506 -0.4527 -0.5562  0.5504
19358TIP3    H179565   5.830   1.699   3.593 -0.0739 -1.3441  0.2132
19358TIP3    H279566   5.712   1.764   3.522 -0.4559 -0.8452  1.2999
19359TIP3   OH279567   2.245   1.120  16.134  0.6439  0.1918  0.2337
19359TIP3    H179568   2.306   1.165  16.191 -2.8170  3.1250  1.7610
19359TIP3    H279569   2.224   1.184  16.066 -0.5958 -0.8407 -0.3676
19360TIP3   OH279570   5.137   1.788  10.785  0.0601  0.3220 -0.3073
19360TIP3    H179571   5.191   1.857  10.823  0.7734 -0.4384  0.0788
19360TIP3    H279572   5.193   1.748  10.718 -0.3046  0.0345 -0.4463
19361TIP3   OH279573   5.637   5.710   3.076  0.1045  0.7503 -0.0852
19361TIP3    H179574   5.592   5.709   3.161 -0.2874 -3.0617 -0.2476
19361TIP3    H279575   5.567   5.712   3.011  0.3033 -0.1593 -0.3298
19362TIP3   OH279576   2.519   4.456  12.452  0.4892 -0.2064 -0.3225
19362TIP3    H179577   2.611   4.467  12.430  0.4743  2.5143  0.6931
19362TIP3    H279578   2.482   4.544  12.443 -1.9093 -1.1626 -0.2543
19363TIP3   OH279579   3.101   0.154  15.039  0.1822 -0.3073 -0.0309
19363TIP3    H179580   3.114   0.067  15.076 -0.0256 -0.0240  0.7126
19363TIP3    H279581   3.020   0.147  14.988  1.2763 -1.1046 -1.7113
19364TIP3   OH279582   1.762   0.449  15.549  0.2140 -0.6391 -0.7720
19364TIP3    H179583   1.758   0.353  15.542 -0.5098 -0.6441 -0.3380
19364TIP3    H279584   1.671   0.476  15.559  0.4119  0.1077 -0.9974
19365TIP3   OH279585   1.144   5.681  14.661 -0.7341  0.1745  0.7367
19365TIP3    H179586   1.082   5.703  14.730  0.7043  0.2216  2.0358
19365TIP3    H279587   1.220   5.645  14.707  0.4435  0.6563 -0.7795
19366TIP3   OH279588   0.093   0.540  16.153 -0.9855  0.3791 -0.3859
19366TIP3    H179589   0.156   0.527  16.225 -0.9881 -2.0300 -0.8045
19366TIP3    H279590   0.147   0.571  16.080 -0.5141 -0.1720 -0.2790
19367TIP3   OH279591   0.254   3.378  11.183  0.2434 -0.1386 -0.1972
19367TIP3    H179592   0.170   3.343  11.155  0.5020 -2.3385  1.7118
19367TIP3    H279593   0.311   3.368  11.106 -0.9098  0.3860 -1.1421
19368TIP3   OH279594   4.153   0.722   3.294 -0.0300 -0.4191 -0.0960
19368TIP3    H179595   4.167   0.781   3.368 -0.3076 -0.9783  0.4028
19368TIP3    H279596   4.240   0.687   3.274 -0.2216 -1.6177  1.1011
19369TIP3   OH279597   1.985   5.433  14.389 -0.2007 -0.5980 -0.0309
19369TIP3    H179598   1.950   5.459  14.474 -0.5170 -1.5378  0.1395
19369TIP3    H279599   2.062   5.489  14.376  0.0758 -0.7089  1.0583
19370TIP3   OH279600   0.545   3.991  13.828 -0.3593 -0.0583  0.9073
19370TIP3    H179601   0.543   4.086  13.813 -0.4720 -0.2243 -0.1892
19370TIP3    H279602   0.513   3.954  13.746  1.3225 -1.1084  0.7186
19371TIP3   OH279603   5.021   3.783   0.507 -0.3934 -0.0114 -0.1246
19371TIP3    H179604   5.066   3.732   0.440  0.6344  0.1012  0.4807
19371TIP3    H279605   4.997   3.864   0.462 -3.9080 -1.7810 -1.7219
19372TIP3   OH279606   1.247   0.740  13.685  0.7376  0.1519  0.3947
19372TIP3    H179607   1.204   0.821  13.713 -0.1416 -0.3655  0.5735
19372TIP3    H279608   1.225   0.676  13.753  0.3941 -0.5532 -0.3728
19373TIP3   OH279609   4.496   6.785  13.158  0.1422  0.6552 -0.1356
19373TIP3    H179610   4.539   6.802  13.242  0.7393 -0.2484 -0.2450
19373TIP3    H279611   4.411   6.830  13.165 -0.3294 -0.4085  1.4338
19374TIP3   OH279612   5.415   5.969  17.255 -0.2995 -0.4779 -0.6572
19374TIP3    H179613   5.386   6.035  17.192  0.2392 -0.3728 -0.7946
19374TIP3    H279614   5.378   5.999  17.339  0.6967  0.4957 -0.5559
19375TIP3   OH279615   0.426   2.285   1.830 -0.0077 -0.3954  0.0904
19375TIP3    H179616   0.348   2.318   1.873  0.2822 -1.1842  1.2480
19375TIP3    H279617   0.495   2.346   1.856  0.0201 -0.4520  0.1508
19376TIP3   OH279618   3.515   5.599   2.736 -0.2218  0.4379 -0.4179
19376TIP3    H179619   3.561   5.580   2.817  2.4223  1.9202 -1.5084
19376TIP3    H279620   3.443   5.656   2.761 -1.0416 -1.2631  1.2154
19377TIP3   OH279621   3.145   2.422  14.753  0.0125 -0.1317 -0.6416
19377TIP3    H179622   3.116   2.330  14.753  1.1760 -0.5180  1.6525
19377TIP3    H279623   3.235   2.419  14.722  0.1742  0.2100 -0.2040
19378TIP3   OH279624   0.702   2.667  14.680 -0.5589  0.4174  0.5229
19378TIP3    H179625   0.757   2.684  14.756  1.0219  0.1515 -0.5544
19378TIP3    H279626   0.619   2.711  14.700  0.5597  2.1208  1.4684
19379TIP3   OH279627   2.119   3.866  14.395  0.4679 -0.3894 -0.4382
19379TIP3    H179628   2.180   3.924  14.440 -2.4199  2.0402  0.4680
19379TIP3    H279629   2.073   3.820  14.466 -1.8359  1.0783 -0.9385
19380TIP3   OH279630   1.904   4.487   4.828  0.2120  0.1650  0.5030
19380TIP3    H179631   1.887   4.468   4.921 -2.9991 -2.5614 -0.5157
19380TIP3    H279632   1.817   4.504   4.792  1.2052 -0.6319 -2.3741
19381TIP3   OH279633   5.014   1.572  14.987  0.1637 -0.0817 -0.2367
19381TIP3    H179634   4.968   1.491  14.966  0.0536 -0.8122  2.6411
19381TIP3    H279635   5.105   1.545  14.999  1.1343  1.0778 -4.1900
19382TIP3   OH279636   4.348   0.888  13.455  0.2996 -0.2273  0.7162
19382TIP3    H179637   4.323   0.896  13.547  0.3028 -3.5642  1.0823
19382TIP3    H279638   4.281   0.831  13.417  1.4689 -0.5998 -0.8438
19383TIP3   OH279639   4.489   5.301   3.056 -0.1089  0.4604  0.2542
19383TIP3    H179640   4.453   5.287   2.968 -0.2708 -2.5207  0.7462
19383TIP3    H279641   4.417   5.341   3.105 -0.5907  0.5381 -0.5119
19384TIP3   OH279642   6.348   1.224   3.461 -0.5330 -0.3604 -0.0822
19384TIP3    H179643   6.341   1.286   3.389 -2.1214 -0.0291  0.3410
19384TIP3    H279644   6.346   1.138   3.419  0.5700 -0.1466 -0.5845
19385TIP3   OH279645   3.662   3.026  10.287  0.1969  0.5207 -1.0651
19385TIP3    H179646   3.608   3.067  10.355  0.5853  1.4448 -1.3043
19385TIP3    H279647   3.609   2.953  10.256  0.7827 -1.0646  1.5070
19386TIP3   OH279648   3.820   2.702  14.854  0.2104 -0.4700 -0.2999
19386TIP3    H179649   3.740   2.697  14.906 -0.2165 -1.1238 -0.9915
19386TIP3    H279650   3.819   2.790  14.816  0.4447 -0.0497  0.6627
19387TIP3   OH279651   5.778   5.121   3.647 -0.3697 -0.6151 -0.0922
19387TIP3    H179652   5.832   5.199   3.634 -0.3147 -0.4933  0.8095
19387TIP3    H279653   5.717   5.145   3.717  1.7378 -2.4189  2.4557
19388TIP3   OH279654   2.293   6.292  16.304  0.0572  0.1520  0.4156
19388TIP3    H179655   2.200   6.308  16.289  0.4757  1.1122 -1.2209
19388TIP3    H279656   2.294   6.229  16.377 -1.8207  0.9444  1.1643
19389TIP3   OH279657   1.281   6.215  14.509  0.2058 -0.1776  0.0632
19389TIP3    H179658   1.225   6.138  14.518  0.2961 -0.3796 -1.0501
19389TIP3    H279659   1.327   6.202  14.426  1.5050  0.2451  0.6970
19390TIP3   OH279660   6.533   5.867  11.942 -0.0699 -0.3005  0.3591
19390TIP3    H179661   6.606   5.917  11.977  0.2036 -0.6460  0.2840
19390TIP3    H279662   6.506   5.916  11.864 -1.0368  0.7691  1.3541
19391TIP3   OH279663   1.829   1.860   6.105 -0.8883 -0.7593 -0.0202
19391TIP3    H179664   1.900   1.886   6.047  0.0798 -0.7403  1.1595
19391TIP3    H279665   1.753   1.849   6.047 -0.1357  0.0307 -1.1695
19392TIP3   OH279666   4.495   1.955   2.109  0.3709  0.1820  0.4151
19392TIP3    H179667   4.481   1.915   2.195 -1.9089  1.9374  0.8875
19392TIP3    H279668   4.526   2.043   2.127  1.0422  0.1608 -0.5769
19393TIP3   OH279669   5.188   3.117  10.929  0.5357 -0.5731  0.7867
19393TIP3    H179670   5.245   3.157  10.995  0.3138 -0.4297  0.8911
19393TIP3    H279671   5.234   3.037  10.903  1.4762  0.2522 -0.1444
19394TIP3   OH279672   1.130   5.961   4.476  0.7866 -0.1290 -0.2287
19394TIP3    H179673   1.068   5.897   4.511  1.5385 -0.8758 -0.2464
19394TIP3    H279674   1.078   6.014   4.416  0.0378 -0.3949  0.1769
19395TIP3   OH279675   3.398   6.603   6.600 -0.0666  0.4444  0.8244
19395TIP3    H179676   3.485   6.600   6.641  0.6340  2.3903 -0.4399
19395TIP3    H279677   3.367   6.693   6.616 -0.2976  0.8686 -1.7709
19396TIP3   OH279678   5.148   0.256  12.591  0.1454 -0.1230 -0.0183
19396TIP3    H179679   5.134   0.328  12.530 -1.2876 -0.5054 -0.1632
19396TIP3    H279680   5.244   0.248  12.598  0.3142  1.5917 -0.2077
19397TIP3   OH279681   4.168   0.917  14.052 -0.3136  0.0472 -0.7184
19397TIP3    H179682   4.096   0.854  14.051  2.6160 -3.5129  1.3114
19397TIP3    H279683   4.175   0.945  14.143  2.2205 -1.3510 -0.4425
19398TIP3   OH279684   4.505   6.068   1.787  0.0716 -0.4934  0.5184
19398TIP3    H179685   4.593   6.048   1.756  0.5929 -0.0128  1.6612
19398TIP3    H279686   4.488   6.157   1.756 -0.4138 -0.9533 -0.5607
19399TIP3   OH279687   5.628   0.209  13.368  0.0067 -0.0266 -0.7086
19399TIP3    H179688   5.687   0.134  13.357  0.7243  0.7196 -2.1977
19399TIP3    H279689   5.557   0.176  13.423  0.9455 -1.4386 -0.3068
19400TIP3   OH279690   0.999   2.112  16.111  0.1717  0.4257 -0.2818
19400TIP3    H179691   0.935   2.171  16.151 -0.3874 -0.8701  0.7748
19400TIP3    H279692   1.060   2.092  16.182  1.4255  1.1862 -1.1272
19401TIP3   OH279693   5.571   3.994  13.562  0.0239  0.5801  0.0948
19401TIP3    H179694   5.625   4.067  13.594 -0.3965  0.5970  0.7948
19401TIP3    H279695   5.514   4.033  13.496 -0.1394  0.8736  0.4039
19402TIP3   OH279696   4.894   3.560   0.030 -0.4397  0.2649 -0.5122
19402TIP3    H179697   4.971   3.609   0.003  0.5423 -0.3801  1.0742
19402TIP3    H279698   4.862   3.605   0.108 -0.0899 -1.0059  0.3935
19403TIP3   OH279699   2.699   0.127  13.042 -0.1765 -0.2382  0.5309
19403TIP3    H179700   2.707   0.109  12.948  0.2389  0.6124  0.3929
19403TIP3    H279701   2.627   0.072  13.071  1.4733 -2.6082  0.2828
19404TIP3   OH279702   0.017   5.050   5.272  0.6731  0.2137  0.5462
19404TIP3    H179703   0.070   4.970   5.271 -1.1114 -1.0011  1.7004
19404TIP3    H279704   0.075   5.117   5.309  1.7969 -0.7915  0.6292
19405TIP3   OH279705   0.076   0.446   0.365 -0.0180  0.4092  0.2884
19405TIP3    H179706   0.040   0.361   0.391 -2.5078  1.7882  1.5736
19405TIP3    H279707   0.102   0.487   0.447 -0.1039  1.4217 -0.1786
19406TIP3   OH279708   4.090   0.692   5.610  0.1071 -0.2126  0.0860
19406TIP3    H179709   4.116   0.617   5.556 -0.0716 -1.9261  2.2944
19406TIP3    H279710   4.169   0.718   5.656  0.3230  1.4217 -1.1691
19407TIP3   OH279711   1.205   5.756  14.125  0.1671 -0.2290 -0.7094
19407TIP3    H179712   1.269   5.765  14.055 -1.0906 -1.9367 -2.1244
19407TIP3    H279713   1.121   5.747  14.080 -1.0293  1.4187  1.0942
19408TIP3   OH279714   2.544   5.658   4.636  0.1968 -1.0523  0.1629
19408TIP3    H179715   2.481   5.730   4.635  0.0755 -1.0836  2.6242
19408TIP3    H279716   2.600   5.674   4.560 -1.0838  0.4931 -0.4828
19409TIP3   OH279717   2.516   6.636  11.108  0.0748  0.0775  0.5454
19409TIP3    H179718   2.509   6.667  11.199  3.9721  0.5607  0.7783
19409TIP3    H279719   2.487   6.710  11.055  0.6678  0.9029  1.3448
19410TIP3   OH279720   0.899   0.890  14.256  0.2715  0.5497  0.2722
19410TIP3    H179721   0.821   0.904  14.311 -0.0474 -1.4795  0.3972
19410TIP3    H279722   0.969   0.935  14.302  0.0292 -1.2202  2.4693
19411TIP3   OH279723   4.340   0.563   3.190 -0.6494 -0.3145 -0.1440
19411TIP3    H179724   4.384   0.547   3.107  0.0340 -0.1178  0.1711
19411TIP3    H279725   4.288   0.484   3.206 -0.6373 -0.4275 -0.6642
19412TIP3   OH279726   1.425   0.937   6.499  0.8861 -0.7385  0.2168
19412TIP3    H179727   1.406   0.851   6.537 -2.0054 -0.8841 -1.4163
19412TIP3    H279728   1.434   0.995   6.575  0.5619 -2.0496  1.2717
19413TIP3   OH279729   3.999   0.397  16.482 -0.4363  0.5857 -0.0794
19413TIP3    H179730   3.987   0.477  16.534 -0.0498 -1.0561  2.6404
19413TIP3    H279731   4.075   0.416  16.427  0.8992  1.4321  1.9645
19414TIP3   OH279732   1.453   4.771   0.348  0.1619  0.1031  0.0691
19414TIP3    H179733   1.547   4.751   0.354 -0.1617 -1.1042  1.1369
19414TIP3    H279734   1.420   4.759   0.437 -0.8597  1.3269 -0.1286
19415TIP3   OH279735   4.992   6.640  12.844 -0.3318  0.8297  0.1896
19415TIP3    H179736   4.991   6.545  12.859  0.3727  0.9680  1.1752
19415TIP3    H279737   4.919   6.673  12.896  0.6324  1.0383  1.4380
19416TIP3   OH279738   5.790   4.689   0.860  0.0123  0.0013 -0.0724
19416TIP3    H179739   5.816   4.597   0.868 -2.4560 -0.6216  1.2313
19416TIP3    H279740   5.863   4.738   0.896  0.4958 -1.5678  1.1327
19417TIP3   OH279741   2.771   1.213  10.779  0.1244  0.3654  0.1642
19417TIP3    H179742   2.821   1.280  10.734  0.9470  1.0049  1.9873
19417TIP3    H279743   2.679   1.236  10.762  0.4145  0.4985 -1.2810
19418TIP3   OH279744   2.793   6.572   6.363 -0.4441 -0.1124  0.6413
19418TIP3    H179745   2.739   6.547   6.288  0.3203  0.4895 -0.1236
19418TIP3    H279746   2.857   6.634   6.327 -0.1009  0.2216  1.8033
19419TIP3   OH279747   0.718   0.780  13.038 -0.0370 -0.2137  0.3972
19419TIP3    H179748   0.645   0.841  13.053 -1.3139 -1.9449  1.5331
19419TIP3    H279749   0.789   0.814  13.092 -0.5764  0.5046  0.6708
19420TIP3   OH279750   5.307   4.435  12.665  0.5543  0.0846 -0.0899
19420TIP3    H179751   5.310   4.340  12.660  1.1073  0.1461 -1.0870
19420TIP3    H279752   5.372   4.464  12.601 -0.7531  1.1529 -0.9573
19421TIP3   OH279753   5.533   5.873  10.480 -0.2290  0.2340  0.1805
19421TIP3    H179754   5.525   5.782  10.453 -2.1181  0.4509 -0.0848
19421TIP3    H279755   5.458   5.917  10.439  0.0440  1.6823  1.1797
19422TIP3   OH279756   5.423   1.595   4.956 -0.4855 -0.3039 -0.6375
19422TIP3    H179757   5.340   1.632   4.927 -1.0353 -0.0576  1.1703
19422TIP3    H279758   5.398   1.529   5.021  0.6829 -0.9458 -0.8371
19423TIP3   OH279759   3.951   3.442  14.064  0.0029  0.3361 -0.1390
19423TIP3    H179760   3.868   3.442  14.112 -0.2424 -3.1778 -0.4714
19423TIP3    H279761   3.930   3.482  13.980 -1.2832 -0.2108 -0.0853
19424TIP3   OH279762   2.305   1.605  13.249  0.4658  0.7261 -0.4006
19424TIP3    H179763   2.307   1.520  13.294 -0.1276  0.5772 -0.6542
19424TIP3    H279764   2.364   1.660  13.300  0.9971  0.1088 -0.3379
19425TIP3   OH279765   0.388   4.711   1.282  0.2686 -0.4530  0.2216
19425TIP3    H179766   0.441   4.790   1.285 -0.6072  0.1087  1.1573
19425TIP3    H279767   0.378   4.685   1.374  0.4489 -1.5723 -0.0700
19426TIP3   OH279768   2.708   4.178   4.254  0.1741 -0.1682 -0.0289
19426TIP3    H179769   2.651   4.118   4.303 -0.6527  0.2718 -0.4271
19426TIP3    H279770   2.650   4.251   4.230  0.9162  0.2912 -0.4380
19427TIP3   OH279771   1.483   4.339   0.840  0.4952  0.4987 -0.5124
19427TIP3    H179772   1.407   4.324   0.785  0.3578  1.9956 -0.7264
19427TIP3    H279773   1.554   4.360   0.779  0.2734  2.4494 -0.1144
19428TIP3   OH279774   4.837   2.985   1.760  0.6233  0.5549  0.2836
19428TIP3    H179775   4.776   3.009   1.691 -0.0792 -2.7140 -0.3028
19428TIP3    H279776   4.800   3.025   1.839  0.0073  2.0840 -0.7529
19429TIP3   OH279777   0.290   4.347   2.530 -0.4691  0.4174 -0.3160
19429TIP3    H179778   0.256   4.393   2.454  1.2022  1.3388 -0.5294
19429TIP3    H279779   0.341   4.274   2.494 -0.2329  0.4581 -0.0719
19430TIP3   OH279780   5.815   3.450  14.363  0.3797 -0.1294 -0.1050
19430TIP3    H179781   5.730   3.446  14.318  0.6632  1.3818 -0.8294
19430TIP3    H279782   5.803   3.399  14.443 -0.5752 -1.6579 -1.2070
19431TIP3   OH279783   6.069   6.441  15.043  0.2338  0.2785 -0.5808
19431TIP3    H179784   5.987   6.394  15.052  1.0199 -1.1213 -0.6527
19431TIP3    H279785   6.043   6.530  15.019 -1.2796  0.0555  0.1755
19432TIP3   OH279786   2.858   3.051  16.381 -0.7830 -0.0114 -0.3474
19432TIP3    H179787   2.866   3.053  16.476 -0.8417  0.0422 -0.3442
19432TIP3    H279788   2.921   2.985  16.352  0.8382  1.5404 -0.4206
19433TIP3   OH279789   6.011   1.779  12.458  0.2345  0.0382  0.5843
19433TIP3    H179790   6.004   1.875  12.459 -0.4306 -0.0100  3.0068
19433TIP3    H279791   6.102   1.762  12.485  0.8221 -0.0011 -1.3569
19434TIP3   OH279792   2.983   3.906   1.326  0.1789 -0.6164 -0.5280
19434TIP3    H179793   3.062   3.859   1.352  0.8837  0.5793 -0.4844
19434TIP3    H279794   3.011   3.965   1.256 -0.4134  0.6688  0.2927
19435TIP3   OH279795   6.012   2.983  13.607  0.6540 -0.1118  0.3078
19435TIP3    H179796   5.925   2.976  13.568  1.4328  0.1504 -1.5287
19435TIP3    H279797   6.009   3.062  13.661 -0.3084 -0.2233  0.4096
19436TIP3   OH279798   3.225   4.060   4.893  0.5151  0.2510 -0.0772
19436TIP3    H179799   3.205   3.977   4.937  2.1211 -0.2478 -0.2414
19436TIP3    H279800   3.157   4.068   4.826 -0.2664 -0.4149  0.6242
19437TIP3   OH279801   1.325   0.058  16.787  0.0905 -0.3380 -0.1891
19437TIP3    H179802   1.242   0.010  16.791 -0.8602  0.8830 -3.8418
19437TIP3    H279803   1.384  -0.001  16.741  0.9487 -0.7132  1.3555
19438TIP3   OH279804   4.637   0.740  14.435  0.1904  0.2522  0.7565
19438TIP3    H179805   4.599   0.815  14.389 -0.3488 -0.3529  0.2109
19438TIP3    H279806   4.590   0.664  14.401 -0.2474 -0.2065  2.3406
19439TIP3   OH279807   6.231   5.915  16.891  0.0245  0.0144 -0.0700
19439TIP3    H179808   6.214   5.890  16.982 -0.9152 -0.7323 -0.4362
19439TIP3    H279809   6.256   5.833  16.848  1.4925  0.5472 -0.2648
19440TIP3   OH279810   6.113   3.804  16.614  0.1343 -0.3597 -0.2794
19440TIP3    H179811   6.092   3.837  16.526 -0.8015 -0.6366 -0.1729
19440TIP3    H279812   6.065   3.721  16.620 -0.3397 -0.0274  0.7238
19441TIP3   OH279813   5.500   0.118  17.286 -0.2173  0.4567  0.2238
19441TIP3    H179814   5.535   0.031  17.269 -1.6150 -0.1611  0.4274
19441TIP3    H279815   5.460   0.145  17.204 -0.8144  0.4014  0.4904
19442TIP3   OH279816   2.719   2.351  11.591 -0.1139 -0.0544 -0.4792
19442TIP3    H179817   2.651   2.340  11.657  0.3219  0.2144  0.0212
19442TIP3    H279818   2.778   2.276  11.604  0.1578  0.1828 -0.3414
19443TIP3   OH279819   1.379   4.324  14.930 -0.0440  0.7246 -0.2739
19443TIP3    H179820   1.441   4.393  14.951  0.0285  0.2576  1.0704
19443TIP3    H279821   1.312   4.330  14.998  0.6908 -1.4199  0.7097
19444TIP3   OH279822   3.894   6.114   1.830 -0.3127  0.7627 -0.4032
19444TIP3    H179823   3.942   6.046   1.878 -1.1983  0.7960  0.5410
19444TIP3    H279824   3.933   6.113   1.743  1.1520  0.5130  0.2273
19445TIP3   OH279825   3.851   2.921  13.602  0.2071 -0.6099 -0.2552
19445TIP3    H179826   3.839   2.968  13.520  2.9649 -0.1329 -0.4258
19445TIP3    H279827   3.813   2.835  13.586 -1.9560  0.4338 -1.0075
19446TIP3   OH279828   6.228   6.306   4.023 -0.0128  0.2755 -0.3587
19446TIP3    H179829   6.289   6.234   4.008  0.3369  0.0821  1.8520
19446TIP3    H279830   6.144   6.264   4.040  0.4443  0.3092  2.1200
19447TIP3   OH279831   6.021   6.385   2.112  0.3872  0.6401  0.1179
19447TIP3    H179832   6.073   6.308   2.091  1.7478  2.1103 -2.0967
19447TIP3    H279833   6.080   6.442   2.161  0.0155  1.1525 -0.0210
19448TIP3   OH279834   4.735   3.120  12.135  0.7853 -0.5851 -0.2448
19448TIP3    H179835   4.790   3.043  12.152  2.3321  0.0690 -2.0305
19448TIP3    H279836   4.695   3.101  12.050  0.8348  0.3928 -0.4836
19449TIP3   OH279837   0.084   4.863   3.977  0.7177  0.0485  0.2949
19449TIP3    H179838   0.090   4.840   3.884 -0.1615  2.2270 -0.3329
19449TIP3    H279839  -0.007   4.890   3.988  0.5735 -1.1030  2.0295
19450TIP3   OH279840   1.359   5.947   0.259 -0.2758  0.5629 -0.2678
19450TIP3    H179841   1.285   5.901   0.297 -0.4873  1.1978  0.0952
19450TIP3    H279842   1.384   5.894   0.183 -2.9343  1.8802 -2.1238
19451TIP3   OH279843   4.823   2.281   3.928  0.0013 -0.3864  0.6444
19451TIP3    H179844   4.778   2.217   3.983  0.6162 -1.5353 -0.1723
19451TIP3    H279845   4.758   2.305   3.862 -0.7115  0.9337  1.7948
19452TIP3   OH279846   0.125   4.489  14.943  0.5668 -0.1181  0.2793
19452TIP3    H179847   0.199   4.439  14.908  0.1004 -0.7689  0.2162
19452TIP3    H279848   0.048   4.440  14.916  0.1152  0.4943  0.4561
19453TIP3   OH279849   0.258   0.900  12.058 -0.1936 -0.1990  0.0381
19453TIP3    H179850   0.330   0.872  12.001 -0.1618 -2.1141  0.9740
19453TIP3    H279851   0.260   0.995  12.054  2.0374 -0.2287 -0.4070
19454TIP3   OH279852   2.306   3.006  13.291  0.4812 -0.4043 -0.6894
19454TIP3    H179853   2.223   2.962  13.306  0.5610 -0.1854  0.4709
19454TIP3    H279854   2.363   2.974  13.361  0.1884  2.3918  0.9303
19455TIP3   OH279855   4.663   1.270   4.589 -0.2173 -0.2894  0.3353
19455TIP3    H179856   4.678   1.179   4.613  0.2562 -0.2044  0.3708
19455TIP3    H279857   4.647   1.315   4.672  1.3504 -0.0083  0.4955
19456TIP3   OH279858   5.002   5.069  14.468  0.3052  0.1031  0.1903
19456TIP3    H179859   4.917   5.069  14.424  0.8627 -0.9301 -0.9357
19456TIP3    H279860   5.008   5.155  14.510 -1.4545  0.0244  0.6214
19457TIP3   OH279861   4.140   1.784  16.598  0.5635 -0.1137  0.1224
19457TIP3    H179862   4.106   1.695  16.589  1.9173 -0.4496 -2.0219
19457TIP3    H279863   4.160   1.793  16.691 -3.3548 -0.6089  1.0942
19458TIP3   OH279864   5.079   0.849   2.966  0.0213  0.4790  0.0961
19458TIP3    H179865   5.037   0.871   2.883  1.3877  0.7138 -0.5409
19458TIP3    H279866   5.118   0.762   2.951  0.3341  0.5542  0.4718
19459TIP3   OH279867   2.567   0.579   1.409  0.1274  0.3779 -0.1600
19459TIP3    H179868   2.583   0.487   1.431 -0.3220  0.4975  0.6674
19459TIP3    H279869   2.485   0.600   1.452  1.0753  1.6455  1.0776
19460TIP3   OH279870   4.204   6.286  12.391 -0.5954  0.1357 -0.4759
19460TIP3    H179871   4.189   6.193  12.373 -1.8289  0.7257 -2.6980
19460TIP3    H279872   4.272   6.287  12.457  0.8248 -2.3318 -1.8301
19461TIP3   OH279873   0.501   4.144  16.924  0.2422 -0.4740 -0.0942
19461TIP3    H179874   0.559   4.208  16.964  0.7043 -0.0993 -1.3288
19461TIP3    H279875   0.477   4.183  16.840 -1.0968 -1.0212  0.0256
19462TIP3   OH279876   6.522   4.172   4.835  0.1135 -0.4295 -0.3798
19462TIP3    H179877   6.579   4.224   4.778  0.0241  1.2209  0.9821
19462TIP3    H279878   6.557   4.187   4.923 -2.3084  0.5055  0.4645
19463TIP3   OH279879   3.223   1.845   2.924  0.0125 -0.6619  0.1045
19463TIP3    H179880   3.138   1.818   2.891  0.8479 -3.3217  0.0058
19463TIP3    H279881   3.277   1.766   2.919  2.1063  0.6316  1.4055
19464TIP3   OH279882   4.171   2.916  14.650  0.0325  0.0760 -0.0364
19464TIP3    H179883   4.132   2.994  14.609 -0.3778  0.0298  0.2663
19464TIP3    H279884   4.129   2.911  14.736  1.0144  0.2713  0.4668
19465TIP3   OH279885   2.739   3.813   4.813  0.8895 -0.4340  0.3359
19465TIP3    H179886   2.753   3.831   4.720 -0.7151  1.1636  0.3741
19465TIP3    H279887   2.713   3.721   4.816  0.9898 -0.5026 -0.7982
19466TIP3   OH279888   4.824   5.859  13.405  0.4080  0.1830  0.7560
19466TIP3    H179889   4.760   5.920  13.367  1.6693  0.3705 -1.1134
19466TIP3    H279890   4.868   5.820  13.329  0.6443 -1.9719  1.9601
19467TIP3   OH279891   2.400   4.376  14.097  0.1870 -0.2496 -0.0285
19467TIP3    H179892   2.361   4.458  14.125  0.6007 -0.0699  0.0193
19467TIP3    H279893   2.333   4.310  14.116  0.4340 -0.1209  1.2994
19468TIP3   OH279894   6.649   5.222   3.463 -0.4069 -0.0496  0.5988
19468TIP3    H179895   6.664   5.271   3.382  1.9877  0.4095  1.2739
19468TIP3    H279896   6.590   5.151   3.438 -1.8658  1.6584 -0.9569
19469TIP3   OH279897   4.540   2.950   4.036  0.1258  0.3104 -0.0487
19469TIP3    H179898   4.581   2.919   4.117 -1.0829 -1.2294  0.0111
19469TIP3    H279899   4.612   2.984   3.984  1.5718 -2.5557 -0.0397
19470TIP3   OH279900   5.832   3.307  11.345  0.0683 -0.4307  0.3214
19470TIP3    H179901   5.763   3.243  11.330 -0.4213  0.4768 -1.5048
19470TIP3    H279902   5.845   3.349  11.260  1.3707  0.9008  1.1391
19471TIP3   OH279903   3.950   6.794   4.932 -0.2304  0.6491 -0.2461
19471TIP3    H179904   4.041   6.817   4.950  0.1913  0.2533 -1.7889
19471TIP3    H279905   3.901   6.832   5.005  1.4851 -1.8470  2.3046
19472TIP3   OH279906   2.320   3.595  13.595 -0.0463 -0.4274 -0.7207
19472TIP3    H179907   2.270   3.666  13.636  0.2689 -0.3100 -0.5386
19472TIP3    H279908   2.411   3.625  13.598  0.2287 -1.3466  0.4117
19473TIP3   OH279909   3.630   3.063  11.267  0.3083  0.6030  0.0278
19473TIP3    H179910   3.649   3.151  11.237 -3.4794  0.7542 -2.1052
19473TIP3    H279911   3.541   3.067  11.301  1.4269 -1.5579  3.5835
19474TIP3   OH279912   0.302   0.238   0.231 -0.0492  0.6968 -0.5171
19474TIP3    H179913   0.240   0.170   0.255  0.6471  0.6134  1.1258
19474TIP3    H279914   0.376   0.191   0.192  0.9881  0.3414  1.7624
19475TIP3   OH279915   0.801   2.093   2.825 -0.7216 -0.3180 -0.2999
19475TIP3    H179916   0.894   2.076   2.842 -1.1848 -2.1437  0.5745
19475TIP3    H279917   0.777   2.161   2.888 -0.2599 -0.6906  0.2774
19476TIP3   OH279918   1.697   0.063  13.019 -0.1182 -0.3543 -0.2775
19476TIP3    H179919   1.771   0.086  12.963  1.1653  0.6448  1.7880
19476TIP3    H279920   1.701  -0.032  13.027  0.7074 -0.3417 -0.5072
19477TIP3   OH279921   4.324   5.174   0.611 -0.3753 -0.4072  0.3284
19477TIP3    H179922   4.361   5.180   0.523  0.4134  1.4511  0.7676
19477TIP3    H279923   4.381   5.113   0.657  1.0761  1.0411  0.4633
19478TIP3   OH279924   6.406   3.626   2.476 -0.4659  0.3969 -0.3168
19478TIP3    H179925   6.487   3.604   2.429 -0.2039  1.4811 -0.3852
19478TIP3    H279926   6.424   3.599   2.566  0.0817  0.8793 -0.2753
19479TIP3   OH279927   2.295   4.922   4.653 -0.4262 -0.1179 -0.5756
19479TIP3    H179928   2.203   4.940   4.667 -0.0487  1.3125  0.0906
19479TIP3    H279929   2.313   4.955   4.565 -0.3596  0.3517 -0.3865
19480TIP3   OH279930   1.069   5.958  13.902 -0.0227 -0.0527  0.4802
19480TIP3    H179931   1.021   5.891  13.951  0.0629 -0.0637  0.5490
19480TIP3    H279932   1.159   5.951  13.934  0.0835 -0.2307  0.1440
19481TIP3   OH279933   6.395   2.599   5.412 -0.1938  0.6134  0.1365
19481TIP3    H179934   6.362   2.663   5.348 -0.4510  1.3599  1.0064
19481TIP3    H279935   6.316   2.551   5.440 -0.0655  0.2147 -0.1698
19482TIP3   OH279936   5.189   2.319   1.192 -0.7802 -0.2487 -0.3427
19482TIP3    H179937   5.143   2.351   1.115  0.6742  1.5561 -0.5225
19482TIP3    H279938   5.174   2.387   1.258  1.0845  0.1178 -0.2435
19483TIP3   OH279939   0.726   4.792  13.195  0.1772  0.5782 -0.1713
19483TIP3    H179940   0.770   4.752  13.270  0.3961  0.3215 -0.4346
19483TIP3    H279941   0.674   4.721  13.157  1.6589  0.1436 -1.4767
19484TIP3   OH279942   2.057   5.601  16.420 -0.4010 -0.1885 -0.1335
19484TIP3    H179943   2.080   5.540  16.350 -1.0327 -0.2584 -0.2840
19484TIP3    H279944   2.137   5.609  16.472 -0.4525 -1.5336  0.1789
19485TIP3   OH279945   6.449   0.982  14.449 -0.2218  0.7251  0.1779
19485TIP3    H179946   6.542   1.003  14.438 -0.2721  1.1519  0.5594
19485TIP3    H279947   6.423   0.946  14.364  1.3332 -3.5038  1.3579
19486TIP3   OH279948   6.512   2.928  10.951  0.2208  1.0951  0.9107
19486TIP3    H179949   6.448   2.945  10.882  1.9007 -0.6221 -1.1081
19486TIP3    H279950   6.460   2.893  11.024 -1.4638  2.2506  0.3105
19487TIP3   OH279951   0.185   0.060   5.928  0.3511  0.0254  0.3568
19487TIP3    H179952   0.237   0.107   5.993  3.1211 -0.9448 -1.0969
19487TIP3    H279953   0.201  -0.033   5.948  0.2501 -0.2743 -0.9389
19488TIP3   OH279954   2.698   1.725   2.620 -0.3852  0.6961 -0.0631
19488TIP3    H179955   2.611   1.751   2.590 -0.7012  0.1832  0.4030
19488TIP3    H279956   2.711   1.638   2.583  0.7721  1.5806 -1.8239
19489TIP3   OH279957   0.845   0.512   2.426 -0.4078  0.2710  0.5874
19489TIP3    H179958   0.911   0.554   2.370  0.8189  0.0665  1.8589
19489TIP3    H279959   0.845   0.420   2.400 -2.2215  0.7715 -1.3492
19490TIP3   OH279960   1.641   0.016   0.708 -0.3433 -0.0721 -0.0016
19490TIP3    H179961   1.565   0.059   0.748  0.1338  1.2354 -0.4757
19490TIP3    H279962   1.614  -0.000   0.618 -0.0834  0.3119 -0.1458
19491TIP3   OH279963   2.182   6.446  16.010 -0.1008  0.9205 -0.4068
19491TIP3    H179964   2.133   6.438  16.092 -1.0530  0.7274 -0.9888
19491TIP3    H279965   2.236   6.524  16.022  0.9102  0.0106  0.9933
19492TIP3   OH279966   2.074   1.394  13.629  0.6909  0.1125 -0.2897
19492TIP3    H179967   2.031   1.480  13.634 -1.1426 -0.8435  1.3234
19492TIP3    H279968   2.115   1.383  13.715  0.4208 -0.8405 -0.2772
19493TIP3   OH279969   6.598   0.280   3.267 -0.4153 -0.2360 -0.3700
19493TIP3    H179970   6.685   0.317   3.279 -0.6100  0.1405 -0.1190
19493TIP3    H279971   6.545   0.320   3.336 -0.6307 -0.9582 -0.1157
19494TIP3   OH279972   3.770   4.481   3.613 -0.2726 -0.1707 -0.0323
19494TIP3    H179973   3.780   4.408   3.551  0.3261  0.2700 -0.4620
19494TIP3    H279974   3.676   4.493   3.621 -0.3586 -0.3876 -0.6914
19495TIP3   OH279975   5.816   0.618  12.620 -0.1861 -0.6213 -0.4041
19495TIP3    H179976   5.905   0.649  12.609 -0.3580 -0.6846 -2.0312
19495TIP3    H279977   5.799   0.628  12.714  0.3220  2.6558 -0.6039
19496TIP3   OH279978   4.593   3.371   2.555  0.2418  0.3817  0.3974
19496TIP3    H179979   4.583   3.371   2.650  1.0705  1.2163  0.4983
19496TIP3    H279980   4.506   3.348   2.521 -0.5231  1.8529  1.3188
19497TIP3   OH279981   6.044   5.325  11.527  0.3590  0.2871  0.1935
19497TIP3    H179982   5.971   5.299  11.584  0.1780  2.6168  1.0902
19497TIP3    H279983   6.004   5.343  11.442  0.2577 -0.7360  0.0176
19498TIP3   OH279984   1.164   3.082  11.735 -0.3683 -0.9561  0.2122
19498TIP3    H179985   1.121   3.035  11.663  0.6020 -0.2584 -0.8485
19498TIP3    H279986   1.242   3.030  11.754  0.4981 -0.0280 -0.6951
19499TIP3   OH279987   5.703   3.646  13.060 -0.1743  0.1286  0.9117
19499TIP3    H179988   5.630   3.649  12.997  0.9442  0.8168 -0.3877
19499TIP3    H279989   5.750   3.728  13.046  0.2657  0.1558  2.4704
19500TIP3   OH279990   2.596   2.594   0.022  0.5888 -0.1341 -0.1514
19500TIP3    H179991   2.686   2.598  -0.012 -0.2068  0.6414 -2.2731
19500TIP3    H279992   2.571   2.686   0.034 -0.9766 -0.2016 -2.5765
19501TIP3   OH279993   3.828   4.807   2.367  0.4349 -0.1238 -0.4948
19501TIP3    H179994   3.780   4.788   2.287  0.3411 -2.2340  0.0226
19501TIP3    H279995   3.768   4.861   2.419  0.0977  0.3827 -1.3970
19502TIP3   OH279996   0.421   5.424   2.009 -0.2594  0.4228 -0.2013
19502TIP3    H179997   0.462   5.392   1.928  1.5952  0.1210  0.8395
19502TIP3    H279998   0.468   5.505   2.029 -2.5059  1.9252 -0.8425
19503TIP3   OH279999   1.418   5.195   6.179  0.5106 -0.0608 -0.3087
19503TIP3    H180000   1.355   5.123   6.183  0.6681 -0.1561  0.8338
19503TIP3    H280001   1.478   5.178   6.252  0.5531  1.2156 -0.0261
19504TIP3   OH280002   3.228   3.537  10.142  0.9149  0.1395  0.2783
19504TIP3    H180003   3.250   3.629  10.128  2.7225 -0.3120 -0.0285
19504TIP3    H280004   3.203   3.505  10.055 -0.2596  0.4668  0.4877
19505TIP3   OH280005   0.820   2.143  15.153 -0.4570 -0.1419  0.3174
19505TIP3    H180006   0.763   2.189  15.091 -1.5160  1.0700  2.1239
19505TIP3    H280007   0.770   2.065  15.177 -0.4677 -0.1258  0.3490
19506TIP3   OH280008   4.801   1.042   4.023 -0.5064  0.1533 -0.2270
19506TIP3    H180009   4.828   1.008   4.108  0.8119  1.8876  0.0902
19506TIP3    H280010   4.779   0.965   3.971 -0.2932 -0.9799  1.3407
19507TIP3   OH280011   6.205   4.542   2.735  0.0822 -0.0151  0.4390
19507TIP3    H180012   6.127   4.493   2.708 -0.6919  1.3191  0.2534
19507TIP3    H280013   6.232   4.500   2.817  0.0799 -1.4697 -0.2781
19508TIP3   OH280014   2.670   2.069  11.457 -0.0361 -0.4871 -0.2089
19508TIP3    H180015   2.725   2.071  11.535 -0.6209 -0.4489  0.2005
19508TIP3    H280016   2.624   1.985  11.461 -0.3832 -0.3031 -0.2911
19509TIP3   OH280017   2.046   3.480  11.501  0.4540  0.4599 -0.3696
19509TIP3    H180018   1.984   3.530  11.552  1.1908 -0.4132  1.4194
19509TIP3    H280019   2.100   3.546  11.456  1.3697  1.2861  1.8897
19510TIP3   OH280020   3.620   5.795  11.981 -0.3613 -0.2012  0.2688
19510TIP3    H180021   3.590   5.816  12.070  1.3866  1.4875  0.5040
19510TIP3    H280022   3.652   5.705  11.987 -1.1582 -0.4432  1.0962
19511TIP3   OH280023   5.324   5.241   3.615 -0.2196  0.4865 -0.5428
19511TIP3    H180024   5.381   5.164   3.616  0.4451  0.9029  4.8296
19511TIP3    H280025   5.380   5.312   3.584  0.7200 -0.1427 -0.3155
19512TIP3   OH280026   6.096   5.780  12.989 -0.0174  0.1244  0.0690
19512TIP3    H180027   6.102   5.871  13.018  1.8975  0.6350 -1.8045
19512TIP3    H280028   6.173   5.767  12.935 -0.2828 -2.6291  0.2814
19513TIP3   OH280029   2.479   1.286   0.286 -0.0078  0.1435  0.1890
19513TIP3    H180030   2.476   1.379   0.309  0.3481  0.3050 -0.4338
19513TIP3    H280031   2.393   1.253   0.313  0.5458  0.2374  2.1477
19514TIP3   OH280032   2.343   4.498   2.809  0.1415 -0.1288  0.0385
19514TIP3    H180033   2.437   4.512   2.817  0.4951 -2.6256  0.6241
19514TIP3    H280034   2.315   4.561   2.742  2.1837  0.7262 -0.0393
19515TIP3   OH280035   2.488   5.045   0.165  0.0295  0.1736 -0.0796
19515TIP3    H180036   2.480   4.981   0.094  0.7040 -1.3820  1.2324
19515TIP3    H280037   2.510   4.993   0.242 -1.7887  1.7123  1.5296
19516TIP3   OH280038   3.202   0.612   0.486 -0.0317  0.6186  0.0007
19516TIP3    H180039   3.270   0.676   0.465  0.7669  0.1235  1.0047
19516TIP3    H280040   3.223   0.536   0.433 -1.6121  1.5474 -2.0124
19517TIP3   OH280041   2.239   2.665  15.259 -0.7433  0.0017  0.0702
19517TIP3    H180042   2.274   2.712  15.183  1.1605 -0.5942  0.5523
19517TIP3    H280043   2.148   2.647  15.236 -0.8066  1.7326 -1.1567
19518TIP3   OH280044   0.010   3.741   4.442 -0.1688  0.1608 -0.1131
19518TIP3    H180045  -0.061   3.755   4.380  0.4187  0.2309 -0.7771
19518TIP3    H280046   0.044   3.654   4.420  1.0475  0.8245 -0.9202
19519TIP3   OH280047   1.966   2.886   4.977  0.3892  0.1795 -0.7916
19519TIP3    H180048   1.981   2.884   4.882  1.2420 -0.3322 -0.6420
19519TIP3    H280049   1.928   2.801   4.997  0.4206  0.2025 -0.6317
19520TIP3   OH280050   0.233   3.788   4.273  0.4404  0.0531 -0.3958
19520TIP3    H180051   0.310   3.735   4.295  0.0909  0.1782  1.1980
19520TIP3    H280052   0.169   3.767   4.341 -0.1633  1.5459 -0.4818
19521TIP3   OH280053   3.479   0.426   3.854  0.1206  0.4199  0.2502
19521TIP3    H180054   3.571   0.417   3.880  0.0688 -0.0358  0.2739
19521TIP3    H280055   3.429   0.393   3.928 -0.0050 -2.1712 -0.9367
19522TIP3   OH280056   0.580   0.698   5.590 -0.7096 -0.7199 -0.2915
19522TIP3    H180057   0.600   0.654   5.672  1.5372  1.7164  0.5323
19522TIP3    H280058   0.559   0.627   5.529  4.0492 -3.0852  0.6152
19523TIP3   OH280059   3.456   6.513   4.195 -0.0202  0.0161  0.4469
19523TIP3    H180060   3.427   6.584   4.252  1.3880  0.0648  1.1188
19523TIP3    H280061   3.529   6.473   4.241  0.5867 -0.4942 -0.9254
19524TIP3   OH280062   6.789   6.804  13.724  0.1184 -0.3064 -0.7171
19524TIP3    H180063   6.791   6.753  13.805 -0.1317  1.9402  0.7450
19524TIP3    H280064   6.875   6.846  13.720  0.5382 -1.2880 -2.2099
19525TIP3   OH280065   6.152   1.001   1.210  0.2493  0.6433  0.6568
19525TIP3    H180066   6.074   0.976   1.259 -0.7070 -0.6433 -1.4342
19525TIP3    H280067   6.221   1.008   1.277 -1.4079  0.7962  2.3947
19526TIP3   OH280068   1.036   6.062  13.069  0.3262 -0.2357  0.2142
19526TIP3    H180069   1.017   6.104  13.153 -0.3052  0.9143 -0.4898
19526TIP3    H280070   0.954   6.071  13.020  0.7317 -0.8044 -0.5561
19527TIP3   OH280071   3.155   2.028   4.419 -0.1880 -0.3378  0.5089
19527TIP3    H180072   3.075   1.978   4.434 -1.6444  2.0479  0.9723
19527TIP3    H280073   3.207   2.015   4.498 -1.1061 -0.1116  1.1501
19528TIP3   OH280074   1.212   4.975  12.638  0.0243  0.1747  0.1025
19528TIP3    H180075   1.234   4.943  12.551 -0.8220 -1.4366  0.4544
19528TIP3    H280076   1.269   4.925  12.697  0.6108  1.2721  0.4760
19529TIP3   OH280077   2.904   5.008   4.362  0.2552 -0.6317  0.2632
19529TIP3    H180078   2.825   5.037   4.317  0.1233 -2.0065 -0.4190
19529TIP3    H280079   2.878   4.926   4.405  1.2879 -1.0590  0.0827
19530TIP3   OH280080   6.030   1.071   0.977 -0.0651  0.2622 -0.3420
19530TIP3    H180081   6.041   1.029   1.062 -0.1547 -0.7060 -0.7974
19530TIP3    H280082   6.118   1.102   0.953 -0.4936  2.7916  1.2344
19531TIP3   OH280083   2.245   1.897   3.290  0.1898 -0.1352 -0.1768
19531TIP3    H180084   2.290   1.981   3.278 -0.2325 -0.0409 -1.1970
19531TIP3    H280085   2.309   1.842   3.335  1.5291 -0.1526 -2.0003
19532TIP3   OH280086   3.546   2.571  15.998  0.3946  0.5597 -0.2108
19532TIP3    H180087   3.518   2.481  16.009 -0.9082  0.7494 -1.6901
19532TIP3    H280088   3.466   2.618  15.973  1.1498  2.0238  0.0597
19533TIP3   OH280089   5.922   4.369  15.664 -0.2772 -1.2860 -0.3282
19533TIP3    H180090   5.927   4.325  15.749 -1.4428 -0.8345 -0.0094
19533TIP3    H280091   6.007   4.353  15.624  0.3801 -1.2980  1.0221
19534TIP3   OH280092   3.313   5.939   2.301 -0.2719 -0.0710 -0.5778
19534TIP3    H180093   3.232   5.953   2.250 -0.0791  0.1232 -0.8342
19534TIP3    H280094   3.305   5.998   2.375 -0.8200 -0.7762 -0.0714
19535TIP3   OH280095   0.946   2.951   3.271  0.5979 -0.0265  0.6179
19535TIP3    H180096   0.909   2.993   3.349 -0.4880 -1.1417  0.7144
19535TIP3    H280097   1.009   2.888   3.305 -0.7720 -1.4007  0.6808
19536TIP3   OH280098   5.386   0.091   0.932 -0.5793 -0.0043 -0.1474
19536TIP3    H180099   5.308   0.128   0.891 -0.2788  1.1687  0.3038
19536TIP3    H280100   5.402   0.147   1.009 -0.8915 -1.8791  1.3294
19537TIP3   OH280101   4.182   3.202   2.033 -0.0606  0.0795  0.0805
19537TIP3    H180102   4.128   3.123   2.022 -0.7781  0.6006 -0.1915
19537TIP3    H280103   4.229   3.187   2.115 -2.6651  0.7885  1.7687
19538TIP3   OH280104   1.521   1.491  10.471 -0.2130 -0.1405  0.1965
19538TIP3    H180105   1.598   1.512  10.418 -0.0114 -1.3924 -0.0355
19538TIP3    H280106   1.451   1.479  10.407 -0.4934  0.5120  0.3753
19539TIP3   OH280107   4.104   6.462   5.334 -0.5865  0.1519 -0.3292
19539TIP3    H180108   4.046   6.396   5.295  0.5125 -1.2200  0.3186
19539TIP3    H280109   4.190   6.443   5.296  0.2300 -0.3590  1.7141
19540TIP3   OH280110   5.743   5.637  16.998 -0.5949  0.1422 -0.0060
19540TIP3    H180111   5.685   5.709  17.025 -1.3004  0.3258 -1.9771
19540TIP3    H280112   5.686   5.560  16.998 -0.2416 -0.1229  0.4303
19541TIP3   OH280113   3.340   5.160  15.148 -0.3077  0.5186 -0.2288
19541TIP3    H180114   3.289   5.206  15.215  0.8982 -1.0371  1.8020
19541TIP3    H280115   3.342   5.069  15.177 -0.6176 -0.4209 -2.9456
19542TIP3   OH280116   6.479   3.659  12.855  0.4786 -0.3651  0.2810
19542TIP3    H180117   6.545   3.722  12.881 -0.5547 -0.3336  2.9638
19542TIP3    H280118   6.410   3.712  12.814  0.8532 -0.0934 -0.0039
19543TIP3   OH280119   6.471   2.165   0.808 -0.5139 -0.2884  0.6186
19543TIP3    H180120   6.409   2.095   0.832 -1.4816  0.7146  1.0848
19543TIP3    H280121   6.522   2.128   0.736 -0.8540 -1.5717  1.0158
19544TIP3   OH280122   1.238   1.321  14.946 -0.5253  0.6628 -0.6357
19544TIP3    H180123   1.246   1.255  15.015  0.3179  0.4785 -0.9063
19544TIP3    H280124   1.153   1.362  14.962 -0.5502  0.2902  0.2213
19545TIP3   OH280125   6.634   5.344  13.011 -0.3329  0.0898  0.0464
19545TIP3    H180126   6.599   5.283  12.945  0.4164 -0.9258  0.5849
19545TIP3    H280127   6.723   5.362  12.982 -0.3595  0.4830  0.2043
19546TIP3   OH280128   2.722   4.372   1.986 -0.4766 -0.0056 -0.3258
19546TIP3    H180129   2.725   4.431   1.910 -0.6728  0.4907  0.0493
19546TIP3    H280130   2.645   4.318   1.972 -0.5434  0.1228 -0.4542
19547TIP3   OH280131   2.233   3.719   5.523 -0.1861 -0.6580 -0.1550
19547TIP3    H180132   2.239   3.803   5.569 -0.4419  0.6855 -2.5049
19547TIP3    H280133   2.149   3.724   5.476  0.1478 -1.9281 -0.9013
19548TIP3   OH280134   2.503   1.714  13.993  0.3954 -0.5101  0.7599
19548TIP3    H180135   2.428   1.758  14.035  0.5229 -1.5968  2.1400
19548TIP3    H280136   2.573   1.720  14.057  1.4138  0.2168 -0.4082
19549TIP3   OH280137   2.526   3.192  13.079  0.0429 -0.3168  0.2587
19549TIP3    H180138   2.552   3.255  13.011  3.4929 -2.2408 -0.3117
19549TIP3    H280139   2.497   3.115  13.030 -1.2541 -0.3020  0.9776
19550TIP3   OH280140   1.864   0.463   0.560 -0.6575  0.2749 -0.1590
19550TIP3    H180141   1.881   0.373   0.532  1.7839 -0.1995  2.5748
19550TIP3    H280142   1.912   0.518   0.498 -0.4795 -0.4373 -0.6472
19551TIP3   OH280143   1.886   4.518  17.195 -0.0598 -0.1419  0.4270
19551TIP3    H180144   1.899   4.443  17.254 -0.9973  0.0832  0.9213
19551TIP3    H280145   1.973   4.532  17.157 -0.3411 -2.8760 -1.3966
19552TIP3   OH280146   0.007   4.645   5.161 -0.0453  0.4382 -0.0481
19552TIP3    H180147  -0.033   4.682   5.082  0.2739  1.2704  0.1672
19552TIP3    H280148   0.060   4.717   5.196  0.3469 -0.1389  0.5546
19553TIP3   OH280149   2.237   5.063  13.728 -0.1875  0.2053  0.1389
19553TIP3    H180150   2.203   5.125  13.664  0.0809 -0.6994 -0.8995
19553TIP3    H280151   2.160   5.015  13.758 -0.1423 -0.3098 -0.5468
19554TIP3   OH280152   5.980   6.568  16.621  0.4155 -0.7018  0.2048
19554TIP3    H180153   6.048   6.512  16.584  0.8462  0.4050 -0.6961
19554TIP3    H280154   6.028   6.640  16.661 -0.0607 -1.5561  2.4247
19555TIP3   OH280155   2.521   5.267  15.481 -0.6491 -0.0755  0.4893
19555TIP3    H180156   2.552   5.250  15.570  1.4781 -1.7678 -0.5279
19555TIP3    H280157   2.446   5.209  15.471  2.3015 -3.8655 -0.5504
19556TIP3   OH280158   2.476   2.967  11.599  0.6768 -0.0970 -0.1889
19556TIP3    H180159   2.504   2.955  11.508  0.4954  0.4332 -0.3158
19556TIP3    H280160   2.398   2.912  11.608  1.2146 -0.8526 -0.0983
19557TIP3   OH280161   3.678   3.039   6.481 -0.3263 -0.4042 -0.0080
19557TIP3    H180162   3.599   3.077   6.442  0.9629  0.4875 -1.7973
19557TIP3    H280163   3.710   3.108   6.540 -0.1672 -0.2501 -0.2727
19558TIP3   OH280164   1.445   0.586   0.912  0.3328 -0.4498  0.2442
19558TIP3    H180165   1.407   0.499   0.896 -1.8693  0.5959 -0.3897
19558TIP3    H280166   1.484   0.579   1.000 -2.2515 -1.3027  1.3667
19559TIP3   OH280167   3.845   6.647  12.161  0.3506 -0.6857 -0.2715
19559TIP3    H180168   3.928   6.658  12.116  0.8886 -0.6797  0.7051
19559TIP3    H280169   3.869   6.638  12.253 -0.8846  1.5210  0.2832
19560TIP3   OH280170   5.095   5.781   1.879  0.0140  0.1702 -0.4409
19560TIP3    H180171   5.177   5.829   1.888 -0.5294  1.3548 -1.5407
19560TIP3    H280172   5.032   5.848   1.851 -1.8546 -0.2487  2.5805
19561TIP3   OH280173   2.918   6.801   4.524  0.6158 -0.2322 -0.3567
19561TIP3    H180174   2.856   6.749   4.576  1.9058 -2.0700 -0.6037
19561TIP3    H280175   2.967   6.736   4.474  3.6128  1.1012  0.7557
19562TIP3   OH280176   5.831   2.421  11.354 -0.3589 -0.1589 -0.0650
19562TIP3    H180177   5.859   2.472  11.277  3.8819  1.0840  2.1647
19562TIP3    H280178   5.749   2.462  11.381 -0.2740  1.4123 -2.0612
19563TIP3   OH280179   3.056   1.540   3.403  0.2465 -0.6474  0.3076
19563TIP3    H180180   3.014   1.555   3.318 -0.5594 -2.9828  0.2677
19563TIP3    H280181   2.988   1.562   3.467  0.1683 -0.9205  0.3167
19564TIP3   OH280182   1.305   4.434   2.769 -0.3506 -0.1309  0.4347
19564TIP3    H180183   1.395   4.409   2.789 -0.3288 -0.8770 -0.5280
19564TIP3    H280184   1.252   4.360   2.801 -0.8394  1.3091  3.0622
19565TIP3   OH280185   5.788   1.513  11.837  0.2615 -0.5583 -0.0807
19565TIP3    H180186   5.874   1.502  11.879 -0.3345  0.0687  1.3344
19565TIP3    H280187   5.725   1.496  11.907 -0.7440  0.7239 -0.6538
19566TIP3   OH280188   4.383   5.333   1.512  0.3712  0.0608  0.1169
19566TIP3    H180189   4.473   5.317   1.541  0.5459 -2.5541 -1.7079
19566TIP3    H280190   4.338   5.363   1.591  2.1302 -1.4965  1.7864
19567TIP3   OH280191   2.569   6.441   4.254  0.8392 -0.6775 -0.9766
19567TIP3    H180192   2.585   6.531   4.283  0.8273 -0.5154 -1.4726
19567TIP3    H280193   2.503   6.449   4.185 -2.0260 -1.3974  1.5377
19568TIP3   OH280194   6.598   2.825  12.912 -0.1779 -0.1919  0.4246
19568TIP3    H180195   6.643   2.881  12.849  0.3224 -1.1934 -0.1229
19568TIP3    H280196   6.666   2.770  12.949 -0.1185  1.7871  3.4167
19569TIP3   OH280197   3.187   3.554   2.463 -0.1561  0.0415 -0.3918
19569TIP3    H180198   3.151   3.639   2.492  0.3993  0.7324 -1.6755
19569TIP3    H280199   3.110   3.499   2.451 -0.4806  0.1682  1.0672
19570TIP3   OH280200   1.432   4.416  14.205  0.0753  0.2841 -0.2345
19570TIP3    H180201   1.490   4.487  14.232  0.1454  0.6772 -1.3775
19570TIP3    H280202   1.344   4.451  14.218  0.1080  0.9611 -1.7129
19571TIP3   OH280203   3.032   3.086   1.290 -0.1840  0.6005  0.8098
19571TIP3    H180204   3.083   3.111   1.367  1.1436  2.1024 -0.5174
19571TIP3    H280205   3.090   3.104   1.216 -1.3768 -0.9671 -0.5445
19572TIP3   OH280206   6.757   3.344   2.677  0.1897  0.2418  0.1299
19572TIP3    H180207   6.848   3.323   2.700  0.4466  1.3201  0.0977
19572TIP3    H280208   6.739   3.289   2.601  0.3128 -1.1150  1.0492
19573TIP3   OH280209   5.366   2.256   6.113 -0.0106  0.0487  0.6437
19573TIP3    H180210   5.298   2.282   6.175 -0.8885 -1.5287  0.3765
19573TIP3    H280211   5.435   2.218   6.168 -1.0848 -1.9727  0.6181
19574TIP3   OH280212   6.313   6.671   0.179  0.6817 -0.2243 -0.2933
19574TIP3    H180213   6.233   6.712   0.147  1.4177  1.0557 -0.5008
19574TIP3    H280214   6.286   6.621   0.256 -0.0882  1.2545  0.4042
19575TIP3   OH280215   1.604   6.043   1.222 -0.1128  0.4620 -0.2975
19575TIP3    H180216   1.541   6.074   1.157 -0.6566 -0.4699 -0.2249
19575TIP3    H280217   1.680   6.015   1.170  0.1611  1.3781 -0.3991
19576TIP3   OH280218   6.054   0.431  13.163  0.0749 -0.2094  0.4510
19576TIP3    H180219   6.136   0.459  13.204  0.2718 -0.3784  0.1707
19576TIP3    H280220   6.079   0.355  13.110 -0.3036 -0.3967  0.5416
19577TIP3   OH280221   3.678   1.865   1.959 -0.3161  0.0129 -0.8281
19577TIP3    H180222   3.769   1.894   1.957  0.0631 -0.8566  2.2867
19577TIP3    H280223   3.683   1.771   1.972 -1.6427  0.2672  1.8852
19578TIP3   OH280224   1.400   5.565  16.942  0.1753 -0.2225 -0.5368
19578TIP3    H180225   1.414   5.654  16.909 -0.0059 -0.7232 -2.0062
19578TIP3    H280226   1.348   5.522  16.874  1.8589 -2.0313 -0.7054
19579TIP3   OH280227   4.439   4.737   3.452 -0.3131 -0.0353  0.4209
19579TIP3    H180228   4.519   4.735   3.505 -1.7917  0.1143  2.7114
19579TIP3    H280229   4.380   4.796   3.499 -3.0610 -2.8371  0.7221
19580TIP3   OH280230   3.953   5.066   3.154  0.4664 -0.2590 -0.3743
19580TIP3    H180231   3.957   5.004   3.227 -0.8271 -1.0543 -0.9550
19580TIP3    H280232   4.039   5.109   3.154  1.4817 -2.1971 -0.0719
19581TIP3   OH280233   1.047   3.092  13.400 -0.3661  0.7523  0.1644
19581TIP3    H180234   1.101   3.167  13.427 -0.6652  0.7671  0.7234
19581TIP3    H280235   0.963   3.131  13.375 -0.1216  0.7323 -0.7348
19582TIP3   OH280236   4.030   6.507  15.034  0.6760  0.1071  0.2793
19582TIP3    H180237   4.049   6.597  15.061 -2.0567  0.7894 -0.0053
19582TIP3    H280238   3.999   6.515  14.944  0.8513 -1.1933  0.0916
19583TIP3   OH280239   0.507   6.721   3.965  0.4500 -0.7921  0.0721
19583TIP3    H180240   0.489   6.734   4.058  0.2683 -0.0279 -0.0671
19583TIP3    H280241   0.581   6.659   3.963  1.4987  0.4159  0.7619
19584TIP3   OH280242   0.898   5.955  14.428 -0.8591 -0.5132  0.1853
19584TIP3    H180243   0.895   5.995  14.515  0.6420  1.7581 -0.7513
19584TIP3    H280244   0.962   5.885  14.437 -0.3530  0.0143  0.8225
19585TIP3   OH280245   6.312   5.032   1.847  0.0933 -0.3755 -0.4978
19585TIP3    H180246   6.365   5.002   1.921  0.9422  2.0335 -0.0987
19585TIP3    H280247   6.238   4.972   1.845  1.2798 -1.9378  0.8252
19586TIP3   OH280248   2.803   3.654   0.615 -0.7073 -0.2074 -0.3312
19586TIP3    H180249   2.766   3.580   0.662 -0.2338 -0.3194 -0.1364
19586TIP3    H280250   2.727   3.697   0.575 -1.0004 -0.6930 -0.3021
19587TIP3   OH280251   4.753   4.205   1.765  0.1705  0.1396  0.2773
19587TIP3    H180252   4.699   4.136   1.727 -2.0726  2.0406 -0.1072
19587TIP3    H280253   4.843   4.172   1.759 -0.3227 -0.6450 -4.5691
19588TIP3   OH280254   5.094   6.751   0.674 -0.1929 -0.6426  0.4346
19588TIP3    H180255   5.135   6.796   0.600  0.2491 -0.6847  0.6551
19588TIP3    H280256   5.043   6.681   0.633  0.4791 -1.0006  0.1948
19589TIP3   OH280257   1.226   3.898   5.395 -0.3374  0.6236  0.6045
19589TIP3    H180258   1.146   3.950   5.402 -0.2450  0.7376  0.8142
19589TIP3    H280259   1.220   3.835   5.466 -0.8299 -0.1792 -0.1373
19590TIP3   OH280260   2.569   1.754  12.988  0.3208  0.1937 -0.1118
19590TIP3    H180261   2.637   1.704  13.033 -0.8512  0.5252  2.0616
19590TIP3    H280262   2.576   1.842  13.024 -1.7693  0.0398  0.7229
19591TIP3   OH280263   2.783   4.113  11.445 -0.1425 -0.5859 -0.3295
19591TIP3    H180264   2.817   4.041  11.392 -0.8504  0.8395 -2.7818
19591TIP3    H280265   2.694   4.127  11.413 -0.1611  1.1242  0.3992
19592TIP3   OH280266   1.469   0.524   4.969 -0.0097  0.2083  0.7053
19592TIP3    H180267   1.490   0.595   4.908 -0.7636  0.8341  1.1784
19592TIP3    H280268   1.401   0.559   5.026  1.1871 -0.1145  2.3852
19593TIP3   OH280269   5.820   1.294   0.421  0.4141 -0.3825  0.4348
19593TIP3    H180270   5.746   1.344   0.453 -0.8143 -1.6386 -0.3783
19593TIP3    H280271   5.861   1.350   0.355 -1.0486 -0.4867 -0.5943
19594TIP3   OH280272   1.881   1.984  12.041 -0.1101  0.0490 -0.3500
19594TIP3    H180273   1.872   2.043  11.967 -0.3026 -1.0548 -1.2209
19594TIP3    H280274   1.795   1.984  12.082 -0.5334 -0.7591 -1.2235
19595TIP3   OH280275   3.994   6.513  11.368  0.6235  0.5840 -0.2466
19595TIP3    H180276   3.957   6.476  11.448  0.6834  1.3690  0.1400
19595TIP3    H280277   4.075   6.556  11.396 -1.4786  4.5191 -0.0348
19596TIP3   OH280278   4.509   5.571  12.642  0.1220  0.0684 -0.2130
19596TIP3    H180279   4.566   5.628  12.694 -0.9129  1.3414 -0.4451
19596TIP3    H280280   4.562   5.545  12.567  0.4932  1.0535 -0.3006
19597TIP3   OH280281   5.495   0.636   0.348 -0.7609 -1.0696  0.8957
19597TIP3    H180282   5.509   0.619   0.255 -0.9934  0.6276  0.5411
19597TIP3    H280283   5.401   0.649   0.357 -0.5431  0.3879  1.0950
19598TIP3   OH280284   5.660   4.886  13.463  0.7035 -0.7514 -0.8507
19598TIP3    H180285   5.594   4.818  13.448  0.7561 -0.7513 -1.0792
19598TIP3    H280286   5.730   4.841  13.511  0.8159 -0.8999 -1.1537
19599TIP3   OH280287   2.332   2.812  13.571 -0.0486  0.5067  0.4923
19599TIP3    H180288   2.381   2.751  13.626  0.5153 -0.3927 -0.9831
19599TIP3    H280289   2.385   2.821  13.492 -0.9535  1.6084  0.0035
19600TIP3   OH280290   2.915   0.676  15.401  0.0150 -0.0024  0.7542
19600TIP3    H180291   2.821   0.667  15.415  0.0299  2.3843  2.6357
19600TIP3    H280292   2.949   0.587  15.408 -2.1874 -1.0321 -0.8940
19601TIP3   OH280293   6.693   1.227  13.571 -0.2140 -0.5878 -0.4642
19601TIP3    H180294   6.657   1.201  13.486  0.1109 -1.5303 -0.3154
19601TIP3    H280295   6.776   1.269  13.550 -0.3684 -0.3750 -0.6531
19602TIP3   OH280296   4.499   2.289   1.445  0.0969  0.6391 -0.4345
19602TIP3    H180297   4.574   2.230   1.445 -0.0357  0.4695 -0.6382
19602TIP3    H280298   4.423   2.230   1.453  0.0222  0.8489  0.4395
19603TIP3   OH280299   4.708   0.213   5.161 -0.0931  0.3053 -0.3222
19603TIP3    H180300   4.772   0.170   5.105 -0.3586 -0.5691  0.0218
19603TIP3    H280301   4.747   0.209   5.249  0.4107  1.8367 -0.4619
19604TIP3   OH280302   5.986   3.980   6.407 -0.2222  0.1693  0.3919
19604TIP3    H180303   5.973   3.886   6.397  0.9872  0.1767 -1.4094
19604TIP3    H280304   5.933   4.019   6.338 -0.0234  0.7726  0.5772
19605TIP3   OH280305   2.755   3.497   4.267  0.1387 -0.3045 -0.0773
19605TIP3    H180306   2.737   3.403   4.255 -0.2360 -0.1676 -0.6240
19605TIP3    H280307   2.700   3.523   4.340  1.3307 -0.8251  1.0308
19606TIP3   OH280308   0.619   4.787   3.827 -0.1599 -0.1302 -0.4173
19606TIP3    H180309   0.632   4.692   3.824  0.1185 -0.0818 -0.8370
19606TIP3    H280310   0.535   4.798   3.872  1.5967 -0.4256  3.1288
19607TIP3   OH280311   2.498   3.262   1.606 -0.1589  0.2986 -0.2260
19607TIP3    H180312   2.425   3.205   1.629  0.1894 -0.3828 -0.7797
19607TIP3    H280313   2.572   3.225   1.654  0.4354 -0.7539 -1.9053
19608TIP3   OH280314   5.654   5.495  11.386  0.1571  0.4972 -0.7212
19608TIP3    H180315   5.575   5.443  11.400 -0.2278  1.2173 -0.1459
19608TIP3    H280316   5.625   5.567  11.330  0.7878 -0.1645 -1.8929
19609TIP3   OH280317   1.921   1.995   3.950 -0.3148 -0.0955 -0.1200
19609TIP3    H180318   1.865   1.918   3.954 -1.2767  0.6603  1.3369
19609TIP3    H280319   1.872   2.057   3.895 -0.2132  0.0057 -0.0957
19610TIP3   OH280320   3.061   4.876   3.173  0.0489  0.2699  0.3684
19610TIP3    H180321   3.048   4.903   3.082 -0.5472  1.8780  0.9246
19610TIP3    H280322   3.058   4.780   3.170  0.0507  0.3100 -1.3033
19611TIP3   OH280323   4.620   2.005   1.423 -0.1121  0.0104 -0.3228
19611TIP3    H180324   4.544   1.951   1.442  0.7960 -0.8678  0.8516
19611TIP3    H280325   4.624   2.007   1.327 -1.9787  0.6040 -0.4151
19612TIP3   OH280326   0.154   2.001  13.098  0.1063  0.4288 -0.5269
19612TIP3    H180327   0.082   1.945  13.126 -0.1419 -0.3587 -2.6425
19612TIP3    H280328   0.116   2.089  13.096 -0.4427  0.1988 -0.4210
19613TIP3   OH280329   1.260   1.137  16.973 -0.3914 -0.0151 -0.3348
19613TIP3    H180330   1.281   1.133  16.880  1.3644 -2.2781  0.1185
19613TIP3    H280331   1.285   1.225  17.000  1.8092 -0.2853 -1.4055
19614TIP3   OH280332   5.217   2.952  12.968 -0.1236 -0.4458  0.0504
19614TIP3    H180333   5.167   3.030  12.990  0.4758  0.2472 -1.0075
19614TIP3    H280334   5.185   2.885  13.028  0.5042  1.0390  2.0927
19615TIP3   OH280335   5.591   0.773   1.762 -0.7316  0.0091  0.6103
19615TIP3    H180336   5.539   0.693   1.776 -2.3541  1.0159  0.3426
19615TIP3    H280337   5.649   0.776   1.839 -0.7377 -1.3540  0.6906
19616TIP3   OH280338   3.984   3.847   4.625  0.2244 -0.4999 -0.6870
19616TIP3    H180339   3.928   3.769   4.621  2.3123 -2.0516 -0.5000
19616TIP3    H280340   4.063   3.822   4.577  1.3391  1.1551  0.2373
19617TIP3   OH280341   5.911   3.575  14.704 -1.0709 -0.7300  0.1660
19617TIP3    H180342   5.844   3.507  14.698 -1.4721 -0.2696 -0.6908
19617TIP3    H280343   5.985   3.532  14.746 -0.5378 -2.3138 -2.2809
19618TIP3   OH280344   0.464   5.838  15.988  0.1831 -0.0167 -0.1169
19618TIP3    H180345   0.548   5.792  15.982 -0.2643 -0.7518 -0.9013
19618TIP3    H280346   0.418   5.795  16.060 -0.3148 -0.9597 -0.9763
19619TIP3   OH280347   1.898   2.592  12.510  0.1225 -0.3407 -0.2026
19619TIP3    H180348   1.835   2.663  12.506  1.3929  1.0425  2.9984
19619TIP3    H280349   1.911   2.566  12.418 -2.4869  1.5915 -1.1718
19620TIP3   OH280350   0.862   0.443  14.421  0.2237  0.0402 -0.4407
19620TIP3    H180351   0.874   0.512  14.356  1.0373  0.0884 -0.2471
19620TIP3    H280352   0.808   0.482  14.489  1.4812  0.8045  0.1405
19621TIP3   OH280353   4.525   4.353   0.581 -0.1234 -0.2009  0.1762
19621TIP3    H180354   4.503   4.433   0.629 -2.0315 -0.2341 -0.5913
19621TIP3    H280355   4.556   4.384   0.496  0.6106 -0.2413  0.4218
19622TIP3   OH280356   0.097   2.617  16.710 -0.2565  0.4208 -0.4084
19622TIP3    H180357   0.159   2.658  16.650 -0.4512  0.9683 -0.2443
19622TIP3    H280358   0.031   2.577  16.653 -0.5487  1.1093 -0.5624
19623TIP3   OH280359   2.632   1.712   6.099  0.1293 -0.4288  0.3501
19623TIP3    H180360   2.567   1.665   6.046 -0.5058  0.2280  0.5390
19623TIP3    H280361   2.599   1.706   6.188  0.0551  0.3466  0.3823
19624TIP3   OH280362   3.597   6.064   1.713  0.3855  0.0493  0.2388
19624TIP3    H180363   3.561   6.045   1.800 -0.4905 -0.5581 -0.2458
19624TIP3    H280364   3.566   6.153   1.694 -0.7648 -0.4108 -0.1101
19625TIP3   OH280365   3.317   3.889   0.570  0.0240  0.7054 -0.7723
19625TIP3    H180366   3.264   3.907   0.492  1.0537  0.8573 -1.4589
19625TIP3    H280367   3.326   3.794   0.572 -1.1857  0.5928 -0.0214
19626TIP3   OH280368   0.892   3.686  11.400 -0.0289  0.2277  0.1190
19626TIP3    H180369   0.960   3.678  11.333 -0.3059  0.8374 -0.2339
19626TIP3    H280370   0.918   3.623  11.467  1.6723  1.4758  0.6694
19627TIP3   OH280371   4.278   0.391  12.491 -0.0272  0.3175  0.4135
19627TIP3    H180372   4.199   0.367  12.539 -0.3108 -1.3127 -0.7980
19627TIP3    H280373   4.329   0.443  12.552 -0.1465 -2.1086  2.6767
19628TIP3   OH280374   1.332   2.331  16.380  0.0902 -0.5006 -0.1105
19628TIP3    H180375   1.374   2.247  16.398  2.2922  0.2923 -1.2636
19628TIP3    H280376   1.392   2.396  16.415 -0.9531  0.6379 -0.3827
19629TIP3   OH280377   4.566   1.279  16.823 -0.0408 -0.0588 -0.0687
19629TIP3    H180378   4.485   1.230  16.838 -0.2020  0.5913  1.1953
19629TIP3    H280379   4.539   1.357  16.774 -0.6026  1.5489  2.7230
19630TIP3   OH280380   4.038   6.779   1.890  0.1280  0.5114 -0.5308
19630TIP3    H180381   4.107   6.833   1.851 -0.4033 -0.5139 -2.9637
19630TIP3    H280382   3.957   6.828   1.875  0.1554  1.1564  1.2886
19631TIP3   OH280383   0.870   0.614   4.589  0.2956  0.2519  0.0978
19631TIP3    H180384   0.924   0.657   4.656  0.6366  0.6138 -0.3949
19631TIP3    H280385   0.862   0.524   4.618  0.2323  0.4676  0.7521
19632TIP3   OH280386   0.393   2.204   4.102  0.7961 -0.3193  0.0775
19632TIP3    H180387   0.460   2.187   4.168  0.2593  2.4581  1.4273
19632TIP3    H280388   0.314   2.225   4.152 -0.3236 -0.6976 -1.4737
19633TIP3   OH280389   1.940   5.175  13.951 -1.1016 -0.0736  0.2172
19633TIP3    H180390   1.899   5.210  13.872 -0.4036 -1.6056 -0.8377
19633TIP3    H280391   1.895   5.093  13.969  1.0239 -1.4706 -0.6006
19634TIP3   OH280392   4.356   5.451  16.103 -0.0428 -0.3285  0.7556
19634TIP3    H180393   4.352   5.457  16.199  0.0378  1.3482  0.6693
19634TIP3    H280394   4.449   5.436  16.084  0.2106  1.0341  0.8728
19635TIP3   OH280395   6.363   1.021  14.802 -0.7908  0.3846  0.1665
19635TIP3    H180396   6.411   1.075  14.739 -0.1839  0.7014  0.8859
19635TIP3    H280397   6.394   0.932  14.785 -0.4999  0.4913  0.1269
19636TIP3   OH280398   1.703   3.839   4.498 -0.0277 -0.7652  0.1151
19636TIP3    H180399   1.660   3.923   4.511  0.1857 -0.6012 -0.2425
19636TIP3    H280400   1.686   3.816   4.407  1.1555 -0.4005 -0.2037
19637TIP3   OH280401   5.334   5.479  16.240 -0.3261 -0.0886  0.3252
19637TIP3    H180402   5.410   5.492  16.183  0.4687 -0.4997  1.2721
19637TIP3    H280403   5.292   5.400  16.207  0.6460 -0.8338  0.8660
19638TIP3   OH280404   6.507   0.247   1.710  0.4276 -0.0955  0.2168
19638TIP3    H180405   6.430   0.303   1.711  1.2580  1.0612  0.0272
19638TIP3    H280406   6.506   0.202   1.794 -0.2488  0.1811  0.3536
19639TIP3   OH280407   4.065   3.035  13.138 -0.3284 -0.6286  0.5135
19639TIP3    H180408   4.066   3.087  13.057  0.9017 -1.9502 -0.3383
19639TIP3    H280409   4.157   3.015  13.155 -0.5922 -0.4946  2.1683
19640TIP3   OH280410   3.118   3.785   1.608 -0.2665 -0.2891 -0.1843
19640TIP3    H180411   3.163   3.780   1.692  2.1217 -2.5198 -1.5204
19640TIP3    H280412   3.075   3.870   1.609  0.5334  0.1423  2.8843
19641TIP3   OH280413   4.770   5.781  15.215 -0.5398 -0.3612 -0.4055
19641TIP3    H180414   4.834   5.725  15.172 -0.6451 -2.2042  1.7177
19641TIP3    H280415   4.694   5.780  15.157 -0.2423 -1.7826 -0.7841
19642TIP3   OH280416   4.924   3.107   5.526 -0.0446 -0.2105 -0.3801
19642TIP3    H180417   4.967   3.191   5.540  2.3322 -1.4686  0.1654
19642TIP3    H280418   4.844   3.112   5.579  1.9168  0.3429  2.6669
19643TIP3   OH280419   0.985   5.194  10.973  0.2250 -0.5600 -0.2655
19643TIP3    H180420   0.994   5.121  11.034  0.5614 -1.1130 -0.9832
19643TIP3    H280421   0.980   5.271  11.030  0.1289 -1.1071  0.4782
19644TIP3   OH280422   3.824   1.105  16.250 -0.1239  0.0061 -0.4228
19644TIP3    H180423   3.859   1.174  16.195 -1.4848  0.9182 -0.1640
19644TIP3    H280424   3.771   1.051  16.191  0.8241 -0.7356 -0.5985
19645TIP3   OH280425   0.060   5.341  14.710 -0.0687 -0.3287 -0.3912
19645TIP3    H180426   0.070   5.246  14.713 -4.5348 -0.8810  1.6241
19645TIP3    H280427   0.005   5.357  14.633 -0.7873  0.4344  0.2764
19646TIP3   OH280428   0.704   2.921  11.218 -0.3980 -0.4092  0.0654
19646TIP3    H180429   0.749   2.973  11.284 -1.4122 -0.2857  0.6732
19646TIP3    H280430   0.771   2.861  11.184  0.3958  0.2652  0.4325
19647TIP3   OH280431   5.312   1.939  16.153  0.8113  0.7002 -0.0155
19647TIP3    H180432   5.236   1.972  16.104  0.4811 -2.7524 -1.9395
19647TIP3    H280433   5.275   1.903  16.233  0.9398  2.7241  1.0072
19648TIP3   OH280434   4.682   2.755   5.784  0.2115 -0.2387  0.7253
19648TIP3    H180435   4.652   2.755   5.875 -1.0934 -0.1216  0.3071
19648TIP3    H280436   4.633   2.684   5.742  0.3803  0.0752 -0.0199
19649TIP3   OH280437   0.223   3.371   5.233  0.1295 -0.0638  0.0217
19649TIP3    H180438   0.158   3.341   5.297  0.2918 -0.3125  0.0697
19649TIP3    H280439   0.246   3.459   5.262 -1.9084  0.9252 -1.3186
19650TIP3   OH280440   6.394   2.361  14.322 -0.0547 -0.0656  0.1376
19650TIP3    H180441   6.403   2.449  14.285  2.5903  0.2349  1.3802
19650TIP3    H280442   6.476   2.317  14.300 -0.1181 -1.2202  2.0909
19651TIP3   OH280443   4.345   5.332   4.923 -0.3279 -0.7046 -0.2054
19651TIP3    H180444   4.397   5.257   4.895 -0.3102 -1.6555  2.2970
19651TIP3    H280445   4.403   5.383   4.979 -0.7038  0.6052 -0.9743
19652TIP3   OH280446   1.027   6.699   6.689 -0.2719  0.4256  0.4689
19652TIP3    H180447   1.118   6.718   6.711  0.3102 -0.4405 -1.1125
19652TIP3    H280448   1.004   6.624   6.744 -0.0456  0.6754  0.9067
19653TIP3   OH280449   4.816   4.384  13.502  0.0214  0.0267  0.4220
19653TIP3    H180450   4.906   4.353  13.491 -0.2515 -0.9127  0.8489
19653TIP3    H280451   4.770   4.354  13.423  0.2703  1.2101 -0.1857
19654TIP3   OH280452   4.724   5.475  10.548  0.4741 -0.3386 -0.0548
19654TIP3    H180453   4.704   5.431  10.631  0.5513  1.0024  0.6856
19654TIP3    H280454   4.680   5.559  10.555  0.3790 -0.2711 -1.4440
19655TIP3   OH280455   4.689   2.906   5.544 -0.0582 -0.1508  0.3777
19655TIP3    H180456   4.711   2.832   5.601 -2.5075 -1.0621  0.2205
19655TIP3    H280457   4.693   2.870   5.456 -2.9026 -0.6154  0.3833
19656TIP3   OH280458   1.223   0.636  17.287  0.2422  0.0676 -0.4860
19656TIP3    H180459   1.315   0.610  17.291  0.2492  0.1315 -0.1656
19656TIP3    H280460   1.192   0.603  17.203  0.5137 -0.1023 -0.5200
19657TIP3   OH280461   6.624   2.318  16.904  1.2138  0.1315 -0.1095
19657TIP3    H180462   6.544   2.304  16.853  1.2969  2.4959 -0.9181
19657TIP3    H280463   6.607   2.274  16.987  0.4680 -2.4364 -1.5683
19658TIP3   OH280464   2.965   1.561  11.148 -0.1972  0.0121  0.1436
19658TIP3    H180465   2.894   1.504  11.119  0.4164  0.0184 -1.3957
19658TIP3    H280466   2.962   1.635  11.089  2.9215 -1.3481 -1.8431
19659TIP3   OH280467   4.641   6.545   2.312  0.3582 -1.1120  0.0934
19659TIP3    H180468   4.650   6.641   2.305 -0.0894 -1.0293  0.6062
19659TIP3    H280469   4.552   6.532   2.344  0.2126 -1.7363 -0.5699
19660TIP3   OH280470   1.011   3.479  14.082 -0.0646  0.3863 -0.1488
19660TIP3    H180471   0.918   3.472  14.063  0.0942 -0.4045 -0.6308
19660TIP3    H280472   1.050   3.512  14.001  0.1070  0.5246 -0.0118
19661TIP3   OH280473   2.130   4.991  15.890  0.0912  0.4793  0.1933
19661TIP3    H180474   2.106   5.084  15.895  2.0139  0.9543  1.0854
19661TIP3    H280475   2.113   4.958  15.978 -0.7007 -0.0439 -0.1575
19662TIP3   OH280476   2.574   3.802   0.468 -0.4119 -0.0577 -0.0861
19662TIP3    H180477   2.610   3.889   0.486 -0.3737  0.1038 -0.9089
19662TIP3    H280478   2.606   3.781   0.380  1.7647 -2.0384  1.1338
19663TIP3   OH280479   0.995   6.676   1.623  0.1983  0.2211  0.5757
19663TIP3    H180480   1.043   6.613   1.676 -1.5242 -0.4053  1.4405
19663TIP3    H280481   0.994   6.756   1.675 -0.8119 -0.1585  1.1520
19664TIP3   OH280482   5.546   6.532   1.395  0.0683 -1.0792 -0.0205
19664TIP3    H180483   5.462   6.576   1.383  0.6642  0.1712  0.2611
19664TIP3    H280484   5.576   6.511   1.306 -0.3311 -1.1255 -0.1431
19665TIP3   OH280485   4.702   4.290  15.542  0.3737  0.3394 -0.2869
19665TIP3    H180486   4.765   4.246  15.485 -0.4231 -0.6337 -0.4369
19665TIP3    H280487   4.626   4.306  15.485  0.4021  1.3394 -0.0650
19666TIP3   OH280488   2.474   2.133  15.550 -0.9353 -0.0818 -0.4192
19666TIP3    H180489   2.442   2.121  15.639  1.0142  2.7746  0.7256
19666TIP3    H280490   2.537   2.062  15.537  1.4704  1.5937  1.8221
19667TIP3   OH280491   0.948   1.422  12.634  0.2043 -0.1319 -0.3245
19667TIP3    H180492   0.858   1.391  12.621 -0.6773  2.0452  0.3619
19667TIP3    H280493   0.981   1.370  12.707  0.1736 -2.2238 -1.7279
19668TIP3   OH280494   3.958   3.408  15.130  0.5937  0.3200 -0.2507
19668TIP3    H180495   3.868   3.381  15.149  0.7635 -0.6403 -0.7286
19668TIP3    H280496   3.949   3.494  15.090  0.1060  1.5233  2.3684
19669TIP3   OH280497   6.298   6.116  11.535 -0.2984  0.2180 -0.0087
19669TIP3    H180498   6.367   6.181  11.530  0.1021 -0.2604 -0.7550
19669TIP3    H280499   6.217   6.166  11.526 -0.1432  0.9975  2.6849
19670TIP3   OH280500   0.651   5.069  15.870  0.7593  0.2174  0.4425
19670TIP3    H180501   0.638   5.117  15.952  0.2857  0.1479  0.4079
19670TIP3    H280502   0.737   5.099  15.839  0.6372  0.7594  0.6124
19671TIP3   OH280503   4.133   5.586  11.395  0.2752  0.3574 -0.0340
19671TIP3    H180504   4.088   5.668  11.415  0.0359  1.1576 -3.4553
19671TIP3    H280505   4.173   5.601  11.310  1.5534 -2.5714 -0.0114
19672TIP3   OH280506   4.974   4.664  14.241 -0.1848 -0.0746  0.0071
19672TIP3    H180507   4.961   4.727  14.171 -0.4788 -1.8652 -1.5697
19672TIP3    H280508   5.053   4.695  14.287 -0.2446  1.3344 -0.8343
19673TIP3   OH280509   4.482   4.083   0.104 -0.1477 -0.3941 -0.5372
19673TIP3    H180510   4.411   4.026   0.132  0.7307  0.1811  3.0594
19673TIP3    H280511   4.450   4.172   0.120  0.4180 -0.0385 -1.3367
19674TIP3   OH280512   0.104   0.184   4.368 -0.2951 -0.0359  0.1330
19674TIP3    H180513   0.109   0.275   4.398  1.6469  0.4521 -1.5674
19674TIP3    H280514   0.063   0.190   4.281 -3.1822 -1.1428  1.3425
19675TIP3   OH280515   2.559   0.193   5.251  0.0853  0.2109 -0.1075
19675TIP3    H180516   2.598   0.207   5.165 -1.6669  0.9899 -0.8125
19675TIP3    H280517   2.468   0.168   5.232  0.0459 -0.9720  1.4837
19676TIP3   OH280518   5.201   4.959  11.009 -0.4096 -0.3382  0.3379
19676TIP3    H180519   5.279   4.985  10.961 -0.4968 -1.1383 -0.2507
19676TIP3    H280520   5.137   5.027  10.989  0.2976  0.6112  1.2669
19677TIP3   OH280521   4.693   6.400  11.896 -0.1729  0.6122 -0.7458
19677TIP3    H180522   4.734   6.327  11.942 -2.4594 -2.6480 -3.6618
19677TIP3    H280523   4.763   6.436  11.841  0.0359 -1.8897 -2.1844
19678TIP3   OH280524   3.232   5.065   1.966  0.5715 -0.5615 -0.6017
19678TIP3    H180525   3.300   5.028   1.910  1.5466  0.8135 -0.3203
19678TIP3    H280526   3.207   5.147   1.924  0.9983  0.2683  0.7373
19679TIP3   OH280527   5.500   3.879  14.404 -0.7361  0.3459 -0.1019
19679TIP3    H180528   5.573   3.938  14.423 -1.0431  1.7669 -2.9784
19679TIP3    H280529   5.519   3.800  14.454  1.9890  1.2495  0.3909
19680TIP3   OH280530   4.623   2.052  15.391 -0.7630 -0.4565 -0.4264
19680TIP3    H180531   4.588   2.072  15.304 -2.3126  0.4808  0.3845
19680TIP3    H280532   4.546   2.051  15.448  0.0522 -2.4955  0.6988
19681TIP3   OH280533   5.294   6.205  17.086 -0.4845  0.2448 -0.1493
19681TIP3    H180534   5.351   6.270  17.127 -1.4187  0.6620  0.4876
19681TIP3    H280535   5.211   6.251  17.072 -0.9674 -0.6339 -0.2187
19682TIP3   OH280536   6.620   2.548   3.828 -0.0401 -0.3791  0.1430
19682TIP3    H180537   6.669   2.479   3.872  0.2843 -0.1002  0.2171
19682TIP3    H280538   6.613   2.518   3.737  0.8144 -0.1253 -0.0126
19683TIP3   OH280539   4.258   5.225   4.204 -0.0539 -0.0763  0.1099
19683TIP3    H180540   4.304   5.245   4.286 -0.0206  0.1390  0.0389
19683TIP3    H280541   4.274   5.131   4.190 -1.7943 -0.5954  1.4443
19684TIP3   OH280542   5.609   6.135   2.639  0.3429 -0.1585 -0.5518
19684TIP3    H180543   5.576   6.185   2.713 -0.0331 -0.4049 -0.5492
19684TIP3    H280544   5.594   6.043   2.663 -0.7091 -0.2130 -1.3527
19685TIP3   OH280545   4.506   0.315   1.045  1.2099 -0.3839 -0.2467
19685TIP3    H180546   4.598   0.341   1.055  1.3393 -1.8413  3.1336
19685TIP3    H280547   4.467   0.330   1.131 -0.8745 -2.9081 -0.6643
19686TIP3   OH280548   4.941   1.807   4.146  0.3042 -0.2526 -0.1542
19686TIP3    H180549   5.027   1.833   4.179 -0.0855 -0.2273  0.8276
19686TIP3    H280550   4.961   1.745   4.076  1.0916 -1.7109  1.3263
19687TIP3   OH280551   2.140   5.536  15.629  0.0936  0.0553 -0.0914
19687TIP3    H180552   2.090   5.582  15.696  0.2978 -0.2576  0.2749
19687TIP3    H280553   2.095   5.557  15.547  0.9676  2.0135 -0.0975
19688TIP3   OH280554   5.100   6.133   6.386 -0.4008 -0.0135 -0.1950
19688TIP3    H180555   5.160   6.188   6.435  0.3164  1.1214 -2.2947
19688TIP3    H280556   5.147   6.111   6.306 -1.4748 -1.9629 -0.3287
19689TIP3   OH280557   5.927   0.713   5.156 -0.6122 -0.5564  0.0826
19689TIP3    H180558   5.946   0.806   5.156  0.0482 -0.6691 -1.6063
19689TIP3    H280559   5.997   0.674   5.103 -1.7703 -1.8231 -0.5486
19690TIP3   OH280560   0.771   2.483   2.520  0.1810  0.1981  0.3166
19690TIP3    H180561   0.733   2.422   2.583 -1.5781  1.1224  0.2052
19690TIP3    H280562   0.808   2.553   2.574 -2.2492  1.5167  0.3550
19691TIP3   OH280563   0.438   1.965   2.202  0.0487 -0.2590 -0.0044
19691TIP3    H180564   0.511   2.021   2.175 -0.1631 -0.8034 -1.7996
19691TIP3    H280565   0.479   1.883   2.230  0.2256  0.0645  0.7013
19692TIP3   OH280566   1.650   2.095  13.508 -0.8256 -0.1339 -0.5220
19692TIP3    H180567   1.693   2.179  13.494 -0.0026 -0.3423  0.6863
19692TIP3    H280568   1.715   2.030  13.483 -1.8643 -0.4386 -2.6055
19693TIP3   OH280569   3.457   1.792  12.753 -0.4473  0.3653  0.1571
19693TIP3    H180570   3.485   1.702  12.742  0.2327  0.4953  0.8374
19693TIP3    H280571   3.377   1.786  12.805 -0.6732  0.1282 -0.2133
19694TIP3   OH280572   0.119   0.946   2.316  0.1122 -0.4848 -0.0366
19694TIP3    H180573   0.058   0.933   2.388  0.1695 -0.8610 -0.0551
19694TIP3    H280574   0.150   0.858   2.295 -0.7824 -0.5218 -1.2859
19695TIP3   OH280575   3.406   4.854   1.345  0.2136 -0.4779  0.4050
19695TIP3    H180576   3.313   4.868   1.328  0.0882 -2.0319 -0.3540
19695TIP3    H280577   3.408   4.778   1.403  0.9735  0.0552  1.0738
19696TIP3   OH280578   1.390   1.919  13.793 -0.1259 -0.2929 -0.5957
19696TIP3    H180579   1.323   1.857  13.765 -0.3056 -0.5937  0.4807
19696TIP3    H280580   1.411   1.893  13.883  1.6368 -0.3770 -1.0131
19697TIP3   OH280581   3.445   2.924  14.932 -0.2729 -0.7278 -0.5080
19697TIP3    H180582   3.467   3.010  14.966 -0.8652 -0.8945  0.3130
19697TIP3    H280583   3.353   2.931  14.906 -0.4226 -1.2132 -0.1121
19698TIP3   OH280584   3.329   5.013  11.883 -0.6759 -0.0448  0.0113
19698TIP3    H180585   3.325   4.966  11.800 -2.7162  0.9389 -0.4753
19698TIP3    H280586   3.406   5.069  11.875  1.3435 -2.6332  0.2854
19699TIP3   OH280587   5.444   1.522   3.330  0.0479 -0.2714 -0.5195
19699TIP3    H180588   5.351   1.531   3.309 -0.5032  0.3066  1.9474
19699TIP3    H280589   5.488   1.576   3.265 -1.6297  2.2055  0.2954
19700TIP3   OH280590   3.783   4.029   1.794  0.5180  0.1751 -0.2431
19700TIP3    H180591   3.793   3.979   1.875  1.8105 -3.3932 -2.4701
19700TIP3    H280592   3.871   4.033   1.757 -0.1006  1.5864 -1.6039
19701TIP3   OH280593   2.874   2.209   1.888  0.2498  0.4462 -0.1284
19701TIP3    H180594   2.920   2.280   1.845  0.5910  0.6632  0.5956
19701TIP3    H280595   2.933   2.134   1.881 -1.4261 -0.6806 -3.7637
19702TIP3   OH280596   3.276   0.735   3.795 -0.2724  0.0903  0.0757
19702TIP3    H180597   3.194   0.690   3.778 -0.0453  0.1831 -1.3370
19702TIP3    H280598   3.302   0.771   3.710  1.1068  0.2643  0.5544
19703TIP3   OH280599   1.199   0.876   4.742  0.2090  0.0129  0.2863
19703TIP3    H180600   1.206   0.896   4.648  1.9661  2.0195  0.7962
19703TIP3    H280601   1.251   0.797   4.754  1.6701  0.8907 -0.1271
19704TIP3   OH280602   5.256   4.040   4.641  0.8010  0.3802 -0.4924
19704TIP3    H180603   5.341   4.081   4.628  0.6746  0.8378  0.0724
19704TIP3    H280604   5.194   4.113   4.644  0.3219  0.0189 -1.3811
19705TIP3   OH280605   3.450   4.721  14.610  0.1500  0.3075 -0.3673
19705TIP3    H180606   3.509   4.792  14.637  0.0470 -0.3984  1.7935
19705TIP3    H280607   3.444   4.664  14.687 -1.1137 -1.1514 -1.5136
19706TIP3   OH280608   4.090   2.278  16.214  0.2542  0.8658 -0.3712
19706TIP3    H180609   4.182   2.252  16.205  0.3874  1.2019  0.0114
19706TIP3    H280610   4.043   2.220  16.155  0.5668 -0.1546  0.3692
19707TIP3   OH280611   0.333   6.490   5.069 -0.2559 -0.0413  0.1472
19707TIP3    H180612   0.357   6.478   4.977  0.4311 -1.0248  0.4412
19707TIP3    H280613   0.286   6.573   5.071  0.2221  0.2697 -1.0037
19708TIP3   OH280614   3.473   3.273   2.059  0.8415 -0.6355 -0.2676
19708TIP3    H180615   3.503   3.258   1.969 -1.0792  2.4433 -1.5182
19708TIP3    H280616   3.398   3.214   2.069  0.2902 -0.0980 -1.1450
19709TIP3   OH280617   3.586   0.535  16.703  0.0512  0.3430 -0.1319
19709TIP3    H180618   3.494   0.526  16.727 -0.4617  1.6920 -1.4512
19709TIP3    H280619   3.584   0.582  16.619  1.9233  0.0544 -0.3577
19710TIP3   OH280620   3.605   4.244   0.702 -0.1528 -0.0480 -0.5619
19710TIP3    H180621   3.605   4.164   0.648 -1.9077 -0.0266 -0.6086
19710TIP3    H280622   3.623   4.314   0.640 -1.7607 -0.0697 -1.0693
19711TIP3   OH280623   0.654   5.899  14.260  0.1495  0.4549 -0.2157
19711TIP3    H180624   0.715   5.826  14.252 -0.2581  0.0605  0.3159
19711TIP3    H280625   0.709   5.973  14.288  0.5729  0.3820 -0.8427
19712TIP3   OH280626   3.333   3.659  12.987 -0.6781  0.3786  0.8542
19712TIP3    H180627   3.386   3.710  12.926  1.2205 -2.4655 -0.0196
19712TIP3    H280628   3.385   3.656  13.068 -0.4907 -0.5667  0.7137
19713TIP3   OH280629   2.495   0.895  17.140 -0.5211  0.3595  0.1091
19713TIP3    H180630   2.423   0.843  17.177 -0.1354  0.2401  0.6976
19713TIP3    H280631   2.459   0.931  17.059 -1.4418  0.7610  0.6753
19714TIP3   OH280632   3.803   5.267  15.502  0.1512  0.2306  0.1073
19714TIP3    H180633   3.713   5.285  15.472 -0.7973 -2.5602  1.1344
19714TIP3    H280634   3.803   5.295  15.593  0.5259  0.8404 -0.0790
19715TIP3   OH280635   5.147   0.741  15.546 -0.8885 -0.1106  0.1701
19715TIP3    H180636   5.129   0.724  15.639  1.4078  0.5414  0.7560
19715TIP3    H280637   5.242   0.740  15.540 -0.7557  5.5527 -1.0502
19716TIP3   OH280638   5.980   4.939   1.000  0.0572  0.5830  0.2056
19716TIP3    H180639   6.071   4.922   1.024 -0.4955 -1.1307  1.1928
19716TIP3    H280640   5.984   4.962   0.907  1.6014  1.6031  0.4972
19717TIP3   OH280641   4.737   6.237  15.259 -0.4308  0.5246 -0.7342
19717TIP3    H180642   4.812   6.182  15.281 -2.3901 -1.5079  1.1180
19717TIP3    H280643   4.710   6.207  15.172  1.3028  1.7657 -1.7260
19718TIP3   OH280644   0.789   0.689   5.346 -0.4169  0.3417 -0.9052
19718TIP3    H180645   0.705   0.735   5.348  0.0893  1.2437 -0.1320
19718TIP3    H280646   0.853   0.758   5.327  0.2971 -0.1186 -0.1547
19719TIP3   OH280647   4.245   4.269  15.685 -0.2515  0.1687  0.3041
19719TIP3    H180648   4.270   4.226  15.604  0.0554  0.8242  0.0502
19719TIP3    H280649   4.224   4.197  15.745 -0.2852 -0.3159 -0.2919
19720TIP3   OH280650   5.923   5.284   4.414  0.2372 -0.4028  0.6524
19720TIP3    H180651   5.949   5.316   4.500  1.0609 -2.0966  1.0405
19720TIP3    H280652   6.001   5.298   4.359  0.2719 -0.8514  0.5880
19721TIP3   OH280653   2.466   3.943  17.169  0.0335 -0.5329  0.1932
19721TIP3    H180654   2.414   3.923  17.091  0.7283  0.8911 -0.6712
19721TIP3    H280655   2.414   4.007  17.217  0.7884  0.6084 -0.4794
19722TIP3   OH280656   3.942   0.972   4.639 -0.0235 -0.7633 -0.2172
19722TIP3    H180657   4.022   0.941   4.595 -0.2967  0.0105 -1.2742
19722TIP3    H280658   3.971   1.048   4.689  0.2275 -1.4669  0.7192
19723TIP3   OH280659   2.070   1.841  13.668 -0.5930  0.5010  0.0246
19723TIP3    H180660   2.144   1.839  13.728 -1.1877 -0.5432  0.7326
19723TIP3    H280661   2.057   1.934  13.650  0.5772  0.7201  0.2715
19724TIP3   OH280662   2.446   4.073   3.592  0.0529  0.3392 -0.2286
19724TIP3    H180663   2.369   4.129   3.591 -0.4386 -0.3327 -1.1401
19724TIP3    H280664   2.437   4.019   3.671 -0.6784 -0.0899 -0.6018
19725TIP3   OH280665   5.646   4.570   6.125  0.1846 -0.6825 -0.0576
19725TIP3    H180666   5.582   4.508   6.090  1.2491 -0.7799 -1.9014
19725TIP3    H280667   5.595   4.651   6.137 -0.6111 -1.1524 -0.1880
19726TIP3   OH280668   1.505   6.579   5.047 -0.1698  0.2890 -0.0853
19726TIP3    H180669   1.500   6.484   5.055 -0.5705  0.1750 -1.4367
19726TIP3    H280670   1.575   6.594   4.983 -0.7944  0.8614 -0.6393
19727TIP3   OH280671   0.910   0.361   4.694  0.3363  0.1481  0.4090
19727TIP3    H180672   0.899   0.318   4.609  0.5321  0.3250  0.2937
19727TIP3    H280673   0.960   0.299   4.746  1.3479  0.5919 -0.0301
19728TIP3   OH280674   0.580   3.474  15.208 -0.3747  0.8046  0.2629
19728TIP3    H180675   0.541   3.395  15.244  1.1935 -1.0769 -2.0163
19728TIP3    H280676   0.529   3.492  15.128 -0.6108  2.0110  0.6728
19729TIP3   OH280677   4.659   4.075  17.091 -0.0189  0.0402  0.4096
19729TIP3    H180678   4.588   4.011  17.085 -0.5809  0.7181 -0.2039
19729TIP3    H280679   4.615   4.159  17.104  0.7625  0.0833  3.1695
19730TIP3   OH280680   4.533   4.246  11.672  0.2035 -0.4771 -0.3377
19730TIP3    H180681   4.490   4.260  11.756  0.2865 -1.0067 -0.2078
19730TIP3    H280682   4.622   4.279  11.684 -0.4590  1.5854 -0.9210
19731TIP3   OH280683   4.198   3.897   2.098 -0.4839 -0.1353 -0.5403
19731TIP3    H180684   4.193   3.807   2.068 -1.6537  0.0283 -0.8831
19731TIP3    H280685   4.195   3.949   2.018 -2.5377  0.2725 -0.2307
19732TIP3   OH280686   2.193   0.686   2.968  0.2033  0.0827 -0.2335
19732TIP3    H180687   2.238   0.649   2.892  1.6818 -1.1052  1.1646
19732TIP3    H280688   2.196   0.781   2.954  0.0207 -0.1405 -1.8833
19733TIP3   OH280689   6.333   2.422  12.896  0.0189 -0.2111  0.2080
19733TIP3    H180690   6.387   2.345  12.913 -1.7404 -1.0223  2.3828
19733TIP3    H280691   6.385   2.495  12.927  0.9297 -0.7199 -0.1155
19734TIP3   OH280692   4.889   0.602   0.550  1.0255 -0.3864  0.0233
19734TIP3    H180693   4.902   0.510   0.571  0.3441 -0.6954 -0.8613
19734TIP3    H280694   4.874   0.644   0.635 -0.0027 -1.3194  0.3254
19735TIP3   OH280695   1.590   5.428   2.754  0.6081 -0.3998  0.1012
19735TIP3    H180696   1.595   5.333   2.767  2.4938 -0.1944  1.0776
19735TIP3    H280697   1.537   5.459   2.827  2.3584 -0.4131  1.4086
19736TIP3   OH280698   0.334   3.848  10.963  0.1344  0.0079 -0.0230
19736TIP3    H180699   0.247   3.886  10.974 -0.0539 -0.3915 -0.1021
19736TIP3    H280700   0.318   3.767  10.914  0.3119 -1.0728  1.6684
19737TIP3   OH280701   3.466   4.617  13.554  0.4751  0.1267  0.1646
19737TIP3    H180702   3.452   4.640  13.646  0.4479  1.1161 -0.0787
19737TIP3    H280703   3.525   4.685  13.521 -0.6097  0.5766 -0.9062
19738TIP3   OH280704   4.268   6.757   4.444  0.3168  0.0333  0.0951
19738TIP3    H180705   4.293   6.849   4.431  0.0016  0.0474 -0.4337
19738TIP3    H280706   4.173   6.757   4.434  0.2706 -0.2798  0.5410
19739TIP3   OH280707   0.554   4.386  12.217 -0.4095 -0.6144  0.2843
19739TIP3    H180708   0.485   4.416  12.275  0.3022  1.1704  0.2374
19739TIP3    H280709   0.525   4.410  12.129  0.1475 -0.0622  0.2434
19740TIP3   OH280710   4.231   4.934   5.907  0.5243  0.3275  0.3386
19740TIP3    H180711   4.266   4.998   5.845  1.9360 -0.2692  0.4783
19740TIP3    H280712   4.189   4.868   5.853 -2.7151  2.3546  0.2855
19741TIP3   OH280713   0.812   5.293  15.586 -0.1382 -0.0623 -0.1065
19741TIP3    H180714   0.762   5.337  15.654  0.9581  0.3054  0.4788
19741TIP3    H280715   0.765   5.211  15.570 -0.6745  0.0801  0.7273
19742TIP3   OH280716   3.869   2.765  15.222 -0.1635 -0.2292 -0.4394
19742TIP3    H180717   3.939   2.769  15.287 -0.5180  0.7091 -0.1036
19742TIP3    H280718   3.893   2.833  15.158  0.0064 -0.9142 -1.1086
19743TIP3   OH280719   6.799   0.304   1.139  0.1916  1.1097 -0.2174
19743TIP3    H180720   6.883   0.268   1.167  0.2408  1.4604  0.0891
19743TIP3    H280721   6.735   0.237   1.164  0.1664  1.6840  1.3249
19744TIP3   OH280722   3.613   5.058  13.264 -0.8018 -0.0367 -0.1743
19744TIP3    H180723   3.627   5.152  13.256  0.0279 -0.0380  1.1134
19744TIP3    H280724   3.648   5.022  13.182 -1.1751  0.7618 -0.6982
19745TIP3   OH280725   5.560   1.360  17.268 -0.6417 -0.3289 -0.1236
19745TIP3    H180726   5.549   1.271  17.301 -2.2470  0.2524  0.9212
19745TIP3    H280727   5.578   1.349  17.174 -0.1137 -1.7701  0.1351
19746TIP3   OH280728   2.827   1.824   2.016  0.4441 -0.2735 -0.1455
19746TIP3    H180729   2.762   1.765   2.054 -1.3508  1.7261  0.0027
19746TIP3    H280730   2.800   1.833   1.925 -0.7569  2.1525  0.4059
19747TIP3   OH280731   3.061   3.598  12.571  0.2698  0.3503  1.2230
19747TIP3    H180732   3.145   3.608  12.527  0.0242 -0.9683  0.4233
19747TIP3    H280733   3.078   3.626  12.661  1.3312  0.9483  0.8498
19748TIP3   OH280734   3.749   5.231  12.321 -0.2485 -0.6362  0.6033
19748TIP3    H180735   3.779   5.236  12.230 -1.8183 -0.7617  0.0688
19748TIP3    H280736   3.726   5.321  12.343 -1.3321 -0.8481  0.3620
19749TIP3   OH280737   4.062   2.408   5.121  0.3789  0.3271 -0.6371
19749TIP3    H180738   4.076   2.396   5.027  2.8471  0.9281 -0.3623
19749TIP3    H280739   3.998   2.340   5.144 -0.4363  0.3160 -2.7685
19750TIP3   OH280740   1.664   6.773   5.243  0.2449 -0.3353  0.4795
19750TIP3    H180741   1.592   6.746   5.299 -0.8564  1.8924  0.1941
19750TIP3    H280742   1.622   6.821   5.171  1.9105 -0.0811 -0.3470
19751TIP3   OH280743   6.191   1.099   4.252 -0.1226 -0.3201 -0.4428
19751TIP3    H180744   6.135   1.175   4.262 -0.3353 -0.3812 -1.1058
19751TIP3    H280745   6.148   1.030   4.303  0.4343  0.1879  0.7198
19752TIP3   OH280746   3.852   0.601  16.087 -0.2975  0.0937 -0.0755
19752TIP3    H180747   3.786   0.670  16.097 -0.0818  0.1976  0.6447
19752TIP3    H280748   3.817   0.546  16.017 -0.5214  0.8709 -0.5879
19753TIP3   OH280749   4.966   2.663  12.690  0.2000  0.0495 -0.4629
19753TIP3    H180750   4.891   2.691  12.744  0.7355  2.7123 -1.0843
19753TIP3    H280751   5.040   2.711  12.725  1.0250 -0.0779 -2.0025
19754TIP3   OH280752   4.855   3.735  10.468  0.4721  0.1692  0.2170
19754TIP3    H180753   4.895   3.813  10.507  0.1560  0.7301 -0.5554
19754TIP3    H280754   4.783   3.712  10.527 -1.8092  2.6992 -1.4544
19755TIP3   OH280755   2.722   5.413   6.042 -0.2269 -0.2449  0.1767
19755TIP3    H180756   2.733   5.438   6.134  2.4516 -0.8591  0.0551
19755TIP3    H280757   2.758   5.487   5.993  1.7099 -1.4640 -0.2912
19756TIP3   OH280758   6.103   4.341   4.900  0.0039 -0.1095 -0.2802
19756TIP3    H180759   6.151   4.307   4.975 -0.4946 -1.6474 -0.6364
19756TIP3    H280760   6.032   4.392   4.938  2.2567  2.7321  0.2516
19757TIP3   OH280761   6.014   1.817   2.866 -0.4609  0.0888 -0.7709
19757TIP3    H180762   5.921   1.805   2.887  0.1181 -2.3298  0.6363
19757TIP3    H280763   6.041   1.733   2.829  0.9494  1.0989 -2.0789
19758TIP3   OH280764   5.110   0.160   2.466 -0.3691 -0.4068 -0.2965
19758TIP3    H180765   5.185   0.184   2.412 -1.7917  0.5896 -1.8664
19758TIP3    H280766   5.034   0.171   2.409 -1.7958 -0.5883  1.5034
19759TIP3   OH280767   0.785   1.020  15.760 -0.5188  0.6148  0.3904
19759TIP3    H180768   0.842   0.943  15.759 -3.1679 -1.4196  0.0943
19759TIP3    H280769   0.834   1.088  15.713  1.5316 -1.1166 -0.0268
19760TIP3   OH280770   2.523   2.044   1.386 -0.2048  0.3028 -0.8709
19760TIP3    H180771   2.603   2.039   1.438 -0.3298 -0.4378 -0.7489
19760TIP3    H280772   2.452   2.030   1.448 -0.3800 -0.0972 -1.1589
19761TIP3   OH280773   4.440   4.226   5.425 -0.2164 -0.0380  0.0224
19761TIP3    H180774   4.468   4.260   5.511  0.1358  1.1290 -0.5382
19761TIP3    H280775   4.412   4.136   5.443 -0.4968  0.3106  1.4283
19762TIP3   OH280776   1.307   3.999  16.456 -0.1645  0.5551 -0.1077
19762TIP3    H180777   1.262   3.915  16.462 -0.5432  0.8812  1.8497
19762TIP3    H280778   1.278   4.048  16.532  0.3235  2.3487 -1.0386
19763TIP3   OH280779   5.108   0.339  15.085  0.2148  0.2651  0.6818
19763TIP3    H180780   5.186   0.378  15.124  1.9298 -1.6561 -0.7357
19763TIP3    H280781   5.097   0.256  15.131  0.7633 -0.8333 -1.1313
19764TIP3   OH280782   6.738   5.696   0.102  0.0928 -0.5220 -0.2012
19764TIP3    H180783   6.758   5.778   0.056 -2.4524 -1.0711 -2.4370
19764TIP3    H280784   6.643   5.697   0.112  0.3682 -1.4603  3.2318
19765TIP3   OH280785   0.690   6.122   3.600  0.1231  0.3364  0.0807
19765TIP3    H180786   0.673   6.095   3.690 -1.4532 -1.2019 -0.6364
19765TIP3    H280787   0.623   6.076   3.549 -0.2595  2.7436 -1.6502
19766TIP3   OH280788   4.230   3.407   2.702  0.3391  0.0285 -0.3061
19766TIP3    H180789   4.202   3.498   2.711 -1.7341 -0.7226  1.2914
19766TIP3    H280790   4.316   3.404   2.742  0.2710  1.2128 -0.0476
19767TIP3   OH280791   4.040   1.990   0.026  0.1288 -0.4997  0.1245
19767TIP3    H180792   4.070   1.920  -0.033 -0.4582  0.2831 -1.1224
19767TIP3    H280793   3.956   1.958   0.059  0.1668 -0.6680  0.0607
19768TIP3   OH280794   4.292   6.137   3.498 -0.1707 -0.2063 -0.2625
19768TIP3    H180795   4.315   6.050   3.532 -1.1700 -0.2772  0.2436
19768TIP3    H280796   4.374   6.170   3.462  0.0346 -1.7168 -1.2511
19769TIP3   OH280797   1.545   5.695  11.915 -0.3347  0.5512 -0.0913
19769TIP3    H180798   1.560   5.784  11.882  0.5122  0.6386  0.5293
19769TIP3    H280799   1.591   5.638  11.854 -0.4843  0.5677 -0.2202
19770TIP3   OH280800   0.031   6.328   3.682  0.1374 -0.0163  0.0174
19770TIP3    H180801  -0.022   6.398   3.721  0.2593 -0.4308  0.9459
19770TIP3    H280802   0.057   6.362   3.597  0.3723  1.1510  0.5485
19771TIP3   OH280803   6.237   6.022  13.404  0.5942 -0.7279  0.1489
19771TIP3    H180804   6.154   5.979  13.386 -0.0160  1.5504 -2.9479
19771TIP3    H280805   6.279   6.031  13.318  2.2988  1.5216  1.1525
19772TIP3   OH280806   5.512   1.301   5.625  0.4130  0.3307 -0.0070
19772TIP3    H180807   5.425   1.262   5.614 -0.6150  2.7044 -0.5900
19772TIP3    H280808   5.500   1.368   5.693  1.9943  0.1034  0.5318
19773TIP3   OH280809   6.772   6.745  14.033  0.4247 -0.0039 -0.2726
19773TIP3    H180810   6.725   6.662  14.023 -1.9791  1.3692 -0.9116
19773TIP3    H280811   6.864   6.721  14.039 -0.3092 -2.7833  0.5365
19774TIP3   OH280812   4.349   1.030  12.187  0.0327  0.5861  0.1279
19774TIP3    H180813   4.430   0.995  12.225  0.5505 -0.0819 -1.5486
19774TIP3    H280814   4.326   0.968  12.118 -0.7462  1.8980 -0.8164
19775TIP3   OH280815   6.520   4.575  17.017  0.1757  0.2351  0.4377
19775TIP3    H180816   6.490   4.505  17.075 -1.0470  2.0252  2.0157
19775TIP3    H280817   6.449   4.584  16.952 -1.0986  1.9937  2.0137
19776TIP3   OH280818   1.949   3.603  14.995  0.0698  0.7416  0.0995
19776TIP3    H180819   1.926   3.644  15.078  0.3881  0.9814  0.0683
19776TIP3    H280820   1.916   3.664  14.928 -2.4119 -0.6254  0.0082
19777TIP3   OH280821   3.615   2.841  12.052 -0.5240 -0.6746 -0.4921
19777TIP3    H180822   3.581   2.899  11.984  3.1621  0.2392 -1.6738
19777TIP3    H280823   3.634   2.899  12.126 -0.1579 -0.9112 -0.3961
19778TIP3   OH280824   2.916   1.131   3.822 -0.5227  0.3349 -0.3020
19778TIP3    H180825   2.922   1.160   3.731 -1.9190  0.6610 -0.2953
19778TIP3    H280826   3.001   1.090   3.840  0.0115  0.8874 -1.5315
19779TIP3   OH280827   0.894   0.615  11.715  0.4152 -0.2811 -0.1047
19779TIP3    H180828   0.866   0.707  11.707  0.0477 -0.2805  1.0171
19779TIP3    H280829   0.824   0.574  11.766  0.5558 -1.1983 -0.6501
19780TIP3   OH280830   1.436   0.442  16.540 -0.0601  0.3868  0.1294
19780TIP3    H180831   1.420   0.412  16.450 -2.2244  0.9205  0.2878
19780TIP3    H280832   1.481   0.526  16.529 -0.0488  0.3049 -0.4713
19781TIP3   OH280833   3.094   1.275  16.993  0.2732  0.4437  0.0276
19781TIP3    H180834   3.057   1.356  17.028 -0.4819 -0.7360  2.0588
19781TIP3    H280835   3.077   1.279  16.899 -1.1309  1.9330  0.3255
19782TIP3   OH280836   0.145   2.330   0.049  0.3620 -0.4258 -0.3355
19782TIP3    H180837   0.101   2.306  -0.032 -0.2154 -0.8976  0.1205
19782TIP3    H280838   0.225   2.277   0.050  0.2249 -0.6330 -0.4563
19783TIP3   OH280839   3.142   4.354  11.526 -0.0603 -0.3923 -0.2934
19783TIP3    H180840   3.136   4.394  11.439 -3.2022  0.2116  0.1149
19783TIP3    H280841   3.105   4.420  11.585 -1.1724 -2.1283  1.0149
19784TIP3   OH280842   2.197   1.170   3.228 -0.3169  0.1221 -0.2506
19784TIP3    H180843   2.152   1.205   3.305  0.9671  1.6410 -0.1421
19784TIP3    H280844   2.245   1.094   3.260 -1.5239 -0.5511 -0.0323
19785TIP3   OH280845   5.677   2.768  13.456 -0.0393  0.8280 -0.1575
19785TIP3    H180846   5.671   2.672  13.456 -0.5116  0.8542 -0.8532
19785TIP3    H280847   5.756   2.787  13.406  0.0837  0.8042  0.0254
19786TIP3   OH280848   2.911   5.094  14.963 -0.4989 -0.1964  0.0831
19786TIP3    H180849   2.937   5.176  15.004 -0.4495 -0.2662  0.1914
19786TIP3    H280850   2.869   5.121  14.881  0.2868 -0.0940 -0.2987
19787TIP3   OH280851   6.067   1.915   4.129 -0.1067 -0.3089 -0.0256
19787TIP3    H180852   6.009   1.971   4.181  0.4640  0.8170 -0.6120
19787TIP3    H280853   6.060   1.948   4.040  0.2880 -1.1211 -0.3659
19788TIP3   OH280854   4.700   4.124   5.371  0.0333  0.0519 -0.6864
19788TIP3    H180855   4.747   4.206   5.387 -0.1284  0.1126 -0.5289
19788TIP3    H280856   4.608   4.148   5.377 -0.0086 -0.2176 -0.2852
19789TIP3   OH280857   4.847   6.713   0.315 -0.3193  0.2782 -0.7502
19789TIP3    H180858   4.877   6.740   0.228  0.5190  0.2221 -0.4830
19789TIP3    H280859   4.887   6.627   0.329 -0.0237  0.5157 -0.0947
19790TIP3   OH280860   1.553   5.854   3.545  0.1777  0.1454  0.1777
19790TIP3    H180861   1.634   5.888   3.507 -0.1372  2.2333  1.2917
19790TIP3    H280862   1.583   5.798   3.617  0.6432  0.0441 -0.0893
19791TIP3   OH280863   4.677   2.269   5.438  0.4997 -0.6262 -0.0888
19791TIP3    H180864   4.769   2.246   5.427  0.5689  0.0536 -1.0187
19791TIP3    H280865   4.663   2.342   5.378 -0.8465 -1.2596 -0.5834
19792TIP3   OH280866   5.364   6.289   3.196 -0.1027 -0.4092 -0.0669
19792TIP3    H180867   5.438   6.280   3.136  0.8935 -1.5641  1.3128
19792TIP3    H280868   5.375   6.375   3.236 -0.0854 -0.1565 -0.6150
19793TIP3   OH280869   1.985   5.124  15.109 -0.0192  0.0870  0.3087
19793TIP3    H180870   1.930   5.148  15.183 -0.1326  0.7320  0.0109
19793TIP3    H280871   2.073   5.116  15.146  0.2279  2.1278  0.1769
19794TIP3   OH280872   5.488   0.437  12.019  0.0631 -0.6593 -0.0664
19794TIP3    H180873   5.434   0.376  12.069  2.2440 -3.5038 -1.0241
19794TIP3    H280874   5.550   0.473  12.083  0.2348 -1.1833  0.0596
19795TIP3   OH280875   0.060   2.784   0.225  0.8825  0.0261  0.0340
19795TIP3    H180876   0.002   2.737   0.285  1.9986  0.1886  1.2677
19795TIP3    H280877   0.137   2.728   0.217  2.0760  1.4408  1.2310
19796TIP3   OH280878   3.967   2.873   4.688  0.1705 -0.1757 -0.1320
19796TIP3    H180879   3.929   2.926   4.617  0.2471  0.5537  0.3602
19796TIP3    H280880   4.035   2.930   4.726 -0.8523  0.0157  1.4626
19797TIP3   OH280881   3.967   4.472  11.983  0.0666  0.4956  0.3921
19797TIP3    H180882   3.884   4.424  11.985  0.5340 -0.3409  0.1027
19797TIP3    H280883   3.969   4.514  11.897  0.4055 -0.3349 -0.0147
19798TIP3   OH280884   1.465   3.929   6.234  0.0973  0.2367 -0.0532
19798TIP3    H180885   1.518   4.007   6.250  2.9954 -1.2461 -1.8005
19798TIP3    H280886   1.446   3.932   6.140  1.4013 -1.7520 -0.4247
19799TIP3   OH280887   5.912   2.593  16.427  0.0111  0.0364 -0.3576
19799TIP3    H180888   6.007   2.601  16.431  0.0038  0.0314 -0.1451
19799TIP3    H280889   5.882   2.629  16.511 -0.2602  1.1955 -0.9476
19800TIP3   OH280890   2.189   1.560   2.750 -0.0158  0.1788 -0.0434
19800TIP3    H180891   2.145   1.644   2.737 -1.1965 -0.6229 -1.4835
19800TIP3    H280892   2.118   1.498   2.768  0.7663 -0.6317  0.2982
19801TIP3   OH280893   1.560   0.232   1.891  0.4012  0.2171 -0.1882
19801TIP3    H180894   1.593   0.144   1.875  0.6244  0.2579  0.0401
19801TIP3    H280895   1.630   0.275   1.942 -0.6485 -0.2006  1.6658
19802TIP3   OH280896   4.713   0.105  10.728  0.3470 -0.3451 -0.0105
19802TIP3    H180897   4.658   0.166  10.679 -1.8313 -2.7739 -0.6481
19802TIP3    H280898   4.801   0.144  10.723 -1.2073  3.5872  0.9997
19803TIP3   OH280899   6.099   0.778  14.748  0.6368 -0.2862 -0.4507
19803TIP3    H180900   6.152   0.775  14.669 -3.3803 -2.2534 -3.2576
19803TIP3    H280901   6.088   0.871  14.766  1.9630  0.1860 -1.9616
19804TIP3   OH280902   3.040   5.178   1.435 -0.0722 -0.7235  0.0622
19804TIP3    H180903   2.989   5.250   1.397  0.8808  0.6488  1.3367
19804TIP3    H280904   3.013   5.174   1.526  0.2079 -1.7018  0.1136
19805TIP3   OH280905   0.295   5.914   3.145  0.8049 -0.3448  0.2553
19805TIP3    H180906   0.337   5.999   3.137 -0.6368  0.1705 -2.4375
19805TIP3    H280907   0.348   5.856   3.090  0.4207 -0.6439  0.1931
19806TIP3   OH280908   4.204   5.242  14.171 -0.2357  0.0913  0.1966
19806TIP3    H180909   4.159   5.267  14.252 -4.0438  0.4366 -1.8829
19806TIP3    H280910   4.162   5.160  14.145 -0.2950  0.8781 -2.2987
19807TIP3   OH280911   4.747   4.614  16.040  0.3142 -0.5732  0.3987
19807TIP3    H180912   4.659   4.581  16.058  0.0033  0.6567  1.1866
19807TIP3    H280913   4.805   4.543  16.067 -0.3395 -0.4490  2.1910
19808TIP3   OH280914   6.561   3.013  16.855 -0.4274 -0.0706  0.1977
19808TIP3    H180915   6.466   2.997  16.855 -0.3195 -0.7689  0.5355
19808TIP3    H280916   6.582   3.033  16.764 -0.6179 -1.7427 -0.2422
19809TIP3   OH280917   1.461   1.227  12.002  0.3787  0.0981 -0.3310
19809TIP3    H180918   1.485   1.263  12.087  0.8684 -0.8675 -0.0506
19809TIP3    H280919   1.482   1.295  11.939  0.2071  0.7375  0.3055
19810TIP3   OH280920   1.280   1.613  15.162 -0.0577  0.6125 -0.7631
19810TIP3    H180921   1.277   1.567  15.079  1.5977 -0.2379 -0.3906
19810TIP3    H280922   1.188   1.625  15.187 -0.5513 -1.3611 -1.4983
19811TIP3   OH280923   2.589   3.724  12.475 -0.1700 -0.2377  0.2385
19811TIP3    H180924   2.539   3.660  12.424  1.3404 -0.4061 -1.0924
19811TIP3    H280925   2.678   3.687  12.478  0.0876  0.4806  1.7985
19812TIP3   OH280926   3.239   0.899   3.007  0.4035  0.3690 -0.3969
19812TIP3    H180927   3.301   0.947   3.063  0.0987 -1.2049  1.3555
19812TIP3    H280928   3.281   0.814   2.993 -1.2819 -0.6935  0.7562
19813TIP3   OH280929   6.629   6.171  14.485  0.5929  0.1590 -0.2952
19813TIP3    H180930   6.556   6.231  14.501  0.2897  0.0492 -1.2275
19813TIP3    H280931   6.706   6.227  14.483  0.5160  0.3073  0.4520
19814TIP3   OH280932   5.657   6.101  15.174  0.0294  0.1974  0.4183
19814TIP3    H180933   5.699   6.019  15.199 -0.3499  0.1053  0.7490
19814TIP3    H280934   5.728   6.166  15.177  0.2919 -0.0846  0.3127
19815TIP3   OH280935   5.509   2.600  16.262 -0.8271 -0.5253  0.0886
19815TIP3    H180936   5.444   2.600  16.192 -0.0092  0.7693 -0.7096
19815TIP3    H280937   5.567   2.527  16.241 -0.0402  0.4221 -1.1396
19816TIP3   OH280938   1.255   0.314  16.730 -0.2640  0.0763  0.2930
19816TIP3    H180939   1.270   0.224  16.759 -2.6494 -0.9433 -1.4449
19816TIP3    H280940   1.324   0.331  16.666  0.7408 -0.1631  1.2951
19817TIP3   OH280941   4.156   0.416  14.342  0.5973 -0.1111 -0.1830
19817TIP3    H180942   4.204   0.335  14.356 -0.2568 -0.7907 -1.1405
19817TIP3    H280943   4.064   0.390  14.342  0.2549  1.0300  0.6619
19818TIP3   OH280944   5.781   2.010  11.294 -0.5158  0.1426 -0.1350
19818TIP3    H180945   5.843   1.992  11.223 -0.2447  0.9527 -0.0957
19818TIP3    H280946   5.695   1.992  11.254 -0.3216 -0.0868 -0.4596
19819TIP3   OH280947   0.944   5.216   4.915 -0.2297 -0.5470  0.5941
19819TIP3    H180948   0.863   5.266   4.909  0.9245  1.1831 -1.2655
19819TIP3    H280949   0.992   5.256   4.988 -1.3313 -2.0478  2.1724
19820TIP3   OH280950   0.670   3.165   6.119  0.3446 -0.6466  0.2205
19820TIP3    H180951   0.615   3.186   6.044  0.5081  2.7190  0.9499
19820TIP3    H280952   0.612   3.118   6.179 -1.2652  1.2782  0.2146
19821TIP3   OH280953   1.421   6.232  11.330 -0.6464  0.1210  0.3788
19821TIP3    H180954   1.424   6.326  11.349 -1.0281 -0.1553  1.9092
19821TIP3    H280955   1.371   6.225  11.249  0.9941  1.3602 -0.7679
19822TIP3   OH280956   4.085   4.842   1.902 -0.6279  0.1840  0.4115
19822TIP3    H180957   4.112   4.769   1.958  1.3339 -0.4616 -1.3139
19822TIP3    H280958   4.039   4.800   1.829  0.6757  0.6379 -0.6890
19823TIP3   OH280959   2.903   1.095  13.777 -0.0649  0.2998 -0.0455
19823TIP3    H180960   2.823   1.042  13.774  0.0381  0.2427 -2.0667
19823TIP3    H280961   2.877   1.174  13.824 -0.7929 -0.5403  1.0095
19824TIP3   OH280962   6.532   3.497   3.126 -0.1536 -0.4254  0.5263
19824TIP3    H180963   6.487   3.465   3.204  0.7942 -0.6814  0.9752
19824TIP3    H280964   6.582   3.422   3.094  0.0281 -0.1195  0.0903
19825TIP3   OH280965   5.911   6.188   1.550 -0.2555  0.1718 -0.2807
19825TIP3    H180966   5.917   6.250   1.478 -0.7711  0.0057 -0.4701
19825TIP3    H280967   5.946   6.235   1.626 -0.0229  0.4612 -0.5677
19826TIP3   OH280968   5.785   4.114  10.991  0.1762  0.7322 -0.3085
19826TIP3    H180969   5.813   4.089  11.080 -1.5271  0.3009  0.1194
19826TIP3    H280970   5.807   4.037  10.938 -1.5518 -0.2146  0.3086
19827TIP3   OH280971   5.100   1.765   1.406 -0.2831 -0.6032  0.2113
19827TIP3    H180972   5.071   1.798   1.321 -3.6283  0.7184  1.7835
19827TIP3    H280973   5.196   1.763   1.400 -0.2531  3.4588 -2.1456
19828TIP3   OH280974   4.475   5.625  14.861 -0.7842 -0.6030  0.0096
19828TIP3    H180975   4.524   5.661  14.786 -0.7646  0.1176  0.3656
19828TIP3    H280976   4.393   5.673  14.860 -0.8370 -0.6903  0.3769
19829TIP3   OH280977   0.562   6.220   0.845 -0.2622  0.0580 -0.5241
19829TIP3    H180978   0.483   6.274   0.842 -0.1387  0.2064 -1.2284
19829TIP3    H280979   0.532   6.134   0.875 -0.5101  0.4233  0.2765
19830TIP3   OH280980   2.319   2.621   1.830 -0.3216  0.1886  0.1174
19830TIP3    H180981   2.400   2.635   1.880 -0.8910  2.9102  0.3133
19830TIP3    H280982   2.278   2.707   1.825 -3.0058 -1.0653 -0.3835
19831TIP3   OH280983   2.483   2.274  16.505  0.3481  0.2826 -0.3365
19831TIP3    H180984   2.441   2.299  16.588  0.4308 -0.7977  0.0417
19831TIP3    H280985   2.497   2.180  16.513  1.6276  0.4089 -1.0166
19832TIP3   OH280986   4.636   0.408  12.249 -0.9138 -0.6498 -0.2493
19832TIP3    H180987   4.707   0.468  12.223 -0.6276 -1.0074 -0.2967
19832TIP3    H280988   4.586   0.457  12.314 -1.0745 -0.1043 -0.7849
19833TIP3   OH280989   0.624   6.359   5.529  0.6105  0.1803 -0.3377
19833TIP3    H180990   0.675   6.308   5.468  0.9788 -1.1249  1.0402
19833TIP3    H280991   0.541   6.312   5.537  0.0012  1.1314 -0.9336
19834TIP3   OH280992   0.878   5.307   6.006  0.4561  0.1426 -0.1589
19834TIP3    H180993   0.928   5.277   5.930  1.6450  2.9067 -0.5185
19834TIP3    H280994   0.839   5.390   5.978 -0.2875  0.4798  1.7858
19835TIP3   OH280995   5.793   5.709   0.008  0.2389 -0.9842  0.8914
19835TIP3    H180996   5.764   5.643  -0.056 -0.5526  0.3366 -0.1544
19835TIP3    H280997   5.722   5.774   0.008  1.6358  0.5618  0.8818
19836TIP3   OH280998   2.975   4.695  13.529  0.4321  0.0797  0.1120
19836TIP3    H180999   2.912   4.663  13.594  0.0554 -1.2112 -0.8747
19836TIP3    H281000   3.058   4.698  13.576 -0.3436  1.7598  1.4197
19837TIP3   OH281001   5.867   3.542  16.123 -0.3528 -0.0944  0.3383
19837TIP3    H181002   5.842   3.453  16.148 -0.8957  0.2198  0.9277
19837TIP3    H281003   5.830   3.554  16.036  2.3378 -1.5230 -1.0682
19838TIP3   OH281004   1.304   6.712   5.220 -0.7287  0.3870  0.3936
19838TIP3    H181005   1.344   6.655   5.155 -0.6491  0.3023  0.5182
19838TIP3    H281006   1.368   6.718   5.291  0.1372  2.2218 -0.4909
19839TIP3   OH281007   6.151   4.583   4.506 -0.5844 -0.2203  0.1262
19839TIP3    H181008   6.191   4.511   4.555 -0.5356 -0.8770 -0.8419
19839TIP3    H281009   6.212   4.598   4.433 -0.0953  1.4873  0.8804
19840TIP3   OH281010   2.989   0.694   0.326  0.2169  0.2284  0.0530
19840TIP3    H181011   2.908   0.721   0.370 -0.0729 -1.3017  0.4779
19840TIP3    H281012   3.053   0.684   0.397  0.4067  0.1126 -0.1352
19841TIP3   OH281013   1.194   1.532  16.444  0.0911  0.0544  0.5457
19841TIP3    H181014   1.177   1.440  16.421  2.7884 -0.1289 -0.9251
19841TIP3    H281015   1.267   1.528  16.505  2.2664  1.3167 -1.8499
19842TIP3   OH281016   2.088   3.717  15.271 -1.0475  0.7942  0.4357
19842TIP3    H181017   2.176   3.683  15.259 -1.5593 -0.2352 -0.5467
19842TIP3    H281018   2.049   3.662  15.339 -0.6910  1.7388  1.4218
19843TIP3   OH281019   6.103   2.161  15.723  0.4661  0.0341 -0.0482
19843TIP3    H181020   6.143   2.099  15.783  1.0776 -1.5016 -1.9882
19843TIP3    H281021   6.016   2.177  15.759  1.0094 -0.4162  1.5270
19844TIP3   OH281022   3.664   4.246   6.266 -0.4768 -0.3278 -0.2357
19844TIP3    H181023   3.735   4.198   6.223  0.5647  1.2024 -0.2493
19844TIP3    H281024   3.675   4.226   6.359 -1.5172 -2.0324 -0.4574
19845TIP3   OH281025   2.626   6.553   1.392 -0.4814 -0.1127 -0.6716
19845TIP3    H181026   2.643   6.469   1.349  0.8042  1.1469 -2.7238
19845TIP3    H281027   2.697   6.563   1.455 -1.9171 -1.5938  1.2266
19846TIP3   OH281028   5.130   3.402   2.879 -0.7503  0.8237 -0.3651
19846TIP3    H181029   5.039   3.394   2.851 -0.8720  1.4161 -0.1385
19846TIP3    H281030   5.131   3.369   2.968 -0.1048 -2.3815 -1.4869
19847TIP3   OH281031   4.857   5.373  15.592 -0.1252 -0.4611 -0.1469
19847TIP3    H181032   4.808   5.354  15.512  0.4622 -0.2773 -0.5574
19847TIP3    H281033   4.825   5.458  15.620  1.0692  0.4084 -1.3040
19848TIP3   OH281034   2.077   0.543  13.393  0.2377  0.3237 -0.8006
19848TIP3    H181035   2.150   0.499  13.436  0.6933  0.3145 -1.5730
19848TIP3    H281036   2.113   0.625  13.360  0.0748  0.0162 -1.7676
19849TIP3   OH281037   5.371   0.776   3.177 -0.1263  0.3837  0.4474
19849TIP3    H181038   5.330   0.712   3.118  1.3765  0.1668 -0.3893
19849TIP3    H281039   5.311   0.850   3.178 -0.5082  0.1062 -0.8270
19850TIP3   OH281040   0.909   0.559  16.593 -0.4239 -0.0177 -0.0280
19850TIP3    H181041   0.898   0.464  16.601  2.1231 -0.1907  2.0662
19850TIP3    H281042   1.002   0.571  16.574 -0.9526  2.0356 -1.5365
19851TIP3   OH281043   6.698   3.891   5.908  0.0705  0.0691 -0.1674
19851TIP3    H181044   6.737   3.931   5.985  0.3561  0.7234 -0.6518
19851TIP3    H281045   6.684   3.800   5.934 -0.7954  0.5163  1.0104
19852TIP3   OH281046   4.965   5.577   6.123  0.1624 -0.2659 -0.1579
19852TIP3    H181047   4.998   5.516   6.058 -0.0303 -1.1158  0.5318
19852TIP3    H281048   4.973   5.663   6.082  0.4289 -0.7544 -1.1339
19853TIP3   OH281049   5.094   1.165   4.163  0.3477  0.2169 -0.2936
19853TIP3    H181050   5.138   1.177   4.247 -0.1299 -0.9966  0.1304
19853TIP3    H281051   5.036   1.241   4.157  0.8978  0.6875  0.1351
19854TIP3   OH281052   0.843   0.780   0.105  0.2033 -0.5697  0.5474
19854TIP3    H181053   0.750   0.768   0.084 -0.3023  1.1542  1.6897
19854TIP3    H281054   0.863   0.707   0.163 -0.3571 -1.1299  0.0455
19855TIP3   OH281055   6.784   6.664  12.235 -0.6997 -0.0395  0.6444
19855TIP3    H181056   6.875   6.680  12.211 -0.7735  0.1697  0.5047
19855TIP3    H281057   6.784   6.574  12.268 -0.4710 -0.0932  0.5021
19856TIP3   OH281058   0.362   1.050  16.662  0.7029  0.2632 -0.2103
19856TIP3    H181059   0.412   0.970  16.681  2.4100  1.4749  0.5885
19856TIP3    H281060   0.355   1.094  16.747 -0.9874  0.5322 -0.4817
19857TIP3   OH281061   6.730   6.427   1.362  0.4396  0.0351 -0.5744
19857TIP3    H181062   6.717   6.342   1.403 -0.2524  0.0070 -0.8461
19857TIP3    H281063   6.661   6.433   1.295  0.7134  0.6471 -0.8123
19858TIP3   OH281064   0.554   3.613  14.081 -0.5542  0.5949 -0.5998
19858TIP3    H181065   0.594   3.656  14.006 -1.8780  1.2019 -0.9701
19858TIP3    H281066   0.533   3.525  14.051 -0.7262  0.7108 -0.8173
19859TIP3   OH281067   3.102   3.233  14.921  0.1028 -0.1854  0.5723
19859TIP3    H181068   3.069   3.259  14.835  1.7279 -0.0356 -0.0192
19859TIP3    H281069   3.025   3.235  14.977 -0.9445 -0.0971 -0.8323
19860TIP3   OH281070   5.495   3.728  14.859  0.1827 -0.1501  0.7613
19860TIP3    H181071   5.457   3.796  14.915  0.9792  0.1936  0.8891
19860TIP3    H281072   5.581   3.711  14.897  1.0736  0.6707 -0.8400
19861TIP3   OH281073   6.079   0.549   4.054 -0.3172  0.4185 -0.5913
19861TIP3    H181074   6.064   0.476   4.113 -1.5040 -0.2134 -1.6550
19861TIP3    H281075   6.037   0.624   4.096  2.2400  0.8559  1.2526
19862TIP3   OH281076   5.844   1.272   1.462 -0.1335 -0.0832  0.1982
19862TIP3    H181077   5.925   1.244   1.419  0.5462  0.4867  1.0975
19862TIP3    H281078   5.873   1.320   1.540 -1.3443 -0.9224  1.1860
19863TIP3   OH281079   5.045   5.137   0.109  0.1685  0.2405 -0.4719
19863TIP3    H181080   5.044   5.066   0.045  1.8604  1.8643 -2.4021
19863TIP3    H281081   4.956   5.174   0.105 -0.3568 -0.9982 -0.3353
19864TIP3   OH281082   4.541   5.117   6.481 -0.5309  0.7556 -0.0577
19864TIP3    H181083   4.489   5.186   6.440  0.0948  1.0962 -0.2798
19864TIP3    H281084   4.578   5.068   6.408 -1.9921 -0.5899  0.1023
19865TIP3   OH281085   4.542   2.771  15.822  0.2259 -0.3069  0.1603
19865TIP3    H181086   4.559   2.823  15.744 -0.3339  1.5144  1.2280
19865TIP3    H281087   4.491   2.697  15.790  1.7982 -0.7047 -1.5174
19866TIP3   OH281088   4.385   3.413   0.696 -0.0911  0.0116 -0.5223
19866TIP3    H181089   4.473   3.393   0.729 -0.4608 -0.3766  0.2329
19866TIP3    H281090   4.348   3.328   0.674 -0.3659  0.1568 -0.6147
19867TIP3   OH281091   4.737   4.822  12.226  0.2801  0.0304 -0.3510
19867TIP3    H181092   4.682   4.819  12.304 -0.9506 -0.6466 -1.2184
19867TIP3    H281093   4.820   4.858  12.256  0.1865 -1.2191  1.4790
19868TIP3   OH281094   2.452   1.446   2.623  0.6836  0.2556 -0.5278
19868TIP3    H181095   2.419   1.533   2.646  0.7516  0.3229 -0.6883
19868TIP3    H281096   2.377   1.401   2.584  0.5234  0.0874 -0.0360
19869TIP3   OH281097   0.151   6.194   3.001 -0.3401  0.0949 -0.0471
19869TIP3    H181098   0.243   6.169   2.987 -0.1611  1.4601 -1.5345
19869TIP3    H281099   0.155   6.286   3.027 -1.1751 -0.4680  2.1838
19870TIP3   OH281100   6.348   4.820   6.117  0.3551  0.3300  0.0169
19870TIP3    H181101   6.261   4.799   6.150  0.1760 -0.0940 -0.7085
19870TIP3    H281102   6.407   4.761   6.163  0.2887  0.7577  0.6579
19871TIP3   OH281103   3.273   5.575   1.276 -0.0245 -0.1427 -0.0650
19871TIP3    H181104   3.183   5.571   1.244  0.0975 -0.1191 -0.4151
19871TIP3    H281105   3.269   5.633   1.352 -0.2361  0.1553 -0.3020
19872TIP3   OH281106   6.310   6.011   2.956  0.1522 -0.2449  0.3939
19872TIP3    H181107   6.318   5.922   2.922 -0.1585 -0.5951  1.2090
19872TIP3    H281108   6.400   6.039   2.972  0.2394 -0.5256  0.3996
19873TIP3   OH281109   3.736   6.444  12.923 -0.4179 -0.6305  0.6542
19873TIP3    H181110   3.701   6.421  12.837 -0.4601  1.0197  0.2108
19873TIP3    H281111   3.821   6.400  12.927 -0.9664 -1.7581  0.3075
19874TIP3   OH281112   6.097   5.337   6.277  0.1403 -0.4366  0.0304
19874TIP3    H181113   6.044   5.257   6.269  0.2571 -0.3046 -2.4723
19874TIP3    H281114   6.033   5.408   6.269  0.2738 -0.2772  0.3918
19875TIP3   OH281115   5.651   1.356  15.749 -0.1227  0.1979 -0.3681
19875TIP3    H181116   5.563   1.346  15.712  0.5666  0.6132 -2.1663
19875TIP3    H281117   5.705   1.385  15.675  1.5917 -0.3428  0.6457
19876TIP3   OH281118   5.381   3.050   0.068  0.0574  0.0188 -0.1921
19876TIP3    H181119   5.467   3.090   0.055 -0.0700  0.3691  0.0214
19876TIP3    H281120   5.319   3.122   0.056 -0.1866 -0.1556  0.0075
19877TIP3   OH281121   3.971   5.220  13.307  0.4388  0.1071 -0.0353
19877TIP3    H181122   3.887   5.215  13.354  1.5013 -0.0224  1.8907
19877TIP3    H281123   3.953   5.181  13.221 -1.0076 -1.5877  1.0067
19878TIP3   OH281124   3.963   6.756   3.589  0.4226 -0.2680 -0.3304
19878TIP3    H181125   3.903   6.684   3.568 -0.7425  0.8619 -0.9801
19878TIP3    H281126   3.905   6.826   3.618  1.3319  1.2921 -2.1875
19879TIP3   OH281127   3.783   3.658  14.665  0.1736  0.2662 -0.2226
19879TIP3    H181128   3.863   3.639  14.713  1.6066  0.4941 -2.4545
19879TIP3    H281129   3.800   3.741  14.621 -0.7297 -0.4007 -1.8907
19880TIP3   OH281130   0.260   0.037   5.587 -0.0876  0.7665  0.2206
19880TIP3    H181131   0.192   0.035   5.654  0.1362 -2.3506  0.4265
19880TIP3    H281132   0.213   0.033   5.504 -0.2302  0.8690  0.2965
19881TIP3   OH281133   0.359   3.312   0.178 -0.1040  0.3420  1.0219
19881TIP3    H181134   0.332   3.326   0.269  0.8315  4.4450  0.7753
19881TIP3    H281135   0.312   3.379   0.128  3.7992  2.0558 -0.6150
19882TIP3   OH281136   5.614   4.151  14.706  0.2753  0.4738 -0.6682
19882TIP3    H181137   5.519   4.152  14.717  0.2440 -1.6099 -0.6933
19882TIP3    H281138   5.629   4.101  14.625  1.4661 -0.5066  0.1391
19883TIP3   OH281139   1.132   1.469  14.668  0.0970 -0.2830  0.1465
19883TIP3    H181140   1.176   1.420  14.737  1.2795  0.5848  0.0305
19883TIP3    H281141   1.042   1.479  14.699  0.5319 -0.1817  1.4045
19884TIP3   OH281142   2.048   4.065  12.989  0.4824 -0.5554 -0.0900
19884TIP3    H181143   2.073   3.998  13.052  0.1662  0.5019  1.1770
19884TIP3    H281144   2.066   4.026  12.903  0.1699 -2.2959  0.6308
19885TIP3   OH281145   4.783   5.076   4.921 -0.3993 -0.6275  0.4303
19885TIP3    H181146   4.866   5.053   4.878 -0.6427  0.9911 -0.9897
19885TIP3    H281147   4.775   5.014   4.993  1.8688 -1.0631  0.3599
19886TIP3   OH281148   3.154   1.241   0.806 -0.4493 -0.5142  0.0310
19886TIP3    H181149   3.223   1.177   0.823  0.1662 -0.4933 -2.2499
19886TIP3    H281150   3.195   1.325   0.826 -0.3938 -0.6316  0.4206
19887TIP3   OH281151   4.687   6.720   4.614  0.0762 -0.2475 -0.0703
19887TIP3    H181152   4.693   6.641   4.668 -1.1867  0.0478  0.5311
19887TIP3    H281153   4.732   6.698   4.533  3.3227 -0.2352  1.6340
19888TIP3   OH281154   4.273   1.004  11.243  0.0428  0.4387  0.2130
19888TIP3    H181155   4.207   1.026  11.308  0.3064  0.6846  0.3963
19888TIP3    H281156   4.343   1.068  11.256  1.3560 -1.2066  1.5510
19889TIP3   OH281157   1.564   3.459   3.426 -0.8080  0.3688 -0.2319
19889TIP3    H181158   1.540   3.407   3.349 -0.5865 -0.9145  0.5454
19889TIP3    H281159   1.489   3.448   3.486 -1.2560  1.8541 -0.4887
19890TIP3   OH281160   5.573   6.303   0.474 -0.1106  0.1556 -0.0389
19890TIP3    H181161   5.520   6.228   0.449  0.8708 -0.0983 -1.4230
19890TIP3    H281162   5.557   6.314   0.568 -2.2586 -0.1579 -0.3583
19891TIP3   OH281163   5.831   4.575  15.827 -0.2127 -0.2249  0.3599
19891TIP3    H181164   5.846   4.499  15.770 -1.4595  0.2521 -0.6420
19891TIP3    H281165   5.804   4.645  15.767  2.7488  1.5958  1.0395
19892TIP3   OH281166   2.551   3.756   6.210  0.3111  0.5207  1.0355
19892TIP3    H181167   2.459   3.734   6.223  0.2047  0.1381 -0.2720
19892TIP3    H281168   2.596   3.712   6.283 -0.4521  0.0922  1.2613
19893TIP3   OH281169   2.823   6.600   0.886 -0.3152 -0.1729 -0.2641
19893TIP3    H181170   2.867   6.685   0.890  0.2677 -0.4676 -0.3231
19893TIP3    H281171   2.775   6.593   0.969 -1.2173  0.6684 -0.7085
19894TIP3   OH281172   6.159   3.960  11.678 -0.1002 -0.1670  0.0392
19894TIP3    H181173   6.211   3.880  11.688 -0.9835 -1.1276 -2.7162
19894TIP3    H281174   6.223   4.029  11.661  0.5763 -0.4828  1.2341
19895TIP3   OH281175   3.874   3.973  17.140 -0.3035 -0.1320 -0.8590
19895TIP3    H181176   3.870   3.996  17.233  1.9286 -3.7009  0.2007
19895TIP3    H281177   3.907   4.052  17.098  1.8559  0.5222  1.8661
19896TIP3   OH281178   6.403   0.810  12.483 -0.4085 -0.4734  0.1918
19896TIP3    H181179   6.335   0.863  12.441 -0.0977  0.7705  1.2143
19896TIP3    H281180   6.485   0.852  12.457  0.0148 -2.2337 -1.3943
19897TIP3   OH281181   5.629   5.312   2.097  0.1910  0.0573  0.0535
19897TIP3    H181182   5.677   5.235   2.127 -0.2327 -1.0989 -2.1608
19897TIP3    H281183   5.540   5.299   2.128  0.0384 -0.5262 -0.6226
19898TIP3   OH281184   4.745   6.463   5.901  0.1017 -0.2200 -0.2705
19898TIP3    H181185   4.711   6.395   5.960 -0.3134 -0.6059 -0.9455
19898TIP3    H281186   4.801   6.416   5.840  1.0993  0.2856  0.2553
19899TIP3   OH281187   3.072   4.290   1.054 -0.2357 -0.0344 -0.2307
19899TIP3    H181188   3.109   4.364   1.005  1.5413  0.5669  1.9182
19899TIP3    H281189   3.056   4.223   0.987  2.6142  0.5704 -1.6022
19900TIP3   OH281190   6.311   3.821  14.553 -0.0144  0.2716 -0.2040
19900TIP3    H181191   6.355   3.736  14.558 -0.5107  0.0588  0.6505
19900TIP3    H281192   6.264   3.818  14.470  0.0310 -0.2565 -0.2165
19901TIP3   OH281193   1.464   1.142   2.581 -0.3491  0.1006 -0.1743
19901TIP3    H181194   1.386   1.189   2.553 -0.2983  0.1531 -0.2287
19901TIP3    H281195   1.509   1.119   2.500  0.4895  1.4356 -0.1101
19902TIP3   OH281196   5.891   0.945   0.000 -0.1266  1.2289  0.0268
19902TIP3    H181197   5.979   0.909   0.008 -0.1624  0.8440 -1.2308
19902TIP3    H281198   5.904   1.031  -0.040 -0.2824  1.4308  0.4014
19903TIP3   OH281199   0.373   5.563  13.603  0.2409 -0.6572  1.0197
19903TIP3    H181200   0.303   5.498  13.616 -1.2648  0.3914 -1.4964
19903TIP3    H281201   0.339   5.643  13.643  1.3974 -0.9709  2.6562
19904TIP3   OH281202   6.592   4.783  16.812  1.0876 -0.0988  0.2092
19904TIP3    H181203   6.664   4.743  16.860 -0.5282 -2.9722  0.3949
19904TIP3    H281204   6.532   4.710  16.795 -0.9120  1.8760 -1.4848
19905TIP3   OH281205   4.225   5.905   1.513  0.1064  0.4694  0.4685
19905TIP3    H181206   4.134   5.922   1.535 -0.4729 -1.2773 -0.4059
19905TIP3    H281207   4.244   5.820   1.554  0.4581 -0.5028 -1.6147
19906TIP3   OH281208   5.316   1.006   5.061  0.0143  0.8941  0.4216
19906TIP3    H181209   5.253   1.020   4.990  0.0961  1.7512  0.5082
19906TIP3    H281210   5.313   0.912   5.078 -0.2243  0.7252 -0.5139
19907TIP3   OH281211   3.975   5.501   2.379 -0.1572  0.8701  0.2765
19907TIP3    H181212   3.895   5.453   2.403  0.4133  1.0595  2.7117
19907TIP3    H281213   3.944   5.585   2.345 -1.0778 -0.1844 -1.5539
19908TIP3   OH281214   0.632   4.819   5.923 -0.0446  0.3206 -0.0620
19908TIP3    H181215   0.567   4.863   5.977 -2.0579 -0.7172 -1.5634
19908TIP3    H281216   0.619   4.726   5.940 -0.0402  0.0283 -1.5491
19909TIP3   OH281217   6.737   6.662  11.124 -0.6407  0.8520  0.2033
19909TIP3    H181218   6.772   6.703  11.044  2.0823  0.1279  0.9622
19909TIP3    H281219   6.718   6.736  11.182  1.8784  1.2117  0.6286
19910TIP3   OH281220   3.246   0.314   5.228  0.4480  0.3708  0.1474
19910TIP3    H181221   3.213   0.336   5.315  0.5611 -1.8832  0.8100
19910TIP3    H281222   3.177   0.261   5.189  0.5664  1.0465 -0.9996
19911TIP3   OH281223   1.766   4.892   4.729 -0.1888  0.4326  0.4754
19911TIP3    H181224   1.855   4.885   4.762  0.8667  1.5022 -2.0251
19911TIP3    H281225   1.733   4.975   4.763  0.6133  1.1595 -0.5144
19912TIP3   OH281226   1.445   3.616   2.344 -0.1743  0.3813 -0.1343
19912TIP3    H181227   1.429   3.530   2.305  1.6394 -0.4650  0.9142
19912TIP3    H281228   1.511   3.656   2.288  0.1237  0.4503  0.2645
19913TIP3   OH281229   4.087   1.461  17.245  0.1496 -0.0674 -0.2005
19913TIP3    H181230   4.137   1.384  17.273 -1.5575 -1.4087 -0.7356
19913TIP3    H281231   4.100   1.524  17.315  1.3123 -0.9653  0.4186
19914TIP3   OH281232   6.178   6.360   0.753 -0.1257  0.5568 -0.2333
19914TIP3    H181233   6.137   6.366   0.667 -1.2431  0.1637  0.2590
19914TIP3    H281234   6.104   6.355   0.814  0.6338  2.2079  0.8511
19915TIP3   OH281235   5.439   6.724  17.049  0.0214 -0.0744 -0.2523
19915TIP3    H181236   5.489   6.785  16.995  0.8993 -0.4090  0.1722
19915TIP3    H281237   5.501   6.695  17.116 -1.5112  1.6597  2.0064
19916TIP3   OH281238   4.486   1.552   6.171 -0.6032 -0.0201 -0.5921
19916TIP3    H181239   4.432   1.618   6.128 -2.0262 -1.7106 -1.4465
19916TIP3    H281240   4.496   1.482   6.107  1.6052 -0.2900 -0.0081
19917TIP3   OH281241   1.715   4.219  11.329  0.1135  0.5928  0.1878
19917TIP3    H181242   1.767   4.258  11.259 -1.4026  0.6022 -0.9563
19917TIP3    H281243   1.750   4.129  11.337  0.0008  0.4496 -0.8728
19918TIP3   OH281244   3.981   5.529  15.192 -0.0966 -0.4629 -0.5376
19918TIP3    H181245   3.913   5.577  15.146  0.6361 -0.8757 -2.0946
19918TIP3    H281246   3.964   5.437  15.173 -0.1490 -0.6833  0.5375
19919TIP3   OH281247   6.624   5.120   2.935 -0.4032 -0.1442 -0.3238
19919TIP3    H181248   6.565   5.099   2.862 -2.0073 -1.0622  1.1912
19919TIP3    H281249   6.644   5.212   2.924 -2.0799  0.1742 -0.9378
19920TIP3   OH281250   0.195   6.133   0.391 -0.6267 -0.2083 -0.4080
19920TIP3    H181251   0.229   6.136   0.481  0.6453  1.7796 -0.9298
19920TIP3    H281252   0.105   6.164   0.398 -0.8467 -0.9930  0.3148
19921TIP3   OH281253   2.138   6.609  13.848  0.3970 -0.4629  0.0768
19921TIP3    H181254   2.053   6.587  13.809  1.1869 -1.7757 -0.9323
19921TIP3    H281255   2.194   6.631  13.774  1.4912 -1.5392  0.5642
19922TIP3   OH281256   6.244   2.538  11.467 -0.5502 -0.0775 -0.2530
19922TIP3    H181257   6.218   2.555  11.558 -1.1375  0.0749 -0.4491
19922TIP3    H281258   6.205   2.453  11.447  0.2663 -0.4964 -0.1006
19923TIP3   OH281259   5.906   1.746   4.628  0.6241 -0.8626 -0.3157
19923TIP3    H181260   5.925   1.690   4.703  0.1819  1.9466  1.9843
19923TIP3    H281261   5.812   1.736   4.614  0.0711  1.1277  1.6977
19924TIP3   OH281262   1.273   0.693   2.136  0.0876 -0.2041 -0.6419
19924TIP3    H181263   1.359   0.651   2.135 -0.5186 -1.4893 -0.5663
19924TIP3    H281264   1.290   0.784   2.161  1.3049 -0.7055  0.4102
19925TIP3   OH281265   4.111   2.189   0.893  0.7713 -0.3261 -0.0090
19925TIP3    H181266   4.096   2.284   0.891  0.7767 -0.3068  0.9767
19925TIP3    H281267   4.032   2.153   0.932  1.3811 -0.6057  0.9720
19926TIP3   OH281268   4.118   3.086  15.354 -0.3137 -0.9534  0.6491
19926TIP3    H181269   4.109   3.165  15.408 -0.1578 -0.0696 -0.5947
19926TIP3    H281270   4.028   3.065  15.329 -0.5842 -2.4252  2.7042
19927TIP3   OH281271   5.866   2.982  11.174  0.6628 -0.2338 -0.0286
19927TIP3    H181272   5.913   2.993  11.256 -0.0049 -0.6107  0.4072
19927TIP3    H281273   5.872   2.888  11.155  1.3649 -0.0521 -0.7445
19928TIP3   OH281274   1.589   3.524  13.261  0.0283 -0.1217 -0.2075
19928TIP3    H181275   1.551   3.509  13.347  0.7339 -1.5099 -0.1240
19928TIP3    H281276   1.592   3.619  13.252 -1.0310  0.0205  0.8545
19929TIP3   OH281277   6.247   4.655   3.674 -0.1976  0.0841 -0.5572
19929TIP3    H181278   6.211   4.566   3.678  2.3020 -0.9430 -0.1568
19929TIP3    H281279   6.233   4.682   3.583  1.1405 -1.6589 -1.3172
19930TIP3   OH281280   5.114   3.881  15.363  0.1756  0.1614  0.1147
19930TIP3    H181281   5.083   3.902  15.275 -0.3379  4.2755  1.1986
19930TIP3    H281282   5.192   3.935  15.375  1.2339 -1.6053  1.6323
19931TIP3   OH281283   2.401   6.194   2.536  0.4932  0.3402 -0.2999
19931TIP3    H181284   2.308   6.209   2.553  1.0182  0.1276  3.3250
19931TIP3    H281285   2.406   6.104   2.504 -0.4468 -0.0416  0.5891
19932TIP3   OH281286   3.348   5.068   1.606 -0.0934  0.1081 -0.0191
19932TIP3    H181287   3.327   5.159   1.585  0.1247  0.3501  0.7735
19932TIP3    H281288   3.427   5.050   1.556  0.1191  0.5034  0.1701
19933TIP3   OH281289   4.175   1.924   0.470  0.0360 -0.0302 -0.5887
19933TIP3    H181290   4.081   1.936   0.483 -0.0057 -0.6734 -0.2866
19933TIP3    H281291   4.202   1.866   0.541  0.6653  0.1702 -0.6626
19934TIP3   OH281292   2.820   0.571  14.557 -0.6547  0.1518  0.1192
19934TIP3    H181293   2.810   0.660  14.524  3.1057  0.3342 -0.7002
19934TIP3    H281294   2.847   0.582  14.648  0.2700 -0.1467 -0.1198
19935TIP3   OH281295   0.038   0.294   5.804 -0.0886  0.4428  0.0648
19935TIP3    H181296   0.000   0.240   5.873  0.3248 -1.3783 -1.1082
19935TIP3    H281297   0.127   0.260   5.792 -0.1004  0.8303 -1.2682
19936TIP3   OH281298   2.201   6.572   3.678 -0.3507  0.0655  0.1907
19936TIP3    H181299   2.239   6.577   3.590 -1.0591 -1.5780 -0.2365
19936TIP3    H281300   2.126   6.631   3.675 -1.2537 -1.1167 -0.7861
19937TIP3   OH281301   5.506   1.345  10.623  0.3735  0.7261  0.0782
19937TIP3    H181302   5.589   1.369  10.582  0.5065  1.2069  0.6124
19937TIP3    H281303   5.517   1.254  10.650  0.7632  0.8180  0.2285
19938TIP3   OH281304   1.926   0.185  14.497  0.4207 -0.1113 -0.0803
19938TIP3    H181305   1.927   0.151  14.586 -0.6726 -0.4389 -0.1918
19938TIP3    H281306   1.980   0.264  14.501 -0.1976  0.2609  1.0141
19939TIP3   OH281307   4.198   1.399  13.435  0.5188  0.9812 -0.0487
19939TIP3    H181308   4.255   1.323  13.443 -1.9363 -1.0036 -1.0447
19939TIP3    H281309   4.160   1.411  13.522 -2.4191 -1.6587 -0.8859
19940TIP3   OH281310   3.687   2.098  14.988  0.2218 -0.3044  0.2582
19940TIP3    H181311   3.592   2.093  14.997  0.4325 -3.1507  1.7706
19940TIP3    H281312   3.705   2.065  14.900 -0.1900 -0.1122  0.1045
19941TIP3   OH281313   6.335   4.435   1.355  0.3849 -0.1191 -0.0199
19941TIP3    H181314   6.354   4.529   1.362 -1.3560  0.2286  0.3632
19941TIP3    H281315   6.298   4.425   1.267 -1.7376  0.0066  0.8314
19942TIP3   OH281316   1.511   3.480   4.021 -0.0192  0.5680 -0.7107
19942TIP3    H181317   1.432   3.522   4.055  0.3441  1.4737 -0.9712
19942TIP3    H281318   1.555   3.445   4.098 -1.2809 -1.0075 -0.6811
19943TIP3   OH281319   1.989   1.216   5.711 -0.0813 -0.1575 -0.0685
19943TIP3    H181320   2.038   1.298   5.708  1.6714 -1.1296  0.5971
19943TIP3    H281321   2.057   1.148   5.704 -1.4856 -1.5412 -0.5659
19944TIP3   OH281322   5.070   1.513   5.224  0.1479 -0.0732 -0.3085
19944TIP3    H181323   5.097   1.478   5.139 -0.0460  0.8286 -0.7471
19944TIP3    H281324   4.980   1.544   5.210  0.9161  2.1812 -0.3985
19945TIP3   OH281325   3.850   5.448  11.816 -0.4433  0.4506 -0.0038
19945TIP3    H181326   3.788   5.471  11.747 -0.4608 -1.7134 -0.7645
19945TIP3    H281327   3.803   5.465  11.898 -1.2275  0.9153 -0.5498
19946TIP3   OH281328   0.792   2.438   5.906 -0.2547  0.0281  0.0304
19946TIP3    H181329   0.822   2.521   5.943 -1.3459  0.8393 -0.8824
19946TIP3    H281330   0.700   2.431   5.933  0.2111 -1.5789  1.3031
19947TIP3   OH281331   5.829   4.185   4.420 -0.5462 -0.2034 -0.1639
19947TIP3    H181332   5.877   4.248   4.474 -1.0198 -0.9470  1.1668
19947TIP3    H281333   5.897   4.138   4.372 -0.2122  1.5971 -1.4947
19948TIP3   OH281334   5.376   5.804   0.504  0.0748 -0.4722  0.0462
19948TIP3    H181335   5.281   5.791   0.509 -0.0630  0.0874 -1.0504
19948TIP3    H281336   5.410   5.757   0.580 -1.0625 -0.8703  0.3232
19949TIP3   OH281337   3.085   3.613  11.451 -0.1472 -0.0032 -0.0304
19949TIP3    H181338   3.040   3.530  11.431  2.1339 -1.5563  1.0360
19949TIP3    H281339   3.071   3.667  11.374  0.2447 -2.2445 -1.7393
19950TIP3   OH281340   6.227   0.522  17.105 -0.7235  0.1768 -0.3960
19950TIP3    H181341   6.306   0.469  17.109 -0.0885  1.1301 -0.0227
19950TIP3    H281342   6.193   0.508  17.017  1.3318  1.7942 -1.5153
19951TIP3   OH281343   4.457   4.589  14.311 -0.2455  0.0441  0.1237
19951TIP3    H181344   4.553   4.589  14.306 -0.2130  0.5161  0.6753
19951TIP3    H281345   4.432   4.680  14.291 -0.5390  0.0762  0.6363
19952TIP3   OH281346   3.150   5.798   2.608 -0.2575  0.3353 -0.1923
19952TIP3    H181347   3.231   5.833   2.644  0.7410 -0.2631 -1.8092
19952TIP3    H281348   3.114   5.870   2.556 -0.9057  0.6841  0.7235
19953TIP3   OH281349   5.919   6.121  15.297 -0.3047  0.1851 -0.2880
19953TIP3    H181350   5.954   6.104  15.209 -1.3684  0.5572 -0.7904
19953TIP3    H281351   5.982   6.181  15.337 -1.3601  2.4332 -1.8993
19954TIP3   OH281352   5.273   1.007   6.305  0.6638 -0.0045 -0.5752
19954TIP3    H181353   5.200   0.948   6.284  1.2406 -0.5553 -1.0310
19954TIP3    H281354   5.239   1.095   6.284  0.0251 -0.2281 -0.4928
19955TIP3   OH281355   6.185   3.756   1.918 -0.1130  0.3597  0.3457
19955TIP3    H181356   6.148   3.679   1.875 -0.3920 -0.0942  1.3911
19955TIP3    H281357   6.259   3.722   1.968  0.7692  1.0243 -0.4796
19956TIP3   OH281358   6.618   3.983  11.008 -0.0491 -0.1929 -0.8242
19956TIP3    H181359   6.534   3.939  11.016  1.1623 -2.4906 -0.2608
19956TIP3    H281360   6.683   3.913  11.018  1.9422  1.7125  0.1336
19957TIP3   OH281361   6.719   0.581   1.152  0.1462 -0.5147 -0.0213
19957TIP3    H181362   6.719   0.485   1.147  1.2738 -0.4739 -1.0436
19957TIP3    H281363   6.806   0.602   1.185 -0.2827  0.1410  0.6961
19958TIP3   OH281364   5.639   6.558   1.131 -0.5887  0.7552  0.2167
19958TIP3    H181365   5.585   6.582   1.055 -1.4683  1.4468  1.0548
19958TIP3    H281366   5.694   6.486   1.099 -1.0841  0.9175 -1.0264
19959TIP3   OH281367   4.747   5.746  12.033 -0.0281  0.3723  0.4457
19959TIP3    H181368   4.820   5.798  12.067  0.8124 -0.6003  0.1546
19959TIP3    H281369   4.726   5.785  11.949  0.1381  0.6706  0.5431
19960TIP3   OH281370   1.649   5.630   2.155  0.3324 -0.2971  0.2681
19960TIP3    H181371   1.652   5.646   2.061 -1.2311  1.9947  0.5641
19960TIP3    H281372   1.721   5.682   2.191  0.1377 -0.1550  0.4592
19961TIP3   OH281373   3.755   3.946   0.974  0.0370 -0.0768 -0.5727
19961TIP3    H181374   3.793   3.920   1.058 -1.1264 -0.9259 -0.2957
19961TIP3    H281375   3.706   3.869   0.944 -1.1237  0.8369 -1.1149
19962TIP3   OH281376   0.641   1.015   5.067  0.4326  0.2054 -0.1361
19962TIP3    H181377   0.698   1.036   5.141  1.9308 -0.0758 -1.1883
19962TIP3    H281378   0.593   0.938   5.096  1.0306  0.0751  0.5408
19963TIP3   OH281379   1.713   2.462   1.528  0.0141  0.0493 -0.2993
19963TIP3    H181380   1.671   2.439   1.611 -0.3897 -0.3069 -0.5988
19963TIP3    H281381   1.793   2.408   1.526 -0.4484 -0.6315 -0.5636
19964TIP3   OH281382   4.716   3.549  11.801  0.3201  0.6328 -0.0851
19964TIP3    H181383   4.653   3.606  11.757  0.7478  0.8840 -0.3801
19964TIP3    H281384   4.663   3.482  11.844 -0.2641  2.0028  1.3661
19965TIP3   OH281385   3.637   5.842  11.713  0.5512 -0.0186  0.3080
19965TIP3    H181386   3.656   5.935  11.702 -0.0227  0.1568  0.7585
19965TIP3    H281387   3.600   5.836  11.801 -1.8717 -0.2804 -0.6798
19966TIP3   OH281388   3.561   0.466   2.923  0.5401 -0.6216  0.5670
19966TIP3    H181389   3.531   0.378   2.903  0.2484 -0.6855  1.2544
19966TIP3    H281390   3.633   0.482   2.862 -1.4310 -0.1421 -1.6933
19967TIP3   OH281391   6.687   6.559  16.738  0.2299  0.3988  0.1277
19967TIP3    H181392   6.705   6.534  16.648  0.2032 -1.3238  0.5895
19967TIP3    H281393   6.623   6.630  16.731 -0.7630 -0.6034 -1.1504
19968TIP3   OH281394   1.515   3.229  12.876  0.9192  0.6631  0.2386
19968TIP3    H181395   1.448   3.247  12.941  0.3693  0.7797 -0.3635
19968TIP3    H281396   1.561   3.312  12.865  0.0220  1.0432 -0.6586
19969TIP3   OH281397   1.675   4.970   4.216 -0.3577  0.4689  0.4492
19969TIP3    H181398   1.668   4.895   4.158 -0.1946  0.1639  0.8240
19969TIP3    H281399   1.753   5.017   4.187  0.2168 -0.1558  0.9748
19970TIP3   OH281400   1.617   0.050   4.073  0.0479 -0.1770 -0.0936
19970TIP3    H181401   1.709   0.067   4.052  0.3430 -1.3609  0.1763
19970TIP3    H281402   1.608  -0.045   4.065 -1.4666  0.0641 -1.3467
19971TIP3   OH281403   3.534   4.107  13.384  0.3374 -0.1758 -0.1568
19971TIP3    H181404   3.492   4.184  13.346 -2.9448 -1.6113  0.4330
19971TIP3    H281405   3.616   4.141  13.421  0.3550  2.4568 -2.4344
19972TIP3   OH281406   1.835   4.737  16.932 -0.4298 -0.1006 -0.4262
19972TIP3    H181407   1.823   4.732  17.027  2.4354 -1.3311 -0.0672
19972TIP3    H281408   1.790   4.659  16.898 -1.0280  0.0706 -0.0268
19973TIP3   OH281409   5.439   1.631  11.829  0.4627 -0.4154  0.2609
19973TIP3    H181410   5.349   1.661  11.844  0.6724  0.2445  0.2191
19973TIP3    H281411   5.441   1.543  11.865  0.3976  0.3790  2.2723
19974TIP3   OH281412   1.050   3.452  11.541 -0.0584  0.2235  0.3395
19974TIP3    H181413   1.112   3.431  11.471 -0.0055 -0.0167  0.4576
19974TIP3    H281414   1.090   3.526  11.587  0.6889 -0.6765  1.1260
19975TIP3   OH281415   1.768   6.209   0.631  0.7365 -0.1467 -0.2902
19975TIP3    H181416   1.819   6.135   0.663  1.2733 -0.1771 -1.1944
19975TIP3    H281417   1.834   6.272   0.601  0.2494 -0.0474 -1.1699
19976TIP3   OH281418   2.535   5.886   3.832 -0.1136  0.0656  0.3466
19976TIP3    H181419   2.567   5.972   3.806  0.6522 -0.4520 -0.4559
19976TIP3    H281420   2.531   5.836   3.751  1.1081 -1.1903  1.0393
19977TIP3   OH281421   4.095   2.928   3.921 -0.0909 -0.7813 -0.0377
19977TIP3    H181422   4.038   2.992   3.878  0.0380  0.8273  2.0889
19977TIP3    H281423   4.035   2.876   3.975  0.2025 -0.4599  0.5946
19978TIP3   OH281424   5.362   2.547   5.608  0.3417  0.4874  0.6547
19978TIP3    H181425   5.296   2.543   5.677 -0.8852  3.2532 -0.2957
19978TIP3    H281426   5.376   2.456   5.582 -1.5201 -0.3049  2.3468
19979TIP3   OH281427   5.672   2.892   2.889  0.3175 -0.5331  0.2874
19979TIP3    H181428   5.641   2.839   2.816 -1.2026  0.8690 -0.1208
19979TIP3    H281429   5.681   2.980   2.852 -0.3248  0.1593  1.7475
19980TIP3   OH281430   4.216   3.254  16.131 -0.1286 -0.2798 -0.5319
19980TIP3    H181431   4.232   3.234  16.039 -2.5734  0.4775 -1.1675
19980TIP3    H281432   4.136   3.206  16.152  0.0853  0.0279  1.0170
19981TIP3   OH281433   5.742   5.138  16.342  0.1008  0.0680  0.4401
19981TIP3    H181434   5.729   5.051  16.306 -0.0224 -0.2470  1.2399
19981TIP3    H281435   5.690   5.140  16.422  0.6157  0.6548  0.7724
19982TIP3   OH281436   1.051   5.391   2.968 -0.5089  0.6441 -0.2923
19982TIP3    H181437   0.991   5.320   2.990 -0.1552 -0.0273 -1.4292
19982TIP3    H281438   0.994   5.465   2.949 -1.0048 -0.0285 -1.5052
19983TIP3   OH281439   3.769   0.529  11.443 -0.7579 -0.9774 -0.1555
19983TIP3    H181440   3.674   0.524  11.457 -0.8722 -0.5948 -0.7712
19983TIP3    H281441   3.795   0.439  11.424 -0.7625 -1.3267  1.4547
19984TIP3   OH281442   4.814   4.006  11.390 -0.7001  0.3130 -0.1220
19984TIP3    H181443   4.733   4.023  11.343  0.0352  2.2753 -0.7422
19984TIP3    H281444   4.879   4.059  11.345  0.7920 -0.7069  0.7933
19985TIP3   OH281445   0.304   3.842  16.790  0.0109 -0.3350  1.0732
19985TIP3    H181446   0.341   3.919  16.747 -0.9868 -1.0060 -1.0457
19985TIP3    H281447   0.220   3.872  16.825  0.1947 -0.1581  1.3736
19986TIP3   OH281448   3.831   4.171  12.897 -0.1802 -0.1975  0.3555
19986TIP3    H181449   3.835   4.118  12.976 -0.7867  2.7638  2.4477
19986TIP3    H281450   3.813   4.260  12.928 -2.3691  0.7216 -3.2036
19987TIP3   OH281451   1.765   6.134  11.837 -0.6163 -0.3343  0.6305
19987TIP3    H181452   1.849   6.126  11.883 -0.1932 -1.1368 -0.2821
19987TIP3    H281453   1.747   6.228  11.837  2.1151  0.2559 -2.4276
19988TIP3   OH281454   6.748   6.039   2.906 -0.1759 -0.1242  0.3390
19988TIP3    H181455   6.788   5.958   2.873 -0.5344  0.6654 -2.1754
19988TIP3    H281456   6.822   6.094   2.931  0.1831 -0.2137 -0.5061
19989TIP3   OH281457   4.435   5.723  16.492 -0.0558 -0.6009  0.8124
19989TIP3    H181458   4.436   5.679  16.577 -1.3362  0.6617  1.5065
19989TIP3    H281459   4.377   5.668  16.438 -0.7235 -0.4002  1.3201
19990TIP3   OH281460   5.012   1.901  15.540  0.5735  0.6519  0.2852
19990TIP3    H181461   4.993   1.980  15.490 -2.3288 -0.0249  0.2245
19990TIP3    H281462   4.933   1.848  15.531  2.0599 -1.7887  1.2209
19991TIP3   OH281463   3.434   3.055  13.643 -0.8726  0.0250  0.2675
19991TIP3    H181464   3.465   3.029  13.729 -1.4730  1.6593  1.0055
19991TIP3    H281465   3.362   2.995  13.624 -1.6239  0.4937  1.5243
19992TIP3   OH281466   3.531   3.112   0.088  0.0485  0.1409  0.2728
19992TIP3    H181467   3.448   3.142   0.125  0.2947  1.1313  0.0502
19992TIP3    H281468   3.507   3.073   0.004 -0.3192 -0.6206  0.7255
19993TIP3   OH281469   2.734   6.369  14.446  0.2165 -0.3893 -0.5890
19993TIP3    H181470   2.679   6.381  14.368  1.0918 -0.7187 -1.2701
19993TIP3    H281471   2.809   6.426  14.431 -0.2644  0.5993  0.6679
19994TIP3   OH281472   5.481   3.384  16.163 -0.1575 -0.2512  0.5096
19994TIP3    H181473   5.475   3.475  16.193  0.2218 -1.0446  3.1152
19994TIP3    H281474   5.444   3.333  16.235  1.1003 -2.2812 -0.2540
19995TIP3   OH281475   1.907   6.729   0.232  0.0722  0.1944 -0.5625
19995TIP3    H181476   1.984   6.738   0.175 -0.3727  1.4494 -0.9759
19995TIP3    H281477   1.869   6.816   0.234 -0.1974  0.0374  1.2868
19996TIP3   OH281478   2.296   4.362  13.096  0.8541 -0.3726  0.8353
19996TIP3    H181479   2.300   4.275  13.136 -0.9370  0.0939  2.0978
19996TIP3    H281480   2.219   4.358  13.039 -0.2848  0.9109  2.2509
19997TIP3   OH281481   3.925   0.188   1.689 -0.0825 -0.1524  0.1749
19997TIP3    H181482   3.885   0.129   1.626  1.7077 -0.2197 -0.9606
19997TIP3    H281483   3.852   0.232   1.732 -1.3816 -2.2184  0.0902
19998TIP3   OH281484   2.210   6.467   0.753 -0.3097  0.2375  0.5159
19998TIP3    H181485   2.173   6.531   0.813 -0.0690 -0.2156  1.1500
19998TIP3    H281486   2.144   6.457   0.684  0.7755  3.1583 -1.0457
19999TIP3   OH281487   2.234   2.631  15.847 -0.3404  0.0761 -0.1834
19999TIP3    H181488   2.237   2.704  15.785 -0.2924 -1.0067 -1.4566
19999TIP3    H281489   2.280   2.560  15.803  0.8278 -0.3233  1.6164
20000TIP3   OH281490   3.758   5.237   4.694 -0.0707 -0.0936 -0.8484
20000TIP3    H181491   3.834   5.187   4.665 -0.9029 -1.8721 -0.0245
20000TIP3    H281492   3.705   5.248   4.615 -0.4032 -1.4753 -0.8319
20001TIP3   OH281493   5.855   3.693  11.436 -0.8082 -0.4076  0.1338
20001TIP3    H181494   5.812   3.650  11.361 -0.0400 -2.3186  0.7660
20001TIP3    H281495   5.861   3.624  11.502  1.3296  0.4220  0.8202
20002TIP3   OH281496   2.182   3.842   2.781 -0.1633  0.1533 -0.3311
20002TIP3    H181497   2.124   3.794   2.722 -0.8643  1.0260 -0.3823
20002TIP3    H281498   2.180   3.793   2.863 -0.8393  0.0691 -0.3947
20003TIP3   OH281499   2.392   4.401  12.189 -0.0266  0.1603  0.0626
20003TIP3    H181500   2.393   4.305  12.189 -1.1205  0.1434  0.3878
20003TIP3    H281501   2.452   4.425  12.260  2.2223 -0.2321 -1.6370
20004TIP3   OH281502   1.860   0.868   6.020  0.5332  0.2749  0.0335
20004TIP3    H181503   1.824   0.955   6.039 -1.3841 -0.1924 -1.2754
20004TIP3    H281504   1.944   0.885   5.977 -0.1263  1.4971 -0.7878
20005TIP3   OH281505   5.073   0.396   1.733 -0.6607 -0.1991  0.0107
20005TIP3    H181506   5.028   0.357   1.807 -0.4174  1.1826  0.9062
20005TIP3    H281507   5.166   0.391   1.756 -0.5396 -0.3949 -0.5150
20006TIP3   OH281508   4.935   6.622  13.154  0.0808  0.5651  0.2018
20006TIP3    H181509   4.926   6.717  13.162  0.1436  0.7363 -1.5088
20006TIP3    H281510   4.851   6.593  13.119  0.1536  0.0316  0.4699
20007TIP3   OH281511   6.136   4.307  13.940 -0.1540  0.3038  0.0868
20007TIP3    H181512   6.181   4.254  13.875 -0.6197 -0.6782  0.5560
20007TIP3    H281513   6.142   4.396  13.906  0.7790 -0.0184 -0.6251
20008TIP3   OH281514   3.793   2.614   5.000 -0.4651 -0.2779  0.8896
20008TIP3    H181515   3.840   2.537   4.968  0.0661  0.3692  0.1178
20008TIP3    H281516   3.710   2.613   4.954 -0.4881 -0.4312  0.9345
20009TIP3   OH281517   3.868   1.439  11.677 -0.2751  0.7108 -0.0098
20009TIP3    H181518   3.923   1.510  11.645  1.3732  0.8764  3.0231
20009TIP3    H281519   3.779   1.473  11.670  0.4267  2.7749  0.6300
20010TIP3   OH281520   2.735   3.953   0.225 -0.2548  0.0719  0.1865
20010TIP3    H181521   2.711   4.032   0.177  0.3068  0.1909  0.0892
20010TIP3    H281522   2.727   3.882   0.162 -2.1303 -0.1566  0.6559
20011TIP3   OH281523   6.078   1.420  16.829 -0.3192  0.2043  0.3098
20011TIP3    H181524   6.103   1.418  16.737 -0.8044  0.3600  0.1704
20011TIP3    H281525   6.147   1.372  16.875  0.2939  0.7294 -0.0529
20012TIP3   OH281526   3.598   4.426   2.193 -0.5770 -0.2885 -0.1801
20012TIP3    H181527   3.542   4.502   2.180 -0.0455 -0.4518 -3.8229
20012TIP3    H281528   3.569   4.363   2.127  2.2723 -1.3176 -0.5385
20013TIP3   OH281529   0.341   3.604  12.526  0.5664  0.1360  0.6322
20013TIP3    H181530   0.393   3.649  12.459 -2.1306  1.9203 -0.3639
20013TIP3    H281531   0.401   3.594  12.599  2.6791  1.0075 -0.9053
20014TIP3   OH281532   1.313   1.512   0.740 -0.2032 -0.3542  0.0665
20014TIP3    H181533   1.262   1.431   0.747  1.4270 -1.2528  2.2316
20014TIP3    H281534   1.273   1.560   0.667 -3.5456 -1.4176  1.1138
20015TIP3   OH281535   6.274   1.988  12.478 -0.0524  0.3289 -0.2894
20015TIP3    H181536   6.199   2.033  12.516 -0.5851  0.3691 -1.3779
20015TIP3    H281537   6.298   2.041  12.402  1.4063  0.6020  0.3452
20016TIP3   OH281538   1.307   6.327  12.255 -0.4991  0.8802  0.7774
20016TIP3    H181539   1.217   6.338  12.284 -0.8573  2.5736 -0.8423
20016TIP3    H281540   1.300   6.314  12.160  0.9428  0.7643  0.6725
20017TIP3   OH281541   4.590   6.310   1.450 -0.0404 -0.3347  0.1632
20017TIP3    H181542   4.675   6.278   1.481  0.5989  1.6512  0.5941
20017TIP3    H281543   4.550   6.351   1.527 -1.4430 -1.3543 -0.0172
20018TIP3   OH281544   2.015   6.415  13.663  0.3996  0.2292  0.2046
20018TIP3    H181545   1.974   6.329  13.671  0.1294  0.1757 -1.5755
20018TIP3    H281546   1.954   6.466  13.610  1.7722  0.7315 -0.9042
20019TIP3   OH281547   1.102   0.119   3.728  0.0544  0.2970  0.1005
20019TIP3    H181548   1.026   0.160   3.770 -0.6864 -1.0847  0.1220
20019TIP3    H281549   1.151   0.080   3.800  0.0124 -0.0755 -0.0719
20020TIP3   OH281550   4.528   4.680   3.875  0.6173  0.0506  0.3500
20020TIP3    H181551   4.553   4.769   3.901 -1.2472  0.0022  2.4979
20020TIP3    H281552   4.460   4.655   3.938 -0.2493 -2.1810 -1.4103
20021TIP3   OH281553   5.427   1.009   1.054  0.1042 -0.1077 -1.0488
20021TIP3    H181554   5.395   1.025   1.143  2.0031 -2.8289  0.1875
20021TIP3    H281555   5.512   1.054   1.051 -0.0260  0.1066 -1.5656
20022TIP3   OH281556   4.981   4.329  14.203 -0.1450  0.1298  0.1239
20022TIP3    H181557   4.987   4.290  14.290 -0.8146  0.1505  0.1770
20022TIP3    H281558   4.966   4.422  14.220  2.6687  0.6688  0.0211
20023TIP3   OH281559   4.632   1.559  13.052  0.1730  0.4413 -0.3222
20023TIP3    H181560   4.668   1.579  12.966  0.5994 -1.1986 -0.5320
20023TIP3    H281561   4.618   1.464  13.052 -1.2921  0.6292  0.8494
20024TIP3   OH281562   0.948   4.993   1.323 -0.0810 -0.4258  0.5127
20024TIP3    H181563   1.009   5.020   1.254 -0.5554  0.0211  0.2659
20024TIP3    H281564   0.919   4.905   1.297 -0.3350 -0.2176  0.0920
20025TIP3   OH281565   1.985   1.150   6.455  0.1088  0.6566 -0.1522
20025TIP3    H181566   1.914   1.086   6.448 -0.7369  1.3462  1.7093
20025TIP3    H281567   1.948   1.222   6.505  1.2351  2.3790 -1.7326
20026TIP3   OH281568   2.113   3.782  12.319  0.1860  0.5449 -0.4785
20026TIP3    H181569   2.146   3.725  12.388 -0.8898  0.8649  0.3079
20026TIP3    H281570   2.029   3.814  12.352 -1.5125 -1.1725 -2.8718
20027TIP3   OH281571   3.896   1.026  13.890  0.0070  0.0683 -0.3049
20027TIP3    H181572   3.908   0.962  13.960  2.9175  2.5838  1.5764
20027TIP3    H281573   3.808   1.061  13.904  0.5367  0.5074  2.0690
20028TIP3   OH281574   2.196   5.076   1.726  0.5898 -0.6830 -0.2084
20028TIP3    H181575   2.131   5.068   1.657  1.7325 -1.0509 -1.2621
20028TIP3    H281576   2.147   5.108   1.802 -0.6805 -0.3098 -1.1716
20029TIP3   OH281577   6.752   2.287   5.222 -0.2427  0.2723  0.2094
20029TIP3    H181578   6.789   2.355   5.278 -0.1777  0.6911 -0.3361
20029TIP3    H281579   6.663   2.316   5.203  0.2486  0.9038 -1.1582
20030TIP3   OH281580   1.808   5.241  12.093  0.3931 -0.3659 -0.1334
20030TIP3    H181581   1.901   5.246  12.115  0.1093 -0.4172  1.1021
20030TIP3    H281582   1.763   5.275  12.170 -0.5437  1.6812 -1.5091
20031TIP3   OH281583   1.720   3.569   6.682  0.4790 -0.3051  0.0737
20031TIP3    H181584   1.746   3.617   6.760 -2.7340 -0.7367  1.4980
20031TIP3    H281585   1.646   3.515   6.711  0.6207 -2.1069 -2.7528
20032TIP3   OH281586   2.238   2.277   5.255 -0.0704  0.3484 -0.0490
20032TIP3    H181587   2.192   2.324   5.186  1.5660  1.0147 -0.7143
20032TIP3    H281588   2.276   2.346   5.309 -0.8633 -0.1798  1.2018
20033TIP3   OH281589   4.108   2.328   2.497 -0.1877 -0.2811  0.2442
20033TIP3    H181590   4.134   2.256   2.555 -0.1564  0.4858  1.1983
20033TIP3    H281591   4.013   2.315   2.486 -0.1415 -0.6123  0.2112
20034TIP3   OH281592   3.432   0.608  12.918  0.4732 -0.2507 -0.7435
20034TIP3    H181593   3.387   0.552  12.981  0.8266 -0.7489 -0.9284
20034TIP3    H281594   3.501   0.651  12.969 -1.2194  1.7834 -0.0794
20035TIP3   OH281595   1.507   3.919   5.496  0.4898 -0.6999 -0.8534
20035TIP3    H181596   1.431   3.929   5.439  0.6943  0.4965 -0.9254
20035TIP3    H281597   1.474   3.872   5.572 -0.6466  1.0976 -0.2226
20036TIP3   OH281598   3.891   4.885  14.888  0.1793 -0.6213 -0.6702
20036TIP3    H181599   3.938   4.931  14.958  0.0560 -0.8776 -0.4166
20036TIP3    H281600   3.919   4.928  14.807  0.2717 -0.2781 -0.4567
20037TIP3   OH281601   1.796   4.734   1.918 -0.1096 -0.1273 -0.5022
20037TIP3    H181602   1.704   4.756   1.932  0.0335  2.4346 -3.1649
20037TIP3    H281603   1.832   4.724   2.007 -2.5841  0.4237  0.6013
20038TIP3   OH281604   2.079   1.202  13.202 -0.5721 -0.1923  0.8812
20038TIP3    H181605   2.076   1.109  13.178  0.9883 -0.1512  0.4577
20038TIP3    H281606   2.039   1.247  13.128 -2.5316 -0.5965  1.6524
20039TIP3   OH281607   4.261   2.008  16.237  0.3402 -0.0293 -0.7745
20039TIP3    H181608   4.213   2.014  16.320  1.0993  0.7595 -0.3808
20039TIP3    H281609   4.352   1.994  16.264  0.7040  0.9842 -1.4476
20040TIP3   OH281610   1.832   4.411  15.799 -0.0319  1.0539  0.7929
20040TIP3    H181611   1.805   4.491  15.843 -1.0109  0.7582  0.7328
20040TIP3    H281612   1.765   4.347  15.823  0.4574  0.3931  0.4073
20041TIP3   OH281613   4.645   2.625   1.172  0.1296  0.2718  0.2925
20041TIP3    H181614   4.629   2.663   1.085  0.3254  0.1563  0.2043
20041TIP3    H281615   4.559   2.595   1.200  0.0798  0.2239  0.0948
20042TIP3   OH281616   6.495   4.654   0.406  0.0753 -0.1271  0.1947
20042TIP3    H181617   6.449   4.723   0.358  1.7159  1.5066  0.8694
20042TIP3    H281618   6.428   4.590   0.428 -1.2168  0.5079 -1.7854
20043TIP3   OH281619   2.778   3.813   4.214 -0.8926 -0.4534 -0.5104
20043TIP3    H181620   2.786   3.858   4.130 -0.7505  0.4456 -0.0154
20043TIP3    H281621   2.840   3.740   4.207  0.9758  1.0637 -0.2611
20044TIP3   OH281622   2.669   0.937   6.197  0.4825  0.0663  0.5650
20044TIP3    H181623   2.662   0.876   6.271  0.4412 -1.7775 -0.9089
20044TIP3    H281624   2.764   0.950   6.186  0.5300 -0.4936  0.2907
20045TIP3   OH281625   0.082   3.675  15.383  0.0917 -0.1984  0.0967
20045TIP3    H181626   0.150   3.611  15.402 -1.2030 -2.0065 -1.2257
20045TIP3    H281627   0.130   3.750  15.347  1.3781 -1.5486 -1.0918
20046TIP3   OH281628   5.883   2.427   5.406  0.2173  0.3396  0.7702
20046TIP3    H181629   5.894   2.361   5.474  0.5207 -0.3420  0.0539
20046TIP3    H281630   5.804   2.475   5.433 -0.5850 -0.9511  0.7628
20047TIP3   OH281631   3.402   2.155   0.700 -0.4077 -0.6064  0.3527
20047TIP3    H181632   3.455   2.100   0.758  0.4604 -1.3407 -1.1021
20047TIP3    H281633   3.460   2.175   0.627 -0.9771  1.6145  0.4902
20048TIP3   OH281634   2.571   6.495  12.777  0.4222 -0.1523  0.7250
20048TIP3    H181635   2.502   6.516  12.714  0.9882  2.1076  0.8083
20048TIP3    H281636   2.524   6.460  12.853 -0.3888 -1.3047 -0.2841
20049TIP3   OH281637   3.355   0.117   2.244 -0.5920  0.3172  0.3379
20049TIP3    H181638   3.363   0.188   2.181  0.3516 -0.5888 -0.5963
20049TIP3    H281639   3.445   0.086   2.257 -1.0055 -0.8320  0.5706
20050TIP3   OH281640   4.347   5.563  11.909  0.1288 -0.2175 -0.4396
20050TIP3    H181641   4.415   5.541  11.972  2.0233  1.6643 -1.7517
20050TIP3    H281642   4.343   5.487  11.851  0.5510 -0.6773  0.1279
20051TIP3   OH281643   2.261   5.600   1.615 -0.0453 -0.9421 -0.6595
20051TIP3    H181644   2.347   5.594   1.576  0.5326  0.2796  0.3885
20051TIP3    H281645   2.277   5.633   1.703 -1.6919  0.5414 -0.8971
20052TIP3   OH281646   2.267   3.456  16.264 -0.0828 -0.6920  0.2304
20052TIP3    H181647   2.246   3.495  16.349  0.0088 -1.7837  0.7707
20052TIP3    H281648   2.241   3.522  16.200 -0.4031  0.0372  1.1003
20053TIP3   OH281649   6.575   2.318  13.483 -0.0258 -0.5823 -0.2730
20053TIP3    H181650   6.515   2.323  13.409 -1.5496 -0.2007  0.9546
20053TIP3    H281651   6.583   2.225  13.502  1.0529 -0.7394 -1.4457
20054TIP3   OH281652   0.042   6.339  14.507 -0.4139  0.0261  0.0703
20054TIP3    H181653   0.029   6.434  14.516  0.3748  0.2059 -0.5809
20054TIP3    H281654   0.045   6.307  14.597  0.4829  0.7951  0.3208
20055TIP3   OH281655   1.057   4.905   4.019  0.8252 -0.3976 -0.0598
20055TIP3    H181656   0.961   4.910   4.015  0.8723 -0.1079 -0.8936
20055TIP3    H281657   1.077   4.917   4.112  0.2147  2.5507 -0.2514
20056TIP3   OH281658   4.687   0.473   1.175  0.0297 -0.5291  0.2270
20056TIP3    H181659   4.654   0.438   1.257  0.7276  2.0440  1.6716
20056TIP3    H281660   4.779   0.444   1.172 -0.1046 -0.9497  0.1628
20057TIP3   OH281661   6.743   0.418  16.671 -0.1278  0.0736 -0.0638
20057TIP3    H181662   6.831   0.449  16.648 -0.9561  0.4163 -2.9755
20057TIP3    H281663   6.743   0.414  16.766  3.6556 -1.6692 -0.0454
20058TIP3   OH281664   5.915   3.812  14.869  0.4457  0.3678  0.7917
20058TIP3    H181665   5.898   3.737  14.811  0.4395  0.7364  0.3170
20058TIP3    H281666   5.829   3.838  14.900  0.5284 -0.3937  1.6776
20059TIP3   OH281667   0.627   3.329  12.910  0.5035 -0.0378 -0.2580
20059TIP3    H181668   0.590   3.258  12.858  2.0794  0.1515 -1.6816
20059TIP3    H281669   0.683   3.285  12.974 -0.6440 -0.2168  0.6282
20060TIP3   OH281670   4.098   1.562   3.612 -0.8658 -0.0801 -0.2777
20060TIP3    H181671   4.053   1.621   3.551 -1.1766 -1.4362 -1.3785
20060TIP3    H281672   4.050   1.571   3.694 -0.2499  2.0027 -0.1040
20061TIP3   OH281673   3.783   4.215   0.917 -0.5133  0.5781 -0.7769
20061TIP3    H181674   3.702   4.243   0.875 -2.2324 -0.9400  1.3828
20061TIP3    H281675   3.773   4.120   0.928  2.4177  0.0539 -2.2161
20062TIP3   OH281676   6.552   1.241  16.021 -0.4041 -0.1390  0.7355
20062TIP3    H181677   6.543   1.243  16.117 -0.1090 -0.5301  0.7688
20062TIP3    H281678   6.620   1.306  16.002  0.2166 -0.7563  0.8636
20063TIP3   OH281679   2.405   0.922  16.004 -0.1443  0.3253  0.5118
20063TIP3    H181680   2.331   0.971  16.042  0.3521  0.1839  1.6870
20063TIP3    H281681   2.381   0.910  15.912 -0.2256  2.8916  0.1567
20064TIP3   OH281682   2.889   6.776   0.587 -0.2357  0.9212 -0.7951
20064TIP3    H181683   2.943   6.709   0.545  3.1325  2.3013  1.1798
20064TIP3    H281684   2.920   6.858   0.550  0.9626  1.9491  2.3251
20065TIP3   OH281685   6.049   5.431  11.895 -0.0120 -0.2227  0.6897
20065TIP3    H181686   5.980   5.449  11.832 -1.2674  0.2408  2.1653
20065TIP3    H281687   6.082   5.518  11.920 -0.9569 -0.2653  2.2011
20066TIP3   OH281688   4.353   2.560   3.008 -0.3459  0.2451  0.1994
20066TIP3    H181689   4.406   2.534   2.932 -0.1718  0.6359  0.1867
20066TIP3    H281690   4.379   2.499   3.077 -0.8916 -0.4554 -0.2074
20067TIP3   OH281691   5.976   3.998   3.134 -0.5933 -0.4272  0.7556
20067TIP3    H181692   6.060   4.009   3.179 -0.9921 -0.0738  1.4126
20067TIP3    H281693   5.913   4.043   3.189 -1.4544 -1.8408  0.9454
20068TIP3   OH281694   2.040   5.555   4.868  0.1332 -0.2062  0.0299
20068TIP3    H181695   2.123   5.583   4.908 -0.7658 -1.2457  2.7078
20068TIP3    H281696   2.061   5.472   4.825  0.7721  0.1851 -0.4328
20069TIP3   OH281697   4.852   0.756   4.936  0.1194 -0.1893  0.4947
20069TIP3    H181698   4.876   0.829   4.992  1.0040  0.5977 -0.8701
20069TIP3    H281699   4.905   0.683   4.966  0.3643  0.1476  0.8675
20070TIP3   OH281700   3.817   0.474   2.780  0.1520 -0.5268  0.1863
20070TIP3    H181701   3.811   0.379   2.774 -1.0473 -0.3577 -1.6737
20070TIP3    H281702   3.811   0.505   2.689 -1.5926  1.4327  0.9195
20071TIP3   OH281703   5.466   1.157  14.139  0.0218 -0.2128  0.0464
20071TIP3    H181704   5.463   1.243  14.180 -0.5179 -0.7466  1.1469
20071TIP3    H281705   5.543   1.115  14.177 -1.4432 -1.3467  1.8552
20072TIP3   OH281706   1.589   2.995   2.250  0.5806 -0.4683  0.4029
20072TIP3    H181707   1.626   3.019   2.166 -2.0938  0.5551 -0.5195
20072TIP3    H281708   1.525   2.927   2.230 -0.3352  0.0368  1.5428
20073TIP3   OH281709   0.059   0.999  14.993 -0.4527 -0.4042  0.0750
20073TIP3    H181710   0.049   1.070  15.057  0.1169 -0.2337 -0.0198
20073TIP3    H281711  -0.002   1.020  14.923  1.4562  1.3274 -1.1347
20074TIP3   OH281712   5.270   1.493   2.083  0.3687  0.2622  0.4390
20074TIP3    H181713   5.244   1.410   2.044  0.8115  0.2741  0.1109
20074TIP3    H281714   5.216   1.501   2.161 -1.4996  0.8761 -0.8892
20075TIP3   OH281715   5.959   0.042   5.880 -0.0319 -0.3968  0.8971
20075TIP3    H181716   5.933   0.064   5.969 -2.1995  0.0887  0.1786
20075TIP3    H281717   5.882  -0.001   5.842  0.5249  0.2455 -1.0310
20076TIP3   OH281718   1.037   1.282  11.148 -0.2903 -0.2797  0.3844
20076TIP3    H181719   1.103   1.351  11.159 -2.2007  1.6694  0.1723
20076TIP3    H281720   1.035   1.265  11.054 -1.3521  1.0313  0.1404
20077TIP3   OH281721   0.092   1.322  16.608  0.3675  0.1861  0.0239
20077TIP3    H181722   0.007   1.340  16.648  1.4085  0.8096  2.0449
20077TIP3    H281723   0.090   1.229  16.588 -1.1194  0.3760 -0.7676
20078TIP3   OH281724   5.674   6.652   2.099  0.2995 -0.5487 -0.3786
20078TIP3    H181725   5.742   6.680   2.039  0.8666 -0.2798  0.3792
20078TIP3    H281726   5.627   6.584   2.052 -0.9496  1.4687 -2.1713
20079TIP3   OH281727   4.580   2.629  14.057 -0.8436 -0.2660 -0.7998
20079TIP3    H181728   4.499   2.580  14.065 -0.2561 -1.3608 -1.4689
20079TIP3    H281729   4.613   2.636  14.147 -0.2318 -2.2989 -0.8503
20080TIP3   OH281730   4.338   0.346   1.873 -0.5419  0.5005  0.1017
20080TIP3    H181731   4.348   0.373   1.781  0.3688 -1.2168 -0.3186
20080TIP3    H281732   4.245   0.324   1.882 -0.3928 -0.4925 -0.7354
20081TIP3   OH281733   0.583   5.338   0.056  0.2954  0.0245 -0.5226
20081TIP3    H181734   0.488   5.342   0.045 -0.0533  0.2022  2.1165
20081TIP3    H281735   0.601   5.246   0.071  0.4809  0.0507 -0.5894
20082TIP3   OH281736   0.448   1.101  12.682 -0.5539 -0.4075  0.8783
20082TIP3    H181737   0.396   1.176  12.654 -1.9820 -0.8780  2.1765
20082TIP3    H281738   0.513   1.139  12.742  1.5701  0.3807 -1.8247
20083TIP3   OH281739   5.630   1.712  13.424 -0.2149 -0.0142 -0.1953
20083TIP3    H181740   5.638   1.778  13.354 -1.7102  2.3575  1.7718
20083TIP3    H281741   5.543   1.674  13.411  0.6458 -1.6678 -1.3254
20084TIP3   OH281742   1.356   3.313   0.160 -0.3861 -0.4749 -0.2763
20084TIP3    H181743   1.332   3.222   0.172  0.8071 -0.5075  2.3142
20084TIP3    H281744   1.442   3.321   0.202 -1.0297  2.0926  0.7021
20085TIP3   OH281745   5.162   1.370   0.747  0.1242  0.3309 -0.1239
20085TIP3    H181746   5.131   1.305   0.810  0.6616  0.7860  0.6192
20085TIP3    H281747   5.257   1.367   0.755  0.1238  2.0525  0.7926
20086TIP3   OH281748   4.894   3.551  12.409  0.7698 -0.5673 -0.2911
20086TIP3    H181749   4.845   3.564  12.490  1.3558 -0.2652  0.0143
20086TIP3    H281750   4.897   3.638  12.369  1.3388 -0.5237 -0.1514
20087TIP3   OH281751   5.758   5.850  10.780 -0.2819  0.2832 -0.0692
20087TIP3    H181752   5.679   5.845  10.726  0.0660  1.2542 -0.6878
20087TIP3    H281753   5.797   5.934  10.756  0.9833 -0.2332  0.1753
20088TIP3   OH281754   6.782   4.631  16.972  0.0997  0.4907  0.5805
20088TIP3    H181755   6.694   4.599  16.993 -0.3506  0.1291 -1.7671
20088TIP3    H281756   6.839   4.555  16.984 -0.3141 -0.0056 -0.5542
20089TIP3   OH281757   3.045   0.269   4.025  0.3856 -0.6120 -0.3698
20089TIP3    H181758   3.058   0.205   4.095  0.6500 -0.3790 -0.2052
20089TIP3    H281759   2.950   0.283   4.023  0.4570  0.1734  0.6597
20090TIP3   OH281760   1.941   2.125   0.444  0.1881  0.5343 -0.4878
20090TIP3    H181761   2.011   2.165   0.391 -1.0357  0.2253 -2.3773
20090TIP3    H281762   1.954   2.030   0.433 -0.7230  0.4779 -1.1151
20091TIP3   OH281763   5.646   2.625   1.458  0.0145 -0.7089  0.0048
20091TIP3    H181764   5.624   2.715   1.482  1.1720 -0.2919 -0.4572
20091TIP3    H281765   5.738   2.629   1.431 -0.0921 -1.9200 -0.5783
20092TIP3   OH281766   4.430   6.237   6.557  0.0474 -0.3857 -0.3205
20092TIP3    H181767   4.402   6.326   6.578 -0.6973 -0.3111 -1.5323
20092TIP3    H281768   4.525   6.243   6.550  0.1853 -0.1158  1.5200
20093TIP3   OH281769   3.028   3.431  15.711 -0.0377  0.4273 -0.0270
20093TIP3    H181770   2.984   3.416  15.795  0.4796  0.8869  0.3285
20093TIP3    H281771   3.121   3.439  15.733  0.0577  0.9544 -0.5888
20094TIP3   OH281772   4.271   1.006   5.523 -0.7103  0.3038 -0.4985
20094TIP3    H181773   4.338   1.037   5.462 -1.0929 -1.0071 -1.6057
20094TIP3    H281774   4.247   1.084   5.573  0.4388  1.1499 -1.2261
20095TIP3   OH281775   0.150   0.945  11.147  0.6468  0.2299  0.0736
20095TIP3    H181776   0.137   0.858  11.111  0.6403 -0.6182  2.0485
20095TIP3    H281777   0.085   0.952  11.218  0.4300  1.9563 -0.2593
20096TIP3   OH281778   2.534   5.568   0.394 -0.2556 -0.1090  0.0309
20096TIP3    H181779   2.540   5.536   0.484 -0.7911  1.8954  0.7968
20096TIP3    H281780   2.445   5.548   0.367 -0.3983  0.1987  0.2838
20097TIP3   OH281781   6.436   3.576   5.943  0.4665  0.0034 -0.3173
20097TIP3    H181782   6.425   3.507   5.878 -0.1028  0.0004 -0.2219
20097TIP3    H281783   6.407   3.536   6.025  2.7810 -0.5417  0.2586
20098TIP3   OH281784   4.688   1.506   6.649  0.0976  0.1293 -0.3482
20098TIP3    H181785   4.664   1.456   6.571  0.7269 -1.6080  0.5339
20098TIP3    H281786   4.605   1.532   6.688 -0.2624 -0.5636 -0.6352
20099TIP3   OH281787   2.860   4.930  13.983 -0.0165 -0.3057  0.0424
20099TIP3    H181788   2.895   4.952  13.897  0.4223 -0.4618  0.1779
20099TIP3    H281789   2.922   4.868  14.020 -1.0276 -1.4442 -0.1527
20100TIP3   OH281790   5.033   3.101  14.659 -0.2308 -0.4090  0.2220
20100TIP3    H181791   5.016   3.024  14.713 -2.6480 -1.0152 -1.2968
20100TIP3    H281792   5.021   3.175  14.718 -0.4081 -1.1218  1.0903
20101TIP3   OH281793   2.200   3.308  15.210  0.2568 -0.2931  0.0498
20101TIP3    H181794   2.131   3.274  15.267  1.9018  0.0960  2.3545
20101TIP3    H281795   2.166   3.392  15.179 -0.2764 -0.0493  1.2431
20102TIP3   OH281796   3.290   0.471  13.215  0.0984 -0.1502 -0.2529
20102TIP3    H181797   3.339   0.401  13.257  0.1517  1.0041  1.6470
20102TIP3    H281798   3.221   0.426  13.166 -0.6353 -1.4625  1.9428
20103TIP3   OH281799   0.218   0.843  15.663 -0.2210  0.0163  0.3211
20103TIP3    H181800   0.247   0.924  15.621 -2.3601  0.7250  0.1497
20103TIP3    H281801   0.229   0.776  15.596  1.2609  0.1938  0.3610
20104TIP3   OH281802   2.025   0.376   6.488 -0.5350  0.4116 -0.2733
20104TIP3    H181803   2.012   0.471   6.482 -0.7420  0.5198  1.4748
20104TIP3    H281804   2.092   0.365   6.556 -0.6743 -0.7038 -0.3021
20105TIP3   OH281805   0.144   0.058  14.447  0.6020  0.5825 -0.3250
20105TIP3    H181806   0.223   0.051  14.393 -0.5499 -0.2491 -1.9432
20105TIP3    H281807   0.156   0.139  14.497  2.7043  0.1886 -0.1653
20106TIP3   OH281808   2.272   2.633   4.189 -0.5028  0.1465  0.1678
20106TIP3    H181809   2.291   2.724   4.209 -1.0869  0.4009 -0.3967
20106TIP3    H281810   2.335   2.609   4.121 -0.1394  0.0358  0.5474
20107TIP3   OH281811   3.607   2.450  14.986  0.0841  0.0732  0.3589
20107TIP3    H181812   3.535   2.430  14.926  1.4558 -0.4379 -1.1771
20107TIP3    H281813   3.609   2.546  14.990  1.0950  0.1924 -1.8962
20108TIP3   OH281814   5.120   6.754  14.981 -0.4357 -0.0028  0.2942
20108TIP3    H181815   5.080   6.699  14.914  0.7425  0.2737 -0.6471
20108TIP3    H281816   5.065   6.742  15.058 -0.8282 -1.6339 -0.2251
20109TIP3   OH281817   1.904   1.328  17.160  0.2170  0.0178  0.4007
20109TIP3    H181818   1.841   1.274  17.111 -1.9825  1.6306  1.3862
20109TIP3    H281819   1.899   1.295  17.249  1.0398 -0.0651  0.4207
20110TIP3   OH281820   2.466   0.548   2.132 -0.5437 -0.1327  0.1553
20110TIP3    H181821   2.390   0.576   2.082 -0.2002  0.8573  0.1723
20110TIP3    H281822   2.476   0.615   2.200 -0.3769 -0.8943  0.8901
20111TIP3   OH281823   2.969   1.838  12.464 -0.0511  0.2644 -0.0392
20111TIP3    H181824   3.039   1.793  12.511  0.4885 -0.4964 -1.5290
20111TIP3    H281825   2.906   1.864  12.532  1.0650 -0.1466  1.1622
20112TIP3   OH281826   6.623   4.397   3.728  0.1910  0.4036  0.1168
20112TIP3    H181827   6.641   4.352   3.810 -0.4319 -0.5625 -0.2700
20112TIP3    H281828   6.649   4.335   3.660  1.6209  1.5659 -0.4301
20113TIP3   OH281829   2.889   4.113   0.368  0.1336  0.5738 -0.2321
20113TIP3    H181830   2.850   4.029   0.342  1.8035 -0.3363  0.1547
20113TIP3    H281831   2.816   4.175   0.365 -0.6940 -0.4296 -2.6597
20114TIP3   OH281832   1.719   6.162  12.525 -0.5592  0.0920  0.2573
20114TIP3    H181833   1.700   6.127  12.438  0.3218  0.1263  0.0467
20114TIP3    H281834   1.679   6.250  12.525 -2.6340 -0.8232  0.7358
20115TIP3   OH281835   5.440   4.395  12.301  0.5924 -0.5114 -0.4793
20115TIP3    H181836   5.460   4.302  12.299 -0.0520 -0.6403 -1.0131
20115TIP3    H281837   5.504   4.432  12.363  0.5976 -1.3537  0.0203
20116TIP3   OH281838   1.361   0.797  16.727 -0.8931 -0.0265 -0.3789
20116TIP3    H181839   1.395   0.885  16.738 -0.7374 -0.1776  0.3831
20116TIP3    H281840   1.266   0.806  16.737 -0.8251 -0.0352  0.3048
20117TIP3   OH281841   2.074   0.956   6.251 -0.2282  0.1352  0.6800
20117TIP3    H181842   2.042   1.021   6.188 -0.2772 -1.4721 -0.9992
20117TIP3    H281843   1.996   0.929   6.299 -0.3351  0.7863  0.8715
20118TIP3   OH281844   5.179   4.527   1.801  0.1836 -0.0862 -0.1018
20118TIP3    H181845   5.096   4.535   1.755  0.5593  0.3444 -0.7056
20118TIP3    H281846   5.198   4.433   1.801 -1.3881 -0.4424  1.9676
20119TIP3   OH281847   6.138   0.489   2.609 -0.1965  0.7934  0.1159
20119TIP3    H181848   6.137   0.423   2.679 -0.4369  1.2493  0.5420
20119TIP3    H281849   6.094   0.445   2.535  0.4655  0.1518  0.0945
20120TIP3   OH281850   5.762   0.282   5.646  0.1425 -0.0960 -0.3354
20120TIP3    H181851   5.856   0.276   5.660  0.1021 -0.8058 -0.3413
20120TIP3    H281852   5.735   0.193   5.626 -0.4469  0.1969 -0.8685
20121TIP3   OH281853   6.613   3.929  11.971  0.3303 -0.2029  0.7525
20121TIP3    H181854   6.587   4.021  11.964  2.4683  0.3845 -0.0466
20121TIP3    H281855   6.609   3.897  11.881 -2.1561 -1.4301  1.2653
20122TIP3   OH281856   2.046   6.648  15.838 -0.2120 -0.2113 -0.2776
20122TIP3    H181857   2.130   6.612  15.868 -0.2704 -0.9925 -1.0191
20122TIP3    H281858   2.059   6.743  15.840 -0.2467 -0.2192  2.2530
20123TIP3   OH281859   1.568   2.797   0.241 -0.3792 -0.0848  0.7901
20123TIP3    H181860   1.501   2.861   0.216 -0.2909 -0.3382 -0.1185
20123TIP3    H281861   1.552   2.722   0.183  1.0867  0.1007  0.1152
20124TIP3   OH281862   2.861   1.017  11.579  0.1551  0.1277  0.2777
20124TIP3    H181863   2.870   0.923  11.569 -0.6330 -0.1835  2.2300
20124TIP3    H281864   2.773   1.037  11.548  0.0337  0.1050  0.6082
20125TIP3   OH281865   1.804   1.872  12.343 -0.1479  0.0857 -0.1011
20125TIP3    H181866   1.748   1.796  12.331 -0.8306  0.5031  0.3811
20125TIP3    H281867   1.865   1.869  12.269 -0.8479 -0.3333 -0.6684
20126TIP3   OH281868   2.911   6.029   0.930 -0.0978  0.6876  0.4078
20126TIP3    H181869   2.967   6.014   0.853 -1.0545 -0.1165 -0.1494
20126TIP3    H281870   2.835   5.973   0.915 -1.4139  2.3331  0.7764
20127TIP3   OH281871   5.322   5.569   1.163  0.6938 -0.0800 -0.0396
20127TIP3    H181872   5.383   5.638   1.190 -0.0273  0.7637 -0.5528
20127TIP3    H281873   5.368   5.522   1.094  1.4732 -0.5563  0.8013
20128TIP3   OH281874   0.806   5.670  11.555  0.9328 -0.1324  0.4472
20128TIP3    H181875   0.798   5.614  11.478  1.0912  0.8069 -0.2576
20128TIP3    H281876   0.898   5.662  11.581  1.2722  0.8086 -0.4350
20129TIP3   OH281877   6.187   5.979  10.888  0.1192  0.3144  0.1870
20129TIP3    H181878   6.105   5.939  10.919  0.3305 -0.6325 -0.4675
20129TIP3    H281879   6.255   5.917  10.914  0.5948  0.9236  0.3984
20130TIP3   OH281880   4.104   5.290   5.883  0.3334  0.4209 -0.0420
20130TIP3    H181881   4.089   5.384   5.894 -1.6962  0.0741  0.3803
20130TIP3    H281882   4.132   5.280   5.792 -1.2405  1.2425 -0.6308
20131TIP3   OH281883   4.744   0.546   3.298  0.3780 -0.0239 -0.4439
20131TIP3    H181884   4.751   0.484   3.226  1.6462 -0.5250  0.1093
20131TIP3    H281885   4.775   0.629   3.262  3.7026 -0.8919  0.2888
20132TIP3   OH281886   0.709   6.158  15.912  0.6095 -0.1299 -0.1655
20132TIP3    H181887   0.740   6.248  15.897  0.6921 -0.0255  0.5735
20132TIP3    H281888   0.786   6.111  15.943  0.3386 -0.1962  0.4256
20133TIP3   OH281889   4.901   2.443   0.656  0.0968 -0.4793  0.2147
20133TIP3    H181890   4.816   2.481   0.678 -0.4090 -1.0103 -0.8262
20133TIP3    H281891   4.955   2.460   0.734 -0.4856  1.2433  0.2657
20134TIP3   OH281892   6.761   3.475   0.670  0.1692  0.4146 -0.4267
20134TIP3    H181893   6.693   3.542   0.660 -1.1518 -0.9187 -0.6717
20134TIP3    H281894   6.802   3.494   0.754 -1.4328  0.4494  0.3697
20135TIP3   OH281895   0.111   4.617   4.336 -0.7934  0.5588  0.4482
20135TIP3    H181896   0.167   4.592   4.263  0.2312  3.1067  0.3028
20135TIP3    H281897   0.170   4.620   4.412 -0.8178  2.6301  0.4179
20136TIP3   OH281898   4.472   4.503   6.004  0.0677 -0.2107 -0.3424
20136TIP3    H181899   4.406   4.439   6.031 -0.9340  0.2979 -1.5418
20136TIP3    H281900   4.484   4.559   6.080 -0.7899 -0.3853 -0.0801
20137TIP3   OH281901   6.151   1.944   0.165  0.0451 -0.8592 -0.9212
20137TIP3    H181902   6.111   1.868   0.209  1.3303 -1.0519 -0.0670
20137TIP3    H281903   6.206   1.905   0.096 -0.1103 -0.6511 -1.1645
20138TIP3   OH281904   6.344   4.963   4.775 -0.4461  0.1627 -0.3485
20138TIP3    H181905   6.403   4.956   4.699 -1.7766  1.0159 -1.4935
20138TIP3    H281906   6.346   4.876   4.815  0.9736 -0.0435 -0.8287
20139TIP3   OH281907   2.737   3.290   2.816  0.5356 -0.3325  0.0358
20139TIP3    H181908   2.652   3.247   2.807  0.5635 -0.7088  1.4357
20139TIP3    H281909   2.766   3.268   2.905  1.6805  0.5393 -0.1059
20140TIP3   OH281910   1.266   6.465  16.850  0.5800  0.4358  0.0176
20140TIP3    H181911   1.357   6.460  16.820  0.7992 -0.4525  0.8185
20140TIP3    H281912   1.270   6.517  16.930  0.3991  0.2441  0.1487
20141TIP3   OH281913   3.948   3.815  11.053  0.1682  0.1473 -0.1922
20141TIP3    H181914   3.915   3.905  11.050  0.7393  0.3680  0.0830
20141TIP3    H281915   4.025   3.819  11.110 -0.8047 -0.8328  1.2377
20142TIP3   OH281916   0.071   1.125  16.974  0.3436 -0.1527  0.2051
20142TIP3    H181917   0.136   1.059  16.998  0.7829  0.6142  1.2032
20142TIP3    H281918   0.032   1.151  17.058  0.1849  0.8446 -0.1706
20143TIP3   OH281919   5.552   3.032  16.603 -0.0525  0.0466  0.2167
20143TIP3    H181920   5.627   2.981  16.573  0.1345 -0.6369  1.7887
20143TIP3    H281921   5.495   2.968  16.646 -1.1602  0.6892 -0.2849
20144TIP3   OH281922   3.843   2.212  15.173 -0.2465  0.7051  0.1040
20144TIP3    H181923   3.874   2.294  15.134  1.2526 -0.4489 -1.2187
20144TIP3    H281924   3.800   2.166  15.101 -1.4498  0.4981  0.9443
20145TIP3   OH281925   6.540   1.116  11.116  0.1160  0.1709 -0.3481
20145TIP3    H181926   6.596   1.087  11.044 -0.1774 -2.1891  0.3366
20145TIP3    H281927   6.465   1.157  11.073  0.8629  0.4954 -1.3458
20146TIP3   OH281928   2.611   6.342  11.615 -0.7601 -0.4363  0.4805
20146TIP3    H181929   2.612   6.433  11.645  2.0877 -0.6402  1.2005
20146TIP3    H281930   2.628   6.348  11.521  0.4629 -0.2286  0.6995
20147TIP3   OH281931   2.782   2.821   3.318  0.1881 -0.1588  0.3894
20147TIP3    H181932   2.691   2.830   3.345  0.6549  2.1500  1.3464
20147TIP3    H281933   2.815   2.911   3.315  2.0263 -0.8565 -1.3903
20148TIP3   OH281934   0.777   4.329   5.220  0.2814  0.6405  0.0916
20148TIP3    H181935   0.703   4.352   5.277  2.0687  0.0436  2.7398
20148TIP3    H281936   0.761   4.238   5.195 -0.6624  0.9974 -0.6369
20149TIP3   OH281937   5.190   0.917  14.346 -0.5736  0.3182  0.1856
20149TIP3    H181938   5.264   0.865  14.316 -1.3216 -1.2878  1.0645
20149TIP3    H281939   5.123   0.904  14.278 -0.1597  1.5821 -0.4911
20150TIP3   OH281940   5.776   1.256  16.790 -0.0870  0.0627  0.0998
20150TIP3    H181941   5.857   1.206  16.800 -1.2673 -1.7910  0.6573
20150TIP3    H281942   5.707   1.191  16.797 -1.6748  1.7685  0.6595
20151TIP3   OH281943   5.064   2.146  15.025  0.0388 -0.0009  0.0253
20151TIP3    H181944   5.100   2.080  14.964 -0.2681 -0.4909  0.3687
20151TIP3    H281945   5.130   2.153  15.093  0.8608  1.3053 -0.8826
20152TIP3   OH281946   0.980   5.878   1.560 -0.1064 -0.4430  0.2085
20152TIP3    H181947   0.924   5.945   1.521 -0.1718 -0.2664  0.5948
20152TIP3    H281948   0.996   5.815   1.490 -1.3532 -0.8537  0.2744
20153TIP3   OH281949   0.856   5.015   2.994 -0.2549  0.1825 -0.0220
20153TIP3    H181950   0.850   5.040   2.902  0.9623  1.3612  0.2045
20153TIP3    H281951   0.825   4.924   2.997 -0.4008  0.1788 -1.5625
20154TIP3   OH281952   2.087   6.414  16.762 -0.1185  0.0124  0.4515
20154TIP3    H181953   2.131   6.329  16.763  1.8515  0.9580 -1.0506
20154TIP3    H281954   2.118   6.458  16.841  0.1768 -0.0446  0.3701
20155TIP3   OH281955   3.637   1.102   5.187  0.4470  0.2730 -0.2295
20155TIP3    H181956   3.557   1.131   5.144 -0.0430  1.2041  1.2522
20155TIP3    H281957   3.609   1.077   5.275  1.7225  0.2426  0.1798
20156TIP3   OH281958   1.419   3.224   1.688 -0.6714  0.2795 -0.0490
20156TIP3    H181959   1.336   3.263   1.662 -0.3180  1.1816  0.1732
20156TIP3    H281960   1.396   3.161   1.756 -1.3467 -0.5689 -1.0376
20157TIP3   OH281961   0.481   2.117   5.518  0.0327  0.2343  0.2756
20157TIP3    H181962   0.439   2.191   5.561  0.4317  0.8179 -0.3293
20157TIP3    H281963   0.539   2.157   5.452  0.8407 -0.5839  0.4752
20158TIP3   OH281964   4.219   3.497  13.602  0.1246  0.1251 -0.0964
20158TIP3    H181965   4.226   3.426  13.666  2.2221 -0.3931 -0.8592
20158TIP3    H281966   4.160   3.464  13.535 -0.4233 -0.1535  0.5188
20159TIP3   OH281967   4.039   2.445   4.133 -0.0494  0.0318 -0.2589
20159TIP3    H181968   4.049   2.523   4.079 -0.7937  0.5510  0.3419
20159TIP3    H281969   4.089   2.378   4.087  0.7788  0.9132 -0.6693
20160TIP3   OH281970   1.843   1.905   4.218 -0.0183 -0.6228  0.2404
20160TIP3    H181971   1.925   1.898   4.169 -1.2138 -0.5271 -1.8589
20160TIP3    H281972   1.812   1.814   4.224 -0.9988 -0.4036 -1.2222
20161TIP3   OH281973   4.251   4.823   4.727 -0.6385  0.5861 -0.4379
20161TIP3    H181974   4.273   4.891   4.664 -0.4198  0.0684 -0.9296
20161TIP3    H281975   4.323   4.823   4.790 -1.1921  1.5696  0.2143
20162TIP3   OH281976   0.599   4.395  12.519 -0.0822  0.0781 -0.0963
20162TIP3    H181977   0.673   4.391  12.458 -0.0847 -0.8007 -0.0505
20162TIP3    H281978   0.638   4.422  12.602  0.3848 -1.4827  0.2105
20163TIP3   OH281979   0.047   1.371  13.399  0.1556 -0.4696  0.2211
20163TIP3    H181980   0.069   1.284  13.367  0.5666 -0.3106  0.0733
20163TIP3    H281981   0.109   1.430  13.356 -1.8302  0.2403 -1.8057
20164TIP3   OH281982   1.145   5.231  13.542 -0.6618 -0.6472 -0.2949
20164TIP3    H181983   1.198   5.211  13.465 -0.2391  2.0684 -0.7800
20164TIP3    H281984   1.198   5.203  13.616  1.3579  1.6313 -0.7881
20165TIP3   OH281985   4.913   3.712  13.724 -0.0342 -0.2357 -0.1070
20165TIP3    H181986   4.983   3.776  13.739 -0.0038 -0.7967  2.3222
20165TIP3    H281987   4.954   3.627  13.742 -0.9894 -0.6655  0.0815
20166TIP3   OH281988   6.384   2.686   1.212 -0.1682  0.4452 -0.2313
20166TIP3    H181989   6.323   2.735   1.156 -2.3123  1.8731  3.2142
20166TIP3    H281990   6.444   2.752   1.246  0.0468 -0.1525  0.5521
20167TIP3   OH281991   1.080   5.580  15.272 -0.4370 -0.1785  0.0441
20167TIP3    H181992   1.020   5.647  15.303 -1.4115 -1.0025 -0.0339
20167TIP3    H281993   1.088   5.519  15.346  1.5632  0.7527  0.6321
20168TIP3   OH281994   4.160   5.800  16.070  0.9959  0.1046  0.1769
20168TIP3    H181995   4.154   5.779  15.977  1.6231 -1.0184  0.3718
20168TIP3    H281996   4.098   5.740  16.112  2.7733 -1.4222  0.7419
20169TIP3   OH281997   6.784   4.560   2.139 -0.1379  0.0883  0.0914
20169TIP3    H181998   6.714   4.611   2.097 -0.3921  0.1568  0.6007
20169TIP3    H281999   6.739   4.500   2.198  0.1733 -0.6508 -0.4190
20170TIP3   OH282000   3.967   1.802   6.584 -0.3957 -0.1558  0.1733
20170TIP3    H182001   4.003   1.773   6.501 -0.7232 -1.3392  0.4399
20170TIP3    H282002   4.002   1.891   6.596 -0.0444 -0.1263 -1.0316
20171TIP3   OH282003   4.662   0.434   6.162  0.5288 -0.4166  0.1037
20171TIP3    H182004   4.622   0.425   6.248 -2.0714 -1.8431 -1.1523
20171TIP3    H282005   4.650   0.347   6.122 -0.3112  0.8381 -2.4601
20172TIP3   OH282006   3.304   5.406   0.048 -0.5414  0.0109 -0.3014
20172TIP3    H182007   3.277   5.414  -0.043  3.6189  1.5312 -1.4988
20172TIP3    H282008   3.245   5.463   0.096 -1.1014  1.2742 -2.4354
20173TIP3   OH282009   3.320   4.655   1.762 -0.0838 -0.0855  0.2557
20173TIP3    H182010   3.349   4.723   1.823  1.4966  0.5135 -1.1400
20173TIP3    H282011   3.335   4.573   1.810  1.1694  0.3818  0.6878
20174TIP3   OH282012   6.412   5.409  13.637  0.0325  0.0116 -0.8194
20174TIP3    H182013   6.442   5.498  13.617 -0.3725  0.0144 -1.3886
20174TIP3    H282014   6.336   5.421  13.694  0.1223  0.0225 -0.6992
20175TIP3   OH282015   4.354   0.308  15.850 -0.3076  0.5908  0.1241
20175TIP3    H182016   4.281   0.360  15.816 -0.4501  0.6539  0.5249
20175TIP3    H282017   4.403   0.282  15.772 -0.4521  1.0032 -0.1091
20176TIP3   OH282018   0.051   6.152  11.738  0.0556 -0.1535  0.4538
20176TIP3    H182019   0.016   6.170  11.650 -0.4509  1.2887  0.9386
20176TIP3    H282020   0.128   6.208  11.744  1.3228 -1.8284  0.1483
20177TIP3   OH282021   3.194   1.276  11.339 -0.6770  0.0398 -0.7775
20177TIP3    H182022   3.106   1.250  11.365 -1.0966  1.6123 -0.6103
20177TIP3    H282023   3.250   1.204  11.368 -1.9887 -1.3264 -1.5690
20178TIP3   OH282024   2.317   2.705  14.755  0.4205 -0.3012  0.2446
20178TIP3    H182025   2.335   2.715  14.848 -0.5769 -0.2609  0.4448
20178TIP3    H282026   2.227   2.738  14.745  0.9793  0.8866 -0.9447
20179TIP3   OH282027   2.281   0.006  13.182  0.0258  0.0796 -0.1821
20179TIP3    H182028   2.272   0.070  13.112  0.3958 -0.7518 -1.0006
20179TIP3    H282029   2.349  -0.054  13.151 -2.2145 -2.3247 -0.6839
20180TIP3   OH282030   6.225   3.125   5.119 -0.1702  0.3720 -1.3281
20180TIP3    H182031   6.305   3.175   5.103 -0.5724  0.3152 -3.6850
20180TIP3    H282032   6.182   3.171   5.190  2.1973  0.1193  0.3217
20181TIP3   OH282033   5.110   0.621  13.452 -0.6081  0.1444 -0.0450
20181TIP3    H182034   5.020   0.654  13.454 -0.3241  0.8227  2.7066
20181TIP3    H282035   5.162   0.696  13.425 -0.7434  0.0343 -0.6198
20182TIP3   OH282036   0.603   4.191   0.352 -0.8516  0.3599  0.3884
20182TIP3    H182037   0.576   4.101   0.334 -1.5523  0.6858 -0.2120
20182TIP3    H282038   0.672   4.209   0.289 -1.5543  0.6478 -0.3076
20183TIP3   OH282039   4.792   2.701  15.943 -0.1744  0.2944 -0.1472
20183TIP3    H182040   4.827   2.676  15.858 -0.6601  0.3228 -0.3594
20183TIP3    H282041   4.697   2.692  15.933 -0.3126  1.5193 -0.0070
20184TIP3   OH282042   2.716   1.361   3.145 -0.3353 -0.1576  0.3460
20184TIP3    H182043   2.684   1.272   3.133 -1.2199  0.4455 -2.0259
20184TIP3    H282044   2.778   1.375   3.074 -0.6786  1.3384  0.3111
20185TIP3   OH282045   0.119   4.321  15.282 -0.2484 -0.3247 -0.2604
20185TIP3    H182046   0.121   4.416  15.285  1.0986 -0.3696  0.8782
20185TIP3    H282047   0.202   4.296  15.241 -1.0309 -0.9869 -1.4761
20186TIP3   OH282048   1.539   6.042  13.033 -0.2070  0.2730 -0.1584
20186TIP3    H182049   1.558   6.135  13.048 -0.4252  0.5018 -1.2294
20186TIP3    H282050   1.460   6.043  12.980  0.0466 -0.5177 -0.5547
20187TIP3   OH282051   3.424   1.969  11.149  0.1825 -0.4800  0.3150
20187TIP3    H182052   3.495   1.909  11.125  0.8055  0.1911  0.4377
20187TIP3    H282053   3.351   1.943  11.094  0.5962 -1.0346  0.0150
20188TIP3   OH282054   6.103   3.016  12.801  0.3632  0.3683 -0.3882
20188TIP3    H182055   6.045   2.941  12.813  0.0602  0.5293 -0.8559
20188TIP3    H282056   6.052   3.091  12.832  1.2475  0.1793  1.6146
20189TIP3   OH282057   1.555   1.112   1.914  0.0003 -0.1109  0.0723
20189TIP3    H182058   1.566   1.107   1.819 -1.3733  0.2084 -0.1029
20189TIP3    H282059   1.581   1.025   1.945 -2.6851 -1.3008 -0.9137
20190TIP3   OH282060   4.757   2.931   3.882 -0.6232  0.1893  0.0373
20190TIP3    H182061   4.844   2.970   3.891 -0.8341  0.5173  0.7314
20190TIP3    H282062   4.728   2.955   3.794 -0.6259  1.3752  0.3436
20191TIP3   OH282063   3.020   5.183   5.112  0.4634  0.3209 -0.5262
20191TIP3    H182064   2.959   5.125   5.067  0.3756  0.8778 -1.1288
20191TIP3    H282065   2.984   5.270   5.099  2.0885  0.7991 -2.0274
20192TIP3   OH282066   3.114   5.102  13.512  0.4679 -0.2323 -0.5813
20192TIP3    H182067   3.127   5.084  13.605 -1.2745 -0.9377 -0.4516
20192TIP3    H282068   3.200   5.091  13.473  0.7550 -2.2922  0.5859
20193TIP3   OH282069   3.564   6.343   2.349 -0.0892  0.4991 -0.3603
20193TIP3    H182070   3.471   6.321   2.349 -0.2588  1.1981 -0.0283
20193TIP3    H282071   3.573   6.410   2.417  0.3324  1.7499 -1.6240
20194TIP3   OH282072   4.968   6.085  14.784  0.4767 -0.0501 -0.5248
20194TIP3    H182073   4.913   6.027  14.731 -0.6635  0.4916  0.0652
20194TIP3    H282074   4.906   6.137  14.834  1.5030  1.5024 -0.8581
20195TIP3   OH282075   0.610   4.712  10.945 -0.0855  0.1936 -0.4152
20195TIP3    H182076   0.620   4.807  10.934  0.2949  0.2052  0.0080
20195TIP3    H282077   0.699   4.677  10.936  0.0131  0.0478  1.0132
20196TIP3   OH282078   2.860   1.771  15.386 -0.6985  1.1467  0.0991
20196TIP3    H182079   2.802   1.835  15.428 -1.4214  0.7738 -0.3462
20196TIP3    H282080   2.806   1.727  15.322 -0.7792 -1.3997  1.8526
20197TIP3   OH282081   4.678   5.751   3.809 -0.2226 -0.1193 -0.3235
20197TIP3    H182082   4.674   5.777   3.717  0.5310  1.7783  0.1744
20197TIP3    H282083   4.703   5.659   3.807 -3.1658 -0.9586 -2.1171
20198TIP3   OH282084   2.156   3.907  12.789  0.0285 -0.1231  0.3180
20198TIP3    H182085   2.119   3.836  12.842 -0.1677  0.0752  0.4450
20198TIP3    H282086   2.234   3.868  12.749  2.0036  0.6373  3.2635
20199TIP3   OH282087   0.023   2.063   4.022 -0.0412  0.0258 -0.6944
20199TIP3    H182088  -0.025   2.035   3.944  0.3292 -1.8236 -0.2797
20199TIP3    H282089   0.106   2.015   4.018  0.2857  0.4705  0.4454
20200TIP3   OH282090   4.354   2.143  14.573  0.1702  0.4646 -0.4644
20200TIP3    H182091   4.433   2.160  14.625 -1.5348 -1.0358  2.7544
20200TIP3    H282092   4.378   2.070  14.516  0.8158 -0.5739  1.1238
20201TIP3   OH282093   1.436   5.021   6.654 -0.1738  0.0425  0.0501
20201TIP3    H182094   1.502   5.025   6.724 -0.2743 -0.7715  0.1927
20201TIP3    H282095   1.428   5.112   6.624  2.1840 -0.0741 -1.0545
20202TIP3   OH282096   0.693   4.270   4.016  0.1697  0.3688 -0.3316
20202TIP3    H182097   0.599   4.267   4.030  0.0215  0.0317 -1.3209
20202TIP3    H282098   0.728   4.316   4.092 -0.6672 -0.5983  0.6540
20203TIP3   OH282099   0.558   0.393   2.703  0.2941 -0.0538 -0.5192
20203TIP3    H182100   0.463   0.395   2.692  0.3276 -1.7017 -1.1434
20203TIP3    H282101   0.587   0.480   2.674 -0.9541  0.2220 -0.9664
20204TIP3   OH282102   1.760   6.315   6.975 -0.0250 -0.3382 -0.3852
20204TIP3    H182103   1.737   6.233   6.931 -0.9366 -1.2226  1.6733
20204TIP3    H282104   1.767   6.379   6.904 -1.5670 -1.6988 -1.8176
20205TIP3   OH282105   5.682   1.797   6.371  0.0033 -0.2925 -0.0458
20205TIP3    H182106   5.702   1.885   6.405  0.1679 -0.4131  0.1750
20205TIP3    H282107   5.746   1.783   6.302  0.0014 -0.2516 -0.0561
20206TIP3   OH282108   1.965   4.442  12.706  0.1133  0.8327 -0.2730
20206TIP3    H182109   1.903   4.433  12.633 -0.1337 -0.1760  0.0563
20206TIP3    H282110   2.051   4.437  12.664 -0.0281  1.1992 -0.6086
20207TIP3   OH282111   4.097   0.471   5.141  0.4391  0.7156  0.2836
20207TIP3    H182112   4.155   0.395   5.149 -1.1052 -0.3884  1.0221
20207TIP3    H282113   4.069   0.470   5.049 -0.0411  0.0528  0.4360
20208TIP3   OH282114   6.035   6.027  11.257 -0.0996  0.2930 -0.3101
20208TIP3    H182115   6.127   6.054  11.252 -0.2344  0.7203 -0.5571
20208TIP3    H282116   6.024   5.964  11.186  0.7385 -2.0226  1.5571
20209TIP3   OH282117   0.384   3.241  14.931  0.5029  0.0323  0.6912
20209TIP3    H182118   0.293   3.267  14.945  0.4258 -0.4575  1.0810
20209TIP3    H282119   0.389   3.151  14.961  0.9883 -0.1288  0.1437
20210TIP3   OH282120   4.511   5.576  11.353  0.0856  0.3004  0.1606
20210TIP3    H182121   4.593   5.625  11.354  0.1077  0.2889 -0.9159
20210TIP3    H282122   4.443   5.642  11.351  0.1021  0.2963 -0.5860
20211TIP3   OH282123   0.782   6.634   6.486  0.3819  0.4106  0.6816
20211TIP3    H182124   0.819   6.586   6.412 -0.3333 -1.6331  1.6350
20211TIP3    H282125   0.830   6.603   6.562 -0.1334  1.1752  1.3317
20212TIP3   OH282126   0.931   3.010   6.158  0.2804 -0.6812  0.0065
20212TIP3    H182127   0.946   3.092   6.205  0.4125 -1.6464  1.6785
20212TIP3    H282128   0.879   3.036   6.082 -0.4349  0.8268  0.9789
20213TIP3   OH282129   3.055   0.574   2.801  0.2626  0.1604  0.0083
20213TIP3    H182130   3.076   0.648   2.745  0.7143  0.7953  1.0108
20213TIP3    H282131   2.976   0.601   2.848 -0.3922 -0.5596 -0.6542
20214TIP3   OH282132   4.870   3.143   2.297 -0.3580  0.1368 -0.0971
20214TIP3    H182133   4.836   3.126   2.385 -1.5755 -0.2350 -0.6352
20214TIP3    H282134   4.826   3.223   2.269  1.0900  1.0508  0.1772
20215TIP3   OH282135   4.601   2.756   1.581  0.0222 -0.4071  0.0636
20215TIP3    H182136   4.571   2.837   1.539  1.1892  0.5003  0.9609
20215TIP3    H282137   4.579   2.766   1.673 -1.5131 -1.9229 -0.1163
20216TIP3   OH282138   0.313   2.890  13.024 -0.4063  0.0847 -1.0374
20216TIP3    H182139   0.234   2.875  13.074 -0.6990  0.1400 -1.4782
20216TIP3    H282140   0.348   2.802  13.008  0.3477  0.1279  0.3049
20217TIP3   OH282141   2.191   4.311   4.175  0.0348  0.1962  0.1268
20217TIP3    H182142   2.242   4.295   4.255  1.5085  0.3717 -0.7652
20217TIP3    H282143   2.200   4.230   4.125 -2.3159 -0.5804  0.8741
20218TIP3   OH282144   5.675   2.620   3.146  0.5955 -0.4150 -0.2626
20218TIP3    H182145   5.728   2.546   3.175  1.0879  0.2838  0.6085
20218TIP3    H282146   5.627   2.586   3.070  0.0317 -1.9566  0.7555
20219TIP3   OH282147   1.480   6.780  12.845  0.3956  0.2938  0.1676
20219TIP3    H182148   1.571   6.776  12.874  0.5250 -0.6024 -0.3671
20219TIP3    H282149   1.461   6.874  12.838  1.6032  0.4858 -0.7204
20220TIP3   OH282150   4.563   2.250  11.796  0.4611 -0.8661 -0.6470
20220TIP3    H182151   4.536   2.184  11.733  0.4781 -1.7040  0.2165
20220TIP3    H282152   4.548   2.210  11.882 -2.9008  1.5414  0.0055
20221TIP3   OH282153   4.253   4.893  14.908 -0.0708 -0.2663 -0.0475
20221TIP3    H182154   4.219   4.937  14.829  2.6605 -1.7822 -2.1388
20221TIP3    H282155   4.348   4.902  14.901  0.2284 -0.4211  3.1442
20222TIP3   OH282156   4.308   4.363  16.389  0.2891  0.0003 -0.6569
20222TIP3    H182157   4.289   4.349  16.296 -0.1770  0.3657 -0.6162
20222TIP3    H282158   4.319   4.275  16.424 -2.4550 -0.2807 -0.4428
20223TIP3   OH282159   2.685   1.808   1.768 -0.3204  0.3982  0.4150
20223TIP3    H182160   2.619   1.875   1.748 -3.0075 -2.1624  0.3023
20223TIP3    H282161   2.641   1.749   1.830  2.3025 -0.7437  1.2830
20224TIP3   OH282162   6.075   4.937  14.425  0.4973  0.3049  0.2093
20224TIP3    H182163   6.049   5.027  14.445  1.5752  0.7713 -0.4174
20224TIP3    H282164   6.033   4.884  14.492 -1.6713  1.0658 -0.5077
20225TIP3   OH282165   4.453   2.548  15.713  0.0004  0.2759  0.2679
20225TIP3    H182166   4.371   2.507  15.684  1.1914 -1.2898 -0.9232
20225TIP3    H282167   4.513   2.475  15.726  1.0477  1.3779  1.7119
20226TIP3   OH282168   4.829   3.081   4.706 -0.0761  0.2583  0.1555
20226TIP3    H182169   4.847   2.987   4.697  1.9563  0.8334 -2.4526
20226TIP3    H282170   4.738   3.091   4.680 -0.1974 -0.9559  0.0874
20227TIP3   OH282171   6.329   1.095  16.194 -0.2701 -0.1971 -0.3001
20227TIP3    H182172   6.388   1.063  16.125 -1.2459  2.2586 -2.3682
20227TIP3    H282173   6.243   1.100  16.152 -1.1505  0.0969  1.4832
20228TIP3   OH282174   4.014   1.070  13.055  0.4246  0.0202  0.9838
20228TIP3    H182175   4.023   1.133  13.126 -0.5229  0.4966  0.6894
20228TIP3    H282176   3.979   1.121  12.982 -0.2719 -0.8345  0.7166
20229TIP3   OH282177   4.780   2.262   3.350 -0.8019 -0.0830 -0.3218
20229TIP3    H182178   4.849   2.196   3.353 -0.5349  0.0021 -2.9693
20229TIP3    H282179   4.722   2.240   3.422  1.1981 -1.0367  1.0505
20230TIP3   OH282180   0.564   2.897   2.022 -0.1397  0.1510 -0.2262
20230TIP3    H182181   0.624   2.875   2.093  0.1522  1.5260 -0.0181
20230TIP3    H282182   0.566   2.821   1.963  0.1802 -0.6839  0.8565
20231TIP3   OH282183   2.391   0.815  15.765  0.0608 -0.4564  0.5023
20231TIP3    H182184   2.302   0.833  15.735  0.2927  0.7772  0.5311
20231TIP3    H282185   2.447   0.833  15.690  0.2890 -1.1551  0.5062
20232TIP3   OH282186   2.559   6.747   4.332  0.2788  0.0630  0.2686
20232TIP3    H182187   2.484   6.764   4.275 -0.3819  1.0501  1.4114
20232TIP3    H282188   2.560   6.820   4.393  2.3440  0.2059  0.1015
20233TIP3   OH282189   3.934   0.219  15.721 -0.6844  0.2027 -0.1029
20233TIP3    H182190   3.997   0.152  15.747 -1.2615  0.0988  1.0392
20233TIP3    H282191   3.969   0.255  15.639  1.1093  0.4976  0.7879
20234TIP3   OH282192   5.069   3.692  11.115  0.5581  0.5875 -0.2674
20234TIP3    H182193   5.117   3.774  11.111  0.7212  0.7513  3.3442
20234TIP3    H282194   4.977   3.718  11.127  0.7219  0.2793  1.7926
20235TIP3   OH282195   5.560   5.115  11.332  0.5160 -0.0970  0.2333
20235TIP3    H182196   5.525   5.035  11.294  0.6413  0.1287 -0.3660
20235TIP3    H282197   5.485   5.174  11.337  0.5189 -0.0946  0.2486
20236TIP3   OH282198   4.330   3.099   5.474 -0.4037 -0.3042 -0.0912
20236TIP3    H182199   4.329   3.007   5.446 -2.9221 -0.1348 -0.6934
20236TIP3    H282200   4.271   3.143   5.413 -0.1068  1.5052  0.8947
20237TIP3   OH282201   6.818   2.872  16.571  0.1671  0.0720 -0.4002
20237TIP3    H182202   6.792   2.868  16.663  0.8118  0.0570 -0.2162
20237TIP3    H282203   6.885   2.941  16.568  0.0029  0.2104 -0.8877
20238TIP3   OH282204   6.596   5.744   5.788  0.6476 -0.2449 -0.2211
20238TIP3    H182205   6.565   5.804   5.720  0.2243 -0.8943 -0.6109
20238TIP3    H282206   6.620   5.800   5.861 -0.9861  0.3364 -0.1026
20239TIP3   OH282207   5.584   2.196  13.330 -0.2718 -0.1372 -0.4240
20239TIP3    H182208   5.534   2.267  13.291  1.7886  0.5238 -1.9491
20239TIP3    H282209   5.566   2.121  13.274 -0.3456 -0.1608 -0.3694
20240TIP3   OH282210   5.095   0.439   4.605  0.1713 -0.1470 -0.5473
20240TIP3    H182211   5.141   0.401   4.680  0.5828 -1.1983 -1.3162
20240TIP3    H282212   5.164   0.456   4.541 -0.3093 -0.2706 -1.1037
20241TIP3   OH282213   5.489   1.690  17.277 -0.1248  0.5684 -0.0641
20241TIP3    H182214   5.508   1.695  17.183  1.6919  0.2302  0.2842
20241TIP3    H282215   5.545   1.621  17.310 -3.3098 -1.7848  0.6783
20242TIP3   OH282216   0.984   1.369   2.229 -0.1349  0.0939  0.3545
20242TIP3    H182217   0.977   1.460   2.199  3.6915  0.7906  1.3571
20242TIP3    H282218   1.026   1.323   2.156 -2.5545 -1.0551 -0.3708
20243LIG     O182219   3.491   3.332  16.583 -0.8981 -0.2354  0.3443
20243LIG     O282220   3.359   3.952  16.591 -0.0855  0.0946  0.2462
20243LIG     O382221   3.557   3.797  16.645  0.2744  0.0726 -0.4714
20243LIG     O482222   3.130   4.072  16.649 -0.0287 -0.1493 -0.3219
20243LIG     O582223   3.629   3.410  16.799 -0.3826 -0.5183  0.1276
20243LIG     O682224   2.928   4.168  16.782 -0.0692  0.1923 -0.5466
20243LIG      N82225   3.425   3.520  16.312 -0.8596  0.1375 -0.4491
20243LIG     C182226   3.285   3.615  16.488  0.0284  1.5995  0.2918
20243LIG     C282227   3.372   3.738  16.508 -0.0556 -0.3828 -0.0239
20243LIG     C382228   3.182   3.581  16.608 -0.2165 -0.3768  0.1405
20243LIG     C482229   3.368   3.488  16.446  0.2825 -0.7016 -0.3916
20243LIG     C582230   3.110   3.700  16.661 -0.2310  0.7013  0.2642
20243LIG     C682231   3.299   3.845  16.580  0.2926  0.2873 -0.3870
20243LIG     C782232   3.165   3.828  16.641  0.5731  0.0209 -0.0776
20243LIG     C882233   3.488   3.706  16.595  0.2309  0.1812 -0.1215
20243LIG     C982234   3.462   3.464  16.564 -0.3574 -0.1775 -0.1953
20243LIG    C1082235   3.519   3.561  16.639  0.3712 -0.6847  0.5894
20243LIG    C1182236   2.992   3.690  16.741 -0.4876 -0.2037  0.1958
20243LIG    C1282237   3.088   3.942  16.680  0.1258 -0.7700  0.5833
20243LIG    C1382238   2.906   3.797  16.780 -0.4094  0.4923 -0.5914
20243LIG    C1482239   2.965   3.929  16.756 -0.3842 -0.0025  0.1692
20243LIG    C1582240   2.943   3.543  16.761  0.3059  0.5468  0.7714
20243LIG    C1682241   3.625   3.526  16.740  0.5557  0.3271  0.7249
20243LIG    C1782242   2.878   4.036  16.789 -0.1231  0.3120  0.9551
20243LIG    C1882243   2.775   3.780  16.835 -0.4894  0.2092 -0.4816
20243LIG    C1982244   2.747   4.023  16.842 -0.7472  0.0983  0.4670
20243LIG    C2082245   2.696   3.894  16.858 -0.1459  0.8861 -0.3343
20243LIG    C2182246   3.744   3.619  16.768  0.4763  0.9452 -0.2039
20243LIG    C2282247   3.511   3.249  16.465  0.5544  0.2895  0.1634
20243LIG    C2382248   2.652   4.139  16.868  0.8559  0.5292 -0.4506
20243LIG     H182249   3.217   3.646  16.406 -0.1699 -0.2652 -0.2746
20243LIG     H282250   3.416   3.778  16.413 -1.8726  0.1658 -0.6455
20243LIG     H382251   3.236   3.536  16.693 -0.1299 -2.3075 -0.8995
20243LIG     H482252   3.105   3.508  16.573 -0.0462 -0.2431 -0.5305
20243LIG     H582253   3.290   3.412  16.429 -1.4999  1.5854 -2.9007
20243LIG     H682254   3.351   3.521  16.243 -1.9456  2.6494  0.6934
20243LIG     H782255   3.476   3.442  16.271  0.0883 -0.0868  1.0760
20243LIG     H882256   3.029   3.472  16.756 -1.5692 -1.8017  0.8754
20243LIG     H982257   2.867   3.521  16.684  0.1395 -0.6645  1.2769
20243LIG    H1082258   2.907   3.541  16.867  1.0282 -0.4423  1.0050
20243LIG    H1182259   2.729   3.683  16.842  0.3877 -0.1704  0.1859
20243LIG    H1282260   3.200   4.068  16.583  1.5404 -1.7122  1.3921
20243LIG    H1382261   2.598   3.866  16.895 -0.1789 -0.8829 -1.6603
20243LIG    H1482262   3.703   3.705  16.825  0.9282  0.8884  0.2122
20243LIG    H1582263   3.788   3.650  16.671  2.8270  0.6169  0.7208
20243LIG    H1682264   3.821   3.574  16.835 -0.4840  1.6475  1.4237
20243LIG    H1782265   3.414   3.224  16.418 -0.1860  0.8583  1.3498
20243LIG    H1882266   3.557   3.152  16.494 -0.2862 -0.5560 -1.2975
20243LIG    H1982267   3.574   3.298  16.388 -0.3934  0.4346 -0.5322
20243LIG    H2082268   2.658   4.193  16.771  2.1701  1.9519  0.3949
20243LIG    H2182269   2.693   4.190  16.958 -0.9531 -0.0976  0.7584
20243LIG    H2282270   2.548   4.110  16.895  0.1540  3.1042 -0.2283
20243LIG    H2382271   2.999   4.170  16.718 -0.6352  1.4409 -1.1341
   6.82013   6.82013  17.29240
